
                                 *****************
                                 * O   R   C   A *
                                 *****************

           --- An Ab Initio, DFT and Semiempirical electronic structure package ---

                  #######################################################
                  #                        -***-                        #
                  #          Department of theory and spectroscopy      #
                  #               Directorship: Frank Neese             #
                  #        Max Planck Institute fuer Kohlenforschung    #
                  #                Kaiser Wilhelm Platz 1               #
                  #                 D-45470 Muelheim/Ruhr               #
                  #                      Germany                        #
                  #                                                     #
                  #                  All rights reserved                #
                  #                        -***-                        #
                  #######################################################


                         Program Version 4.1.0  - RELEASE  -


 With contributions from (in alphabetic order):
   Daniel Aravena         : Magnetic Properties
   Michael Atanasov       : Ab Initio Ligand Field Theory
   Alexander A. Auer      : GIAO ZORA
   Ute Becker             : Parallelization
   Giovanni Bistoni       : ED, Open-shell LED
   Martin Brehm           : Molecular dynamics
   Dmytro Bykov           : SCF Hessian
   Vijay G. Chilkuri      : MRCI spin determinant printing
   Dipayan Datta          : RHF DLPNO-CCSD density
   Achintya Kumar Dutta   : EOM-CC, STEOM-CC
   Dmitry Ganyushin       : Spin-Orbit,Spin-Spin,Magnetic field MRCI
   Miquel Garcia          : C-PCM Hessian
   Yang Guo               : DLPNO-NEVPT2, CIM, IAO-localization
   Andreas Hansen         : Spin unrestricted coupled pair/coupled cluster methods
   Benjamin Helmich-Paris : CASSCF linear response (MC-RPA)
   Lee Huntington         : MR-EOM, pCC
   Robert Izsak           : Overlap fitted RIJCOSX, COSX-SCS-MP3, EOM
   Christian Kollmar      : KDIIS, OOCD, Brueckner-CCSD(T), CCSD density
   Simone Kossmann        : Meta GGA functionals, TD-DFT gradient, OOMP2, MP2 Hessian
   Martin Krupicka        : AUTO-CI
   Lucas Lang             : DCDCAS
   Dagmar Lenk            : GEPOL surface, SMD
   Dimitrios Liakos       : Extrapolation schemes; parallel MDCI
   Dimitrios Manganas     : ROCIS; embedding schemes
   Dimitrios Pantazis     : SARC Basis sets
   Taras Petrenko         : DFT Hessian,TD-DFT gradient, ASA, ECA, R-Raman, ABS, FL, XAS/XES, NRVS
   Peter Pinski           : DLPNO-MP2, DLPNO-MP2 Gradient
   Christoph Reimann      : Effective Core Potentials
   Marius Retegan         : Local ZFS, SOC
   Christoph Riplinger    : Optimizer, TS searches, QM/MM, DLPNO-CCSD(T), (RO)-DLPNO pert. Triples
   Tobias Risthaus        : Range-separated hybrids, TD-DFT gradient, RPA, STAB
   Michael Roemelt        : Restricted open shell CIS
   Masaaki Saitow         : Open-shell DLPNO
   Barbara Sandhoefer     : DKH picture change effects
   Avijit Sen             : IP-ROCIS
   Kantharuban Sivalingam : CASSCF convergence, NEVPT2, FIC-MRCI
   Bernardo de Souza      : ESD, SOC TD-DFT
   Georgi Stoychev        : AutoAux, RI-MP2 NMR
   Willem Van den Heuvel  : Paramagnetic NMR
   Boris Wezisla          : Elementary symmetry handling
   Frank Wennmohs         : Technical directorship


 We gratefully acknowledge several colleagues who have allowed us to
 interface, adapt or use parts of their codes:
   Stefan Grimme, W. Hujo, H. Kruse,             : VdW corrections, initial TS optimization,
                  C. Bannwarth                     DFT functionals, gCP, sTDA/sTD-DF
   Ed Valeev                                     : LibInt (2-el integral package), F12 methods
   Garnet Chan, S. Sharma, J. Yang, R. Olivares  : DMRG
   Ulf Ekstrom                                   : XCFun DFT Library
   Mihaly Kallay                                 : mrcc  (arbitrary order and MRCC methods)
   Andreas Klamt, Michael Diedenhofen            : otool_cosmo (COSMO solvation model)
   Jiri Pittner, Ondrej Demel                    : Mk-CCSD
   Frank Weinhold                                : gennbo (NPA and NBO analysis)
   Christopher J. Cramer and Donald G. Truhlar   : smd solvation model
   Lars Goerigk                                  : TD-DFT with DH, B97 family of functionals
   V. Asgeirsson, H. Jonsson                     : NEB implementation
   FAccTs GmbH                                   : IRC, NEB, NEB-TS, Multilevel


 Your calculation uses the libint2 library for the computation of 2-el integrals
 For citations please refer to: http://libint.valeyev.net

 This ORCA versions uses:
   CBLAS   interface :  Fast vector & matrix operations
   LAPACKE interface :  Fast linear algebra routines
   SCALAPACK package :  Parallel linear algebra routines




***************************************
The coordinates will be read from file: /Users/lailaal-madhagi/Desktop/Testing_XAS_Analysis_code/1-3-5-2-4_Benzotrithiadiazepine//Results_dir_Benzotrithiadiazepine_geom_element_N_2019-11-11_07-22-02//GTE1_Benzotrithiadiazepine_geom_2019-11-11_07-22-14//opt.xyz
***************************************


----- Orbital basis set information -----
Your calculation utilizes the basis: 6-31G*
   H-He, Li-Ne : W. J. Hehre, R. Ditchfield and J.A. Pople, J. Chem. Phys. 56, 2257 (1972).
                 Note: He and Ne are unpublished basis sets taken from the Gaussian program.
                 Note: Li and B from J. D. Dill and J. A. Pople, J. Chem. Phys. 62, 2921 (1975).
   Na - Ar     : M. M. Francl, W. J. Pietro, W. J. Hehre, J. S. Binkley, M. S. Gordon, 
                 D. J. DeFrees and J. A. Pople, J. Chem. Phys. 77, 3654 (1982).
   K - Zn      : V. A. Rassolov, J. A. Pople, M. A. Ratner, and T. L. Windus, J. Chem. Phys. 109, 1223 (1998).

================================================================================
                                        WARNINGS
                       Please study these warnings very carefully!
================================================================================


INFO   : the flag for use of LIBINT has been found!

================================================================================
                                       INPUT FILE
================================================================================
NAME = /Users/lailaal-madhagi/Desktop/Testing_XAS_Analysis_code/1-3-5-2-4_Benzotrithiadiazepine//Results_dir_Benzotrithiadiazepine_geom_element_N_2019-11-11_07-22-02//GTE1_Benzotrithiadiazepine_geom_2019-11-11_07-22-14//freq.inp
|  1> ! B3LYP 6-31G* TIGHTSCF Grid3 FinalGrid5 Freq 
|  2> !NormalPrint 
|  3> %output 
|  4> Print[P_Basis] 2 
|  5> Print[P_MOS] 1 
|  6> end 
|  7> *xyzfile 0 1 /Users/lailaal-madhagi/Desktop/Testing_XAS_Analysis_code/1-3-5-2-4_Benzotrithiadiazepine//Results_dir_Benzotrithiadiazepine_geom_element_N_2019-11-11_07-22-02//GTE1_Benzotrithiadiazepine_geom_2019-11-11_07-22-14//opt.xyz                           ****END OF INPUT****
================================================================================

                       ****************************
                       * Single Point Calculation *
                       ****************************

---------------------------------
CARTESIAN COORDINATES (ANGSTROEM)
---------------------------------
  C     -0.592535    0.895807   -0.026916
  C     -0.569871   -0.513068   -0.135335
  C      0.648599    1.586219    0.073793
  C      0.692939   -1.170771   -0.138519
  C      1.857228    0.925066    0.068490
  C      1.879812   -0.478344   -0.039650
  S     -1.903186    2.084728    0.015842
  N     -3.441235    1.526787   -0.091282
  S     -4.180701    0.144889   -0.229454
  N     -3.397216   -1.217649   -0.301649
  S     -1.841785   -1.735872   -0.278021
  H      0.633679    2.671125    0.157208
  H      2.782284    1.488277    0.147441
  H      2.822610   -1.017072   -0.045837
  H      0.712858   -2.255583   -0.222090

----------------------------
CARTESIAN COORDINATES (A.U.)
----------------------------
  NO LB      ZA    FRAG     MASS         X           Y           Z
   0 C     6.0000    0    12.011   -1.119728    1.692831   -0.050865
   1 C     6.0000    0    12.011   -1.076899   -0.969558   -0.255746
   2 C     6.0000    0    12.011    1.225674    2.997520    0.139448
   3 C     6.0000    0    12.011    1.309465   -2.212436   -0.261764
   4 C     6.0000    0    12.011    3.509651    1.748122    0.129428
   5 C     6.0000    0    12.011    3.552330   -0.903940   -0.074928
   6 S    16.0000    0    32.060   -3.596501    3.939564    0.029938
   7 N     7.0000    0    14.007   -6.502992    2.885209   -0.172499
   8 S    16.0000    0    32.060   -7.900380    0.273801   -0.433606
   9 N     7.0000    0    14.007   -6.419809   -2.301023   -0.570034
  10 S    16.0000    0    32.060   -3.480470   -3.280323   -0.525384
  11 H     1.0000    0     1.008    1.197480    5.047696    0.297079
  12 H     1.0000    0     1.008    5.257755    2.812436    0.278623
  13 H     1.0000    0     1.008    5.333960   -1.921987   -0.086620
  14 H     1.0000    0     1.008    1.347107   -4.262435   -0.419689

--------------------------------
INTERNAL COORDINATES (ANGSTROEM)
--------------------------------
 C      0   0   0     0.000000000000     0.00000000     0.00000000
 C      1   0   0     1.413222684171     0.00000000     0.00000000
 C      1   2   0     1.423805861368   118.35031295     0.00000000
 C      2   1   3     1.423822625934   118.35293159     0.00000000
 C      3   1   2     1.377655424172   122.12489113     0.00000000
 C      4   2   1     1.377641753128   122.12489072     0.00000000
 S      1   2   3     1.770075598053   133.10514749   180.01497536
 N      7   1   2     1.639624046508   117.67385267   359.77138834
 S      8   7   1     1.573385670384   138.20010431     0.16449888
 N      9   8   7     1.573394787731   122.04527460     0.05959056
 S     10   9   8     1.639658273295   138.19493430   359.88757045
 H      3   1   2     1.088210398879   118.48340073   179.98989870
 H      5   3   1     1.085895676141   119.87926372   180.00724840
 H      6   4   2     1.085879069386   119.88349480   180.00622517
 H      4   2   1     1.088209308690   118.48258212   180.01093538

---------------------------
INTERNAL COORDINATES (A.U.)
---------------------------
 C      0   0   0     0.000000000000     0.00000000     0.00000000
 C      1   0   0     2.670603839329     0.00000000     0.00000000
 C      1   2   0     2.690603145858   118.35031295     0.00000000
 C      2   1   3     2.690634826296   118.35293159     0.00000000
 C      3   1   2     2.603391458596   122.12489113     0.00000000
 C      4   2   1     2.603365624067   122.12489072     0.00000000
 S      1   2   3     3.344958116657   133.10514749   180.01497536
 N      7   1   2     3.098440410492   117.67385267   359.77138834
 S      8   7   1     2.973268020062   138.20010431     0.16449888
 N      9   8   7     2.973285249351   122.04527460     0.05959056
 S     10   9   8     3.098505089746   138.19493430   359.88757045
 H      3   1   2     2.056419629967   118.48340073   179.98989870
 H      5   3   1     2.052045437917   119.87926372   180.00724840
 H      6   4   2     2.052014055698   119.88349480   180.00622517
 H      4   2   1     2.056417569808   118.48258212   180.01093538

---------------------
BASIS SET INFORMATION
---------------------
There are 4 groups of distinct atoms

 Group   1 Type C   : 10s4p1d contracted to 3s2p1d pattern {631/31/1}
 Group   2 Type S   : 16s10p1d contracted to 4s3p1d pattern {6631/631/1}
 Group   3 Type N   : 10s4p1d contracted to 3s2p1d pattern {631/31/1}
 Group   4 Type H   : 4s contracted to 2s pattern {31}

Atom   0C    basis set group =>   1
Atom   1C    basis set group =>   1
Atom   2C    basis set group =>   1
Atom   3C    basis set group =>   1
Atom   4C    basis set group =>   1
Atom   5C    basis set group =>   1
Atom   6S    basis set group =>   2
Atom   7N    basis set group =>   3
Atom   8S    basis set group =>   2
Atom   9N    basis set group =>   3
Atom  10S    basis set group =>   2
Atom  11H    basis set group =>   4
Atom  12H    basis set group =>   4
Atom  13H    basis set group =>   4
Atom  14H    basis set group =>   4

-------------------------
BASIS SET IN INPUT FORMAT
-------------------------

 # Basis set for element : H 
 NewGTO H 
 S 3 
   1      18.7311370000      0.0334945995
   2       2.8253937000      0.2347269467
   3       0.6401217000      0.8137573184
 S 1 
   1       0.1612778000      1.0000000000
  end;

 # Basis set for element : C 
 NewGTO C 
 S 6 
   1    3047.5249000000      0.0018347002
   2     457.3695100000      0.0140373012
   3     103.9486900000      0.0688426061
   4      29.2101550000      0.2321844206
   5       9.2866630000      0.4679413416
   6       3.1639270000      0.3623120322
 S 3 
   1       7.8682724000     -0.1193324086
   2       1.8812885000     -0.1608542116
   3       0.5442493000      1.1434564826
 P 3 
   1       7.8682724000      0.0689990956
   2       1.8812885000      0.3164239798
   3       0.5442493000      0.7443082524
 S 1 
   1       0.1687144000      1.0000000000
 P 1 
   1       0.1687144000      1.0000000000
 D 1 
   1       0.8000000000      1.0000000000
  end;

 # Basis set for element : N 
 NewGTO N 
 S 6 
   1    4173.5110000000      0.0018347994
   2     627.4579000000      0.0139949958
   3     142.9021000000      0.0685869792
   4      40.2343300000      0.2322409295
   5      12.8202100000      0.4690698576
   6       4.3904370000      0.3604548906
 S 3 
   1      11.6263580000     -0.1149610229
   2       2.7162800000     -0.1691180337
   3       0.7722180000      1.1458522281
 P 3 
   1      11.6263580000      0.0675800232
   2       2.7162800000      0.3239071114
   3       0.7722180000      0.7408952549
 S 1 
   1       0.2120313000      1.0000000000
 P 1 
   1       0.2120313000      1.0000000000
 D 1 
   1       0.8000000000      1.0000000000
  end;

 # Basis set for element : S 
 NewGTO S 
 S 6 
   1   21917.1000000000      0.0018690012
   2    3301.4900000000      0.0142300092
   3     754.1460000000      0.0696960451
   4     212.7110000000      0.2384871542
   5      67.9896000000      0.4833073125
   6      23.0515000000      0.3380742186
 S 6 
   1     423.7350000000     -0.0023767005
   2     100.7100000000     -0.0316930066
   3      32.1599000000     -0.1133170236
   4      11.8079000000      0.0560900117
   5       4.6311000000      0.5922551234
   6       1.8702500000      0.4550060948
 P 6 
   1     423.7350000000      0.0040610003
   2     100.7100000000      0.0306810024
   3      32.1599000000      0.1304520103
   4      11.8079000000      0.3272050259
   5       4.6311000000      0.4528510358
   6       1.8702500000      0.2560420203
 S 3 
   1       2.6158400000     -0.2503731142
   2       0.9221670000      0.0669567631
   3       0.3412870000      1.0545062691
 P 3 
   1       2.6158400000     -0.0145109929
   2       0.9221670000      0.3102628472
   3       0.3412870000      0.7544826285
 S 1 
   1       0.1171670000      1.0000000000
 P 1 
   1       0.1171670000      1.0000000000
 D 1 
   1       0.6500000000      1.0000000000
  end;

------------------------------------------------------------------------------
                           ORCA GTO INTEGRAL CALCULATION
------------------------------------------------------------------------------

                         BASIS SET STATISTICS AND STARTUP INFO

 # of primitive gaussian shells          ...  217
 # of primitive gaussian functions       ...  385
 # of contracted shells                  ...   80
 # of contracted basis functions         ...  174
 Highest angular momentum                ...    2
 Maximum contraction depth               ...    6
 Integral package used                   ... LIBINT
 Integral threshhold            Thresh   ...  2.500e-11
 Primitive cut-off              TCut     ...  2.500e-12


------------------------------ INTEGRAL EVALUATION ----------------------------


 * One electron integrals 
 Pre-screening matrix                    ... done
 Shell pair data                         ... done (   0.002 sec)

-------------------------------------------------------------------------------
                                 ORCA SCF
-------------------------------------------------------------------------------

------------
SCF SETTINGS
------------
Hamiltonian:
 Density Functional     Method          .... DFT(GTOs)
 Exchange Functional    Exchange        .... B88
   X-Alpha parameter    XAlpha          ....  0.666667
   Becke's b parameter  XBeta           ....  0.004200
 Correlation Functional Correlation     .... LYP
 LDA part of GGA corr.  LDAOpt          .... VWN-5
 Gradients option       PostSCFGGA      .... off
 Hybrid DFT is turned on
   Fraction HF Exchange ScalHFX         ....  0.200000
   Scaling of DF-GGA-X  ScalDFX         ....  0.720000
   Scaling of DF-GGA-C  ScalDFC         ....  0.810000
   Scaling of DF-LDA-C  ScalLDAC        ....  1.000000
   Perturbative correction              ....  0.000000
   Density functional embedding theory  .... OFF
   NL short-range parameter             ....  4.800000


General Settings:
 Integral files         IntName         .... /Users/lailaal-madhagi/Desktop/Testing_XAS_Analysis_code/1-3-5-2-4_Benzotrithiadiazepine//Results_dir_Benzotrithiadiazepine_geom_element_N_2019-11-11_07-22-02//GTE1_Benzotrithiadiazepine_geom_2019-11-11_07-22-14//freq
 Hartree-Fock type      HFTyp           .... RHF
 Total Charge           Charge          ....    0
 Multiplicity           Mult            ....    1
 Number of Electrons    NEL             ....  102
 Basis Dimension        Dim             ....  174
 Nuclear Repulsion      ENuc            ....    858.4713691965 Eh

Convergence Acceleration:
 DIIS                   CNVDIIS         .... on
   Start iteration      DIISMaxIt       ....    12
   Startup error        DIISStart       ....  0.200000
   # of expansion vecs  DIISMaxEq       ....     5
   Bias factor          DIISBfac        ....   1.050
   Max. coefficient     DIISMaxC        ....  10.000
 Newton-Raphson         CNVNR           .... off
 SOSCF                  CNVSOSCF        .... on
   Start iteration      SOSCFMaxIt      ....   150
   Startup grad/error   SOSCFStart      ....  0.003300
 Level Shifting         CNVShift        .... on
   Level shift para.    LevelShift      ....    0.2500
   Turn off err/grad.   ShiftErr        ....    0.0010
 Zerner damping         CNVZerner       .... off
 Static damping         CNVDamp         .... on
   Fraction old density DampFac         ....    0.7000
   Max. Damping (<1)    DampMax         ....    0.9800
   Min. Damping (>=0)   DampMin         ....    0.0000
   Turn off err/grad.   DampErr         ....    0.1000
 Fernandez-Rico         CNVRico         .... off

SCF Procedure:
 Maximum # iterations   MaxIter         ....   125
 SCF integral mode      SCFMode         .... Direct
   Integral package                     .... LIBINT
 Reset frequency        DirectResetFreq ....    20
 Integral Threshold     Thresh          ....  2.500e-11 Eh
 Primitive CutOff       TCut            ....  2.500e-12 Eh

Convergence Tolerance:
 Convergence Check Mode ConvCheckMode   .... Total+1el-Energy
 Convergence forced     ConvForced      .... 0
 Energy Change          TolE            ....  1.000e-08 Eh
 1-El. energy change                    ....  1.000e-05 Eh
 Orbital Gradient       TolG            ....  1.000e-05
 Orbital Rotation angle TolX            ....  1.000e-05
 DIIS Error             TolErr          ....  5.000e-07


Diagonalization of the overlap matrix:
Smallest eigenvalue                        ... 5.407e-04
Time for diagonalization                   ...    0.004 sec
Threshold for overlap eigenvalues          ... 1.000e-08
Number of eigenvalues below threshold      ... 0
Time for construction of square roots      ...    0.003 sec
Total time needed                          ...    0.007 sec

-------------------
DFT GRID GENERATION
-------------------

General Integration Accuracy     IntAcc      ...  4.340
Radial Grid Type                 RadialGrid  ... Gauss-Chebyshev
Angular Grid (max. acc.)         AngularGrid ... Lebedev-194
Angular grid pruning method      GridPruning ... 3 (G Style)
Weight generation scheme         WeightScheme... Becke
Basis function cutoff            BFCut       ...    1.0000e-11
Integration weight cutoff        WCut        ...    1.0000e-14
Grids for H and He will be reduced by one unit

# of grid points (after initial pruning)     ...  43220 (   0.0 sec)
# of grid points (after weights+screening)   ...  40086 (   0.1 sec)
nearest neighbour list constructed           ...    0.0 sec
Grid point re-assignment to atoms done       ...    0.0 sec
Grid point division into batches done        ...    0.1 sec
Reduced shell lists constructed in    0.3 sec

Total number of grid points                  ...    40086
Total number of batches                      ...      634
Average number of points per batch           ...       63
Average number of grid points per atom       ...     2672
Average number of shells per batch           ...    48.32 (60.40%)
Average number of basis functions per batch  ...   108.00 (62.07%)
Average number of large shells per batch     ...    35.88 (74.25%)
Average number of large basis fcns per batch ...    80.33 (74.38%)
Maximum spatial batch extension              ...  17.48, 20.36, 21.45 au
Average spatial batch extension              ...   3.04,  3.13,  3.63 au

Time for grid setup =    0.372 sec

------------------------------
INITIAL GUESS: MODEL POTENTIAL
------------------------------
Loading Hartree-Fock densities                     ... done
Calculating cut-offs                               ... done
Setting up the integral package                    ... done
Initializing the effective Hamiltonian             ... done
Starting the Coulomb interaction                   ... done (   0.1 sec)
Reading the grid                                   ... done
Mapping shells                                     ... done
Starting the XC term evaluation                    ... done (   0.3 sec)
  promolecular density results
     # of electrons  =    101.997953985
     EX              =   -120.281153359
     EC              =     -3.849209460
     EX+EC           =   -124.130362818
Transforming the Hamiltonian                       ... done (   0.0 sec)
Diagonalizing the Hamiltonian                      ... done (   0.0 sec)
Back transforming the eigenvectors                 ... done (   0.0 sec)
Now organizing SCF variables                       ... done
                      ------------------
                      INITIAL GUESS DONE (   0.9 sec)
                      ------------------
--------------
SCF ITERATIONS
--------------
               ***  Starting incremental Fock matrix formation  ***

                         ----------------------------
                         !        ITERATION     0   !
                         ----------------------------
   Total Energy        :   -1534.301979157945 Eh
   Energy Change       :   -1534.301979157945 Eh
   MAX-DP              :       0.074255837957
   RMS-DP              :       0.002538274704
   Actual Damping      :       0.7000
   Actual Level Shift  :       0.2500 Eh
   Int. Num. El.       :   101.99982176 (UP=   50.99991088 DN=   50.99991088)
   Exchange            :   -96.52144422
   Correlation         :    -4.53123041


                         ----------------------------
                         !        ITERATION     1   !
                         ----------------------------
   Total Energy        :   -1534.452986809792 Eh
   Energy Change       :      -0.151007651847 Eh
   MAX-DP              :       0.048502687042
   RMS-DP              :       0.001732396979
   Actual Damping      :       0.7000
   Actual Level Shift  :       0.2500 Eh
   Int. Num. El.       :   101.99976725 (UP=   50.99988363 DN=   50.99988363)
   Exchange            :   -96.26767428
   Correlation         :    -4.52091579

                               ***Turning on DIIS***

                         ----------------------------
                         !        ITERATION     2   !
                         ----------------------------
   Total Energy        :   -1534.507462739920 Eh
   Energy Change       :      -0.054475930128 Eh
   MAX-DP              :       0.063520408767
   RMS-DP              :       0.002673958172
   Actual Damping      :       0.0000
   Actual Level Shift  :       0.2500 Eh
   Int. Num. El.       :   101.99973375 (UP=   50.99986688 DN=   50.99986688)
   Exchange            :   -96.10570369
   Correlation         :    -4.51391011
   DIIS-Error          :       0.024641120707


                         ----------------------------
                         !        ITERATION     3   !
                         ----------------------------
   Total Energy        :   -1534.583033457954 Eh
   Energy Change       :      -0.075570718034 Eh
   MAX-DP              :       0.037563790486
   RMS-DP              :       0.001212857253
   Actual Damping      :       0.0000
   Actual Level Shift  :       0.2500 Eh
   Int. Num. El.       :   101.99968340 (UP=   50.99984170 DN=   50.99984170)
   Exchange            :   -95.87379334
   Correlation         :    -4.50332188
   DIIS-Error          :       0.047676615073
   DIIS coefficients:
      0.67919   0.32081


                         ----------------------------
                         !        ITERATION     4   !
                         ----------------------------
   Total Energy        :   -1534.608326849258 Eh
   Energy Change       :      -0.025293391304 Eh
   MAX-DP              :       0.011673517629
   RMS-DP              :       0.000486973802
   Actual Damping      :       0.0000
   Actual Level Shift  :       0.2500 Eh
   Int. Num. El.       :   101.99969838 (UP=   50.99984919 DN=   50.99984919)
   Exchange            :   -95.95577596
   Correlation         :    -4.50715894
   DIIS-Error          :       0.013344701932
   DIIS coefficients:
      0.22642  -0.09813   0.87171


                         ----------------------------
                         !        ITERATION     5   !
                         ----------------------------
   Total Energy        :   -1534.610386003532 Eh
   Energy Change       :      -0.002059154274 Eh
   MAX-DP              :       0.004770193117
   RMS-DP              :       0.000167626116
   Actual Damping      :       0.0000
   Actual Level Shift  :       0.2500 Eh
   Int. Num. El.       :   101.99970321 (UP=   50.99985160 DN=   50.99985160)
   Exchange            :   -95.98077346
   Correlation         :    -4.50836807
   DIIS-Error          :       0.007304993685
   DIIS coefficients:
      0.07839  -0.07967   0.30612   0.69516

                      *** Initiating the SOSCF procedure ***
                           *** Shutting down DIIS ***
                      *** Re-Reading the Fockian *** 
                      *** Removing any level shift *** 

                         ----------------------------
                         !        ITERATION     6   !
                         ----------------------------
   Total Energy        :   -1534.610659342297 Eh
   Energy Change       :      -0.000273338765 Eh
   MAX-DP              :       0.001746994676
   RMS-DP              :       0.000084070597
   Orbital gradient    :       0.000587791734
   Orbital Rotation    :       0.000587791734
   Actual Damping      :       0.0000
   Int. Num. El.       :   101.99970336 (UP=   50.99985168 DN=   50.99985168)
   Exchange            :   -95.99200845
   Correlation         :    -4.50876912

               *** Restarting incremental Fock matrix formation ***

                         ----------------------------
                         !        ITERATION     7   !
                         ----------------------------
   Total Energy        :   -1534.610677221148 Eh
   Energy Change       :      -0.000017878851 Eh
   MAX-DP              :       0.001238627614
   RMS-DP              :       0.000041626226
   Orbital gradient    :       0.000295362492
   Orbital Rotation    :       0.001102699960
   Actual Damping      :       0.0000
   Int. Num. El.       :   101.99970389 (UP=   50.99985194 DN=   50.99985194)
   Exchange            :   -95.99454734
   Correlation         :    -4.50889691


                         ----------------------------
                         !        ITERATION     8   !
                         ----------------------------
   Total Energy        :   -1534.610672539602 Eh
   Energy Change       :       0.000004681546 Eh
   MAX-DP              :       0.000801358077
   RMS-DP              :       0.000026135814
   Orbital gradient    :       0.000515753545
   Orbital Rotation    :       0.000664865286
   Actual Damping      :       0.0000
   Int. Num. El.       :   101.99970351 (UP=   50.99985176 DN=   50.99985176)
   Exchange            :   -95.99340083
   Correlation         :    -4.50883012


                         ----------------------------
                         !        ITERATION     9   !
                         ----------------------------
   Total Energy        :   -1534.610679583847 Eh
   Energy Change       :      -0.000007044245 Eh
   MAX-DP              :       0.000362213728
   RMS-DP              :       0.000010767258
   Orbital gradient    :       0.000073945621
   Orbital Rotation    :       0.000263260207
   Actual Damping      :       0.0000
   Int. Num. El.       :   101.99970386 (UP=   50.99985193 DN=   50.99985193)
   Exchange            :   -95.99385422
   Correlation         :    -4.50886249


                         ----------------------------
                         !        ITERATION    10   !
                         ----------------------------
   Total Energy        :   -1534.610679233678 Eh
   Energy Change       :       0.000000350170 Eh
   MAX-DP              :       0.000291221152
   RMS-DP              :       0.000007212875
   Orbital gradient    :       0.000126773724
   Orbital Rotation    :       0.000241693624
   Actual Damping      :       0.0000
   Int. Num. El.       :   101.99970390 (UP=   50.99985195 DN=   50.99985195)
   Exchange            :   -95.99425064
   Correlation         :    -4.50887881


                         ----------------------------
                         !        ITERATION    11   !
                         ----------------------------
   Total Energy        :   -1534.610679712381 Eh
   Energy Change       :      -0.000000478704 Eh
   MAX-DP              :       0.000074639599
   RMS-DP              :       0.000002068978
   Orbital gradient    :       0.000011780696
   Orbital Rotation    :       0.000070063327
   Actual Damping      :       0.0000
   Int. Num. El.       :   101.99970388 (UP=   50.99985194 DN=   50.99985194)
   Exchange            :   -95.99401622
   Correlation         :    -4.50886902


                         ----------------------------
                         !        ITERATION    12   !
                         ----------------------------
   Total Energy        :   -1534.610679696454 Eh
   Energy Change       :       0.000000015927 Eh
   MAX-DP              :       0.000060374948
   RMS-DP              :       0.000001427166
   Orbital gradient    :       0.000034254988
   Orbital Rotation    :       0.000073603792
   Actual Damping      :       0.0000
   Int. Num. El.       :   101.99970388 (UP=   50.99985194 DN=   50.99985194)
   Exchange            :   -95.99397360
   Correlation         :    -4.50886654


                         ----------------------------
                         !        ITERATION    13   !
                         ----------------------------
   Total Energy        :   -1534.610679714088 Eh
   Energy Change       :      -0.000000017634 Eh
   MAX-DP              :       0.000068376589
   RMS-DP              :       0.000001491676
   Orbital gradient    :       0.000012033262
   Orbital Rotation    :       0.000051663875
   Actual Damping      :       0.0000
   Int. Num. El.       :   101.99970388 (UP=   50.99985194 DN=   50.99985194)
   Exchange            :   -95.99399267
   Correlation         :    -4.50886768


                         ----------------------------
                         !        ITERATION    14   !
                         ----------------------------
   Total Energy        :   -1534.610679706729 Eh
   Energy Change       :       0.000000007359 Eh
   MAX-DP              :       0.000051661804
   RMS-DP              :       0.000001056577
   Orbital gradient    :       0.000018929905
   Orbital Rotation    :       0.000039341090
   Actual Damping      :       0.0000
   Int. Num. El.       :   101.99970389 (UP=   50.99985195 DN=   50.99985195)
   Exchange            :   -95.99402109
   Correlation         :    -4.50886946

                  ***Gradient check signals convergence***
              ***Rediagonalizing the Fockian in SOSCF/NRSCF***

               *****************************************************
               *                     SUCCESS                       *
               *           SCF CONVERGED AFTER  15 CYCLES          *
               *****************************************************

Setting up the final grid:

General Integration Accuracy     IntAcc      ...  5.010
Radial Grid Type                 RadialGrid  ... Gauss-Chebyshev
Angular Grid (max. acc.)         AngularGrid ... Lebedev-434
Angular grid pruning method      GridPruning ... 3 (G Style)
Weight generation scheme         WeightScheme... Becke
Basis function cutoff            BFCut       ...    1.0000e-11
Integration weight cutoff        WCut        ...    1.0000e-14
Grids for H and He will be reduced by one unit

# of grid points (after initial pruning)     ... 147356 (   0.1 sec)
# of grid points (after weights+screening)   ... 135569 (   0.2 sec)
nearest neighbour list constructed           ...    0.0 sec
Grid point re-assignment to atoms done       ...    0.0 sec
Grid point division into batches done        ...    0.8 sec
Reduced shell lists constructed in    1.5 sec

Total number of grid points                  ...   135569
Total number of batches                      ...     2125
Average number of points per batch           ...       63
Average number of grid points per atom       ...     9038
Average number of shells per batch           ...    44.52 (55.66%)
Average number of basis functions per batch  ...    99.08 (56.94%)
Average number of large shells per batch     ...    32.60 (73.22%)
Average number of large basis fcns per batch ...    72.50 (73.17%)
Maximum spatial batch extension              ...  20.06, 18.46, 22.30 au
Average spatial batch extension              ...   2.09,  2.11,  2.31 au

Final grid set up in    1.8 sec
Final integration                            ... done (   1.2 sec)
Change in XC energy                          ...     0.000437174
Integrated number of electrons               ...   101.999992060
Previous integrated no of electrons          ...   101.999703883

----------------
TOTAL SCF ENERGY
----------------

Total Energy       :        -1534.61024254 Eh          -41758.86768 eV

Components:
Nuclear Repulsion  :          858.47136920 Eh           23360.19357 eV
Electronic Energy  :        -2393.08161174 Eh          -65119.06124 eV
One Electron Energy:        -3816.21398899 Eh         -103844.46199 eV
Two Electron Energy:         1423.13237725 Eh           38725.40075 eV

Virial components:
Potential Energy   :        -3064.77987708 Eh          -83396.90027 eV
Kinetic Energy     :         1530.16963454 Eh           41638.03259 eV
Virial Ratio       :            2.00290204


DFT components:
N(Alpha)           :       50.999996030205 electrons
N(Beta)            :       50.999996030205 electrons
N(Total)           :      101.999992060410 electrons
E(X)               :      -95.993588598471 Eh       
E(C)               :       -4.508844421144 Eh       
E(XC)              :     -100.502433019615 Eh       
DFET-embed. en.    :        0.000000000000 Eh       

---------------
SCF CONVERGENCE
---------------

  Last Energy change         ...   -1.0323e-08  Tolerance :   1.0000e-08
  Last MAX-Density change    ...    3.3529e-06  Tolerance :   1.0000e-07
  Last RMS-Density change    ...    1.4600e-07  Tolerance :   5.0000e-09
  Last Orbital Gradient      ...    8.8125e-07  Tolerance :   1.0000e-05
  Last Orbital Rotation      ...    3.4003e-06  Tolerance :   1.0000e-05

             **** THE GBW FILE WAS UPDATED (/Users/lailaal-madhagi/Desktop/Testing_XAS_Analysis_code/1-3-5-2-4_Benzotrithiadiazepine//Results_dir_Benzotrithiadiazepine_geom_element_N_2019-11-11_07-22-02//GTE1_Benzotrithiadiazepine_geom_2019-11-11_07-22-14//freq.gbw) ****
             **** DENSITY FILE WAS UPDATED (/Users/lailaal-madhagi/Desktop/Testing_XAS_Analysis_code/1-3-5-2-4_Benzotrithiadiazepine//Results_dir_Benzotrithiadiazepine_geom_element_N_2019-11-11_07-22-02//GTE1_Benzotrithiadiazepine_geom_2019-11-11_07-22-14//freq.scfp.tmp) ****
             **** ENERGY FILE WAS UPDATED (/Users/lailaal-madhagi/Desktop/Testing_XAS_Analysis_code/1-3-5-2-4_Benzotrithiadiazepine//Results_dir_Benzotrithiadiazepine_geom_element_N_2019-11-11_07-22-02//GTE1_Benzotrithiadiazepine_geom_2019-11-11_07-22-14//freq.en.tmp) ****
----------------
ORBITAL ENERGIES
----------------

  NO   OCC          E(Eh)            E(eV) 
   0   2.0000     -88.983903     -2421.3751 
   1   2.0000     -88.931778     -2419.9567 
   2   2.0000     -88.931765     -2419.9564 
   3   2.0000     -14.369408      -391.0115 
   4   2.0000     -14.369398      -391.0112 
   5   2.0000     -10.242297      -278.7071 
   6   2.0000     -10.241919      -278.6968 
   7   2.0000     -10.207004      -277.7467 
   8   2.0000     -10.206986      -277.7462 
   9   2.0000     -10.198525      -277.5160 
  10   2.0000     -10.198135      -277.5054 
  11   2.0000      -8.045473      -218.9285 
  12   2.0000      -8.001387      -217.7288 
  13   2.0000      -8.001354      -217.7279 
  14   2.0000      -6.010879      -163.5643 
  15   2.0000      -6.004050      -163.3785 
  16   2.0000      -6.003193      -163.3552 
  17   2.0000      -5.967039      -162.3714 
  18   2.0000      -5.967012      -162.3706 
  19   2.0000      -5.960759      -162.2005 
  20   2.0000      -5.960713      -162.1992 
  21   2.0000      -5.956135      -162.0747 
  22   2.0000      -5.956127      -162.0744 
  23   2.0000      -0.985584       -26.8191 
  24   2.0000      -0.915615       -24.9152 
  25   2.0000      -0.885794       -24.1037 
  26   2.0000      -0.813642       -22.1403 
  27   2.0000      -0.790940       -21.5226 
  28   2.0000      -0.746670       -20.3179 
  29   2.0000      -0.718354       -19.5474 
  30   2.0000      -0.623497       -16.9662 
  31   2.0000      -0.618922       -16.8417 
  32   2.0000      -0.599071       -16.3016 
  33   2.0000      -0.509767       -13.8715 
  34   2.0000      -0.501647       -13.6505 
  35   2.0000      -0.470072       -12.7913 
  36   2.0000      -0.454989       -12.3809 
  37   2.0000      -0.444142       -12.0857 
  38   2.0000      -0.435408       -11.8481 
  39   2.0000      -0.396260       -10.7828 
  40   2.0000      -0.394985       -10.7481 
  41   2.0000      -0.378384       -10.2964 
  42   2.0000      -0.378186       -10.2910 
  43   2.0000      -0.370911       -10.0930 
  44   2.0000      -0.347273        -9.4498 
  45   2.0000      -0.336013        -9.1434 
  46   2.0000      -0.312553        -8.5050 
  47   2.0000      -0.280918        -7.6442 
  48   2.0000      -0.276039        -7.5114 
  49   2.0000      -0.237332        -6.4581 
  50   2.0000      -0.204833        -5.5738 
  51   0.0000      -0.070922        -1.9299 
  52   0.0000      -0.019772        -0.5380 
  53   0.0000      -0.013034        -0.3547 
  54   0.0000      -0.009871        -0.2686 
  55   0.0000       0.000900         0.0245 
  56   0.0000       0.037918         1.0318 
  57   0.0000       0.078546         2.1373 
  58   0.0000       0.089296         2.4299 
  59   0.0000       0.118443         3.2230 
  60   0.0000       0.128268         3.4904 
  61   0.0000       0.131487         3.5780 
  62   0.0000       0.146049         3.9742 
  63   0.0000       0.159483         4.3397 
  64   0.0000       0.180684         4.9167 
  65   0.0000       0.182438         4.9644 
  66   0.0000       0.251345         6.8395 
  67   0.0000       0.258052         7.0220 
  68   0.0000       0.276434         7.5222 
  69   0.0000       0.297091         8.0843 
  70   0.0000       0.301856         8.2139 
  71   0.0000       0.321827         8.7574 
  72   0.0000       0.331228         9.0132 
  73   0.0000       0.345725         9.4077 
  74   0.0000       0.349368         9.5068 
  75   0.0000       0.364169         9.9095 
  76   0.0000       0.373891        10.1741 
  77   0.0000       0.380616        10.3571 
  78   0.0000       0.395679        10.7670 
  79   0.0000       0.452497        12.3131 
  80   0.0000       0.465020        12.6538 
  81   0.0000       0.507363        13.8060 
  82   0.0000       0.518902        14.1200 
  83   0.0000       0.532462        14.4890 
  84   0.0000       0.554816        15.0973 
  85   0.0000       0.568740        15.4762 
  86   0.0000       0.575611        15.6632 
  87   0.0000       0.576400        15.6846 
  88   0.0000       0.586118        15.9491 
  89   0.0000       0.598586        16.2883 
  90   0.0000       0.604030        16.4365 
  91   0.0000       0.614075        16.7098 
  92   0.0000       0.622753        16.9460 
  93   0.0000       0.648000        17.6330 
  94   0.0000       0.670105        18.2345 
  95   0.0000       0.672937        18.3116 
  96   0.0000       0.684995        18.6397 
  97   0.0000       0.688203        18.7270 
  98   0.0000       0.705691        19.2028 
  99   0.0000       0.721323        19.6282 
 100   0.0000       0.747775        20.3480 
 101   0.0000       0.772467        21.0199 
 102   0.0000       0.812822        22.1180 
 103   0.0000       0.821189        22.3457 
 104   0.0000       0.831433        22.6245 
 105   0.0000       0.839905        22.8550 
 106   0.0000       0.877215        23.8702 
 107   0.0000       0.895791        24.3757 
 108   0.0000       0.906312        24.6620 
 109   0.0000       0.911674        24.8079 
 110   0.0000       0.929586        25.2953 
 111   0.0000       0.935926        25.4678 
 112   0.0000       0.942131        25.6367 
 113   0.0000       0.954477        25.9726 
 114   0.0000       0.960596        26.1391 
 115   0.0000       0.964289        26.2396 
 116   0.0000       0.964801        26.2536 
 117   0.0000       0.993817        27.0431 
 118   0.0000       1.019157        27.7327 
 119   0.0000       1.051009        28.5994 
 120   0.0000       1.082160        29.4471 
 121   0.0000       1.083589        29.4860 
 122   0.0000       1.103816        30.0363 
 123   0.0000       1.105742        30.0888 
 124   0.0000       1.154727        31.4217 
 125   0.0000       1.205197        32.7951 
 126   0.0000       1.228816        33.4378 
 127   0.0000       1.231712        33.5166 
 128   0.0000       1.238456        33.7001 
 129   0.0000       1.328553        36.1518 
 130   0.0000       1.345302        36.6075 
 131   0.0000       1.409751        38.3613 
 132   0.0000       1.409940        38.3664 
 133   0.0000       1.421355        38.6770 
 134   0.0000       1.468806        39.9682 
 135   0.0000       1.474310        40.1180 
 136   0.0000       1.480389        40.2834 
 137   0.0000       1.518386        41.3174 
 138   0.0000       1.543967        42.0135 
 139   0.0000       1.735109        47.2147 
 140   0.0000       1.736471        47.2518 
 141   0.0000       1.746690        47.5299 
 142   0.0000       1.769059        48.1385 
 143   0.0000       1.781507        48.4773 
 144   0.0000       1.833558        49.8937 
 145   0.0000       1.840236        50.0754 
 146   0.0000       1.851760        50.3889 
 147   0.0000       1.872525        50.9540 
 148   0.0000       1.926384        52.4196 
 149   0.0000       1.963056        53.4175 
 150   0.0000       1.974293        53.7232 
 151   0.0000       2.044585        55.6360 
 152   0.0000       2.070418        56.3389 
 153   0.0000       2.111505        57.4570 
 154   0.0000       2.120087        57.6905 
 155   0.0000       2.131644        58.0050 
 156   0.0000       2.161791        58.8253 
 157   0.0000       2.250243        61.2322 
 158   0.0000       2.288344        62.2690 
 159   0.0000       2.291608        62.3578 
 160   0.0000       2.292840        62.3914 
 161   0.0000       2.317175        63.0535 
 162   0.0000       2.518832        68.5409 
 163   0.0000       2.526582        68.7518 
 164   0.0000       2.541106        69.1470 
 165   0.0000       2.542046        69.1726 
 166   0.0000       2.615367        71.1678 
 167   0.0000       2.646762        72.0221 
 168   0.0000       2.693830        73.3028 
 169   0.0000       2.723426        74.1082 
 170   0.0000       2.732720        74.3611 
 171   0.0000       2.783892        75.7535 
 172   0.0000       3.021899        82.2301 
 173   0.0000       3.330067        90.6157 
------------------
MOLECULAR ORBITALS
------------------
                      0         1         2         3         4         5   
                 -88.98390 -88.93178 -88.93177 -14.36941 -14.36940 -10.24230
                   2.00000   2.00000   2.00000   2.00000   2.00000   2.00000
                  --------  --------  --------  --------  --------  --------
  0C   1s        -0.000020 -0.000026  0.000032  0.000030 -0.000090  0.689073
  0C   2s        -0.000174 -0.000225  0.000080  0.000168 -0.000667  0.024439
  0C   1pz       -0.000003 -0.000001  0.000009  0.000004  0.000005  0.000079
  0C   1px       -0.000004 -0.000120  0.000006  0.000058  0.000076  0.000079
  0C   1py       -0.000037  0.000047  0.000119  0.000027  0.000028  0.000978
  0C   3s         0.001055  0.004792 -0.001145 -0.002288  0.004467 -0.016769
  0C   2pz        0.000033 -0.000221 -0.000110 -0.000055  0.000073 -0.000255
  0C   2px        0.000020  0.002338  0.000070 -0.000905 -0.000062 -0.000164
  0C   2py        0.000407 -0.003997 -0.001451 -0.000290  0.001008 -0.003198
  0C   1dz2      -0.000028  0.000018  0.000137  0.000040 -0.000143  0.000190
  0C   1dxz       0.000004  0.000009 -0.000000 -0.000005  0.000015  0.000029
  0C   1dyz       0.000002  0.000010 -0.000009 -0.000003  0.000007 -0.000052
  0C   1dx2y2     0.000029 -0.000081 -0.000053 -0.000043  0.000144  0.000491
  0C   1dxy       0.000009  0.000171  0.000139 -0.000012 -0.000009  0.000299
  1C   1s        -0.000020  0.000022  0.000035 -0.000093 -0.000018  0.718080
  1C   2s        -0.000174  0.000212  0.000109 -0.000664 -0.000181  0.025564
  1C   1pz        0.000003  0.000009 -0.000008  0.000001  0.000001 -0.000068
  1C   1px       -0.000005  0.000116  0.000024  0.000038  0.000089  0.000112
  1C   1py        0.000037  0.000065 -0.000112 -0.000010 -0.000034 -0.000936
  1C   3s         0.001055 -0.004604 -0.001755  0.005014  0.000194 -0.017951
  1C   2pz       -0.000030 -0.000410  0.000061 -0.000066 -0.000051  0.000226
  1C   2px        0.000033 -0.002193 -0.000262  0.000421 -0.000812 -0.000312
  1C   2py       -0.000407 -0.004210  0.000916 -0.001009 -0.000262  0.003069
  1C   1dz2      -0.000028 -0.000034  0.000132 -0.000145 -0.000035  0.000154
  1C   1dxz       0.000002  0.000020 -0.000019  0.000016  0.000005 -0.000015
  1C   1dyz       0.000001  0.000006 -0.000020  0.000009  0.000003 -0.000068
  1C   1dx2y2     0.000029  0.000076 -0.000035  0.000147  0.000032  0.000462
  1C   1dxy      -0.000007  0.000192 -0.000117  0.000009  0.000017 -0.000282
  2C   1s         0.000006  0.000021 -0.000011 -0.000014  0.000023  0.003358
  2C   2s         0.000024  0.000107 -0.000091 -0.000099  0.000197 -0.001134
  2C   1pz        0.000000  0.000004 -0.000000  0.000001 -0.000005  0.000065
  2C   1px        0.000018  0.000109  0.000058  0.000028 -0.000187  0.000698
  2C   1py       -0.000004  0.000001 -0.000034  0.000003  0.000010  0.000496
  2C   3s        -0.000434 -0.002918  0.000407  0.000437 -0.000087  0.005604
  2C   2pz        0.000023  0.000133 -0.000017 -0.000106  0.000147 -0.000179
  2C   2px        0.000249 -0.001620 -0.001528 -0.001720  0.003603 -0.002042
  2C   2py        0.000182  0.002502  0.000523 -0.000535  0.000163 -0.001317
  2C   1dz2       0.000015  0.000024 -0.000025 -0.000025  0.000048  0.000352
  2C   1dxz      -0.000002 -0.000003  0.000004  0.000008 -0.000015 -0.000092
  2C   1dyz      -0.000001 -0.000005  0.000001  0.000007 -0.000012 -0.000043
  2C   1dx2y2    -0.000017  0.000009  0.000032 -0.000004 -0.000003 -0.000404
  2C   1dxy      -0.000007 -0.000022  0.000012  0.000079 -0.000155 -0.000692
  3C   1s         0.000006 -0.000019 -0.000014  0.000026 -0.000001  0.003501
  3C   2s         0.000024 -0.000094 -0.000104  0.000220  0.000010 -0.001172
  3C   1pz        0.000001 -0.000005  0.000004 -0.000007 -0.000003 -0.000010
  3C   1px        0.000018 -0.000116  0.000042 -0.000176 -0.000067  0.000739
  3C   1py        0.000005 -0.000006  0.000035 -0.000012 -0.000009 -0.000490
  3C   3s        -0.000434  0.002841  0.000781 -0.000289  0.000340  0.005947
  3C   2pz       -0.000004  0.000267 -0.000067  0.000126  0.000040  0.000028
  3C   2px        0.000255  0.001721 -0.001299  0.003995  0.000253 -0.002132
  3C   2py       -0.000175  0.002595 -0.000229 -0.000299  0.000394  0.001393
  3C   1dz2       0.000015 -0.000021 -0.000028  0.000056  0.000002  0.000378
  3C   1dxz      -0.000001 -0.000001  0.000002  0.000009  0.000000  0.000012
  3C   1dyz      -0.000001  0.000003  0.000001  0.000000  0.000000  0.000012
  3C   1dx2y2    -0.000017 -0.000011  0.000032 -0.000011 -0.000005 -0.000463
  3C   1dxy       0.000007 -0.000021 -0.000013  0.000174  0.000007  0.000696
  4C   1s        -0.000002 -0.000027 -0.000004 -0.000003  0.000012 -0.000110
  4C   2s        -0.000019 -0.000174 -0.000008 -0.000021  0.000060 -0.000274
  4C   1pz        0.000002 -0.000001 -0.000003  0.000001  0.000003  0.000008
  4C   1px        0.000000 -0.000032 -0.000046  0.000021  0.000070  0.000214
  4C   1py        0.000021  0.000007 -0.000016 -0.000001  0.000012  0.000002
  4C   3s        -0.000021  0.003410  0.001180 -0.000246 -0.001910 -0.000149
  4C   2pz       -0.000012 -0.000082  0.000019  0.000074 -0.000099  0.000005
  4C   2px       -0.000095 -0.001954 -0.000279 -0.000666  0.000735 -0.000012
  4C   2py       -0.000109 -0.000099  0.000382  0.001283 -0.001655  0.000073
  4C   1dz2      -0.000006 -0.000040 -0.000005 -0.000010  0.000032 -0.000069
  4C   1dxz       0.000000  0.000001  0.000000 -0.000001  0.000001  0.000002
  4C   1dyz       0.000000  0.000004  0.000000 -0.000002 -0.000000  0.000015
  4C   1dx2y2     0.000005  0.000007  0.000004  0.000024 -0.000024 -0.000078
  4C   1dxy      -0.000002 -0.000026 -0.000002 -0.000028  0.000056 -0.000000
  5C   1s        -0.000002  0.000027 -0.000000  0.000012  0.000004 -0.000103
  5C   2s        -0.000019  0.000174  0.000015  0.000063  0.000011 -0.000263
  5C   1pz       -0.000002  0.000002 -0.000000  0.000001  0.000002  0.000009
  5C   1px        0.000001  0.000038 -0.000042  0.000051  0.000052  0.000216
  5C   1py       -0.000021  0.000006  0.000016 -0.000009 -0.000004  0.000006
  5C   3s        -0.000022 -0.003534  0.000730 -0.001545 -0.001151 -0.000335
  5C   2pz        0.000005  0.000075 -0.000031  0.000198 -0.000032 -0.000006
  5C   2px       -0.000099  0.001975 -0.000012  0.000900 -0.000210  0.000091
  5C   2py        0.000107  0.000002 -0.000392  0.002095 -0.000314 -0.000127
  5C   1dz2      -0.000006  0.000040  0.000000  0.000032  0.000007 -0.000068
  5C   1dxz       0.000001 -0.000005  0.000000 -0.000008 -0.000000  0.000001
  5C   1dyz       0.000000 -0.000006 -0.000000 -0.000005 -0.000002  0.000015
  5C   1dx2y2     0.000005 -0.000006  0.000003 -0.000029  0.000009 -0.000081
  5C   1dxy       0.000002 -0.000026 -0.000001 -0.000064 -0.000003 -0.000005
  6S   1s        -0.000035 -0.657605 -0.748841 -0.000012  0.000002 -0.000027
  6S   2s         0.000031 -0.008242 -0.009397 -0.000019 -0.000032  0.000011
  6S   1pz        0.000000  0.000011  0.000011 -0.000003  0.000002 -0.000002
  6S   1px        0.000009  0.000016  0.000043 -0.000048  0.000100  0.000084
  6S   1py       -0.000000  0.000128  0.000120 -0.000017 -0.000031 -0.000073
  6S   3s         0.000208  0.003476  0.003711 -0.000396 -0.000245 -0.000685
  6S   2pz       -0.000004 -0.000038 -0.000037  0.000010  0.000047  0.000004
  6S   2px       -0.000097  0.000058 -0.000118  0.000105  0.000219 -0.000083
  6S   2py       -0.000008 -0.000501 -0.000396  0.000078  0.000467  0.000098
  6S   4s        -0.000498 -0.000088 -0.000924  0.001857 -0.005400  0.005546
  6S   3pz        0.000027 -0.000033 -0.000022 -0.000126  0.000340 -0.000158
  6S   3px       -0.000274 -0.000241 -0.000379 -0.001322  0.003529  0.001815
  6S   3py        0.000474 -0.000285 -0.000082 -0.000921  0.002478 -0.002878
  6S   1dz2       0.000064 -0.000167 -0.000159 -0.000059  0.000122 -0.000021
  6S   1dxz      -0.000006  0.000020  0.000023  0.000001 -0.000005  0.000031
  6S   1dyz      -0.000009  0.000009  0.000007  0.000012 -0.000033  0.000007
  6S   1dx2y2    -0.000007  0.000187  0.000210 -0.000047  0.000177  0.000109
  6S   1dxy      -0.000017  0.000010  0.000038 -0.000012 -0.000042  0.000314
  7N   1s        -0.000060  0.000029  0.000046  0.251978 -0.962850  0.000037
  7N   2s        -0.000277  0.000144  0.000327  0.007811 -0.030810  0.000350
  7N   1pz       -0.000007  0.000002  0.000000 -0.000020  0.000048 -0.000008
  7N   1px       -0.000059  0.000024  0.000003  0.000184 -0.001145  0.000006
  7N   1py       -0.000058  0.000005  0.000001 -0.000351  0.001229 -0.000100
  7N   3s         0.001125 -0.000436 -0.001155 -0.004126  0.020590 -0.001440
  7N   2pz       -0.000112 -0.000072 -0.000048 -0.000045 -0.000067  0.000014
  7N   2px       -0.000449 -0.000932 -0.000837 -0.000270  0.002832 -0.000830
  7N   2py       -0.001194 -0.000421 -0.000172 -0.000447 -0.002369  0.000598
  7N   1dz2      -0.000298  0.000159  0.000201 -0.000008 -0.000114  0.000053
  7N   1dxz       0.000041 -0.000035 -0.000042 -0.000009  0.000011 -0.000010
  7N   1dyz       0.000080 -0.000009 -0.000016  0.000020  0.000012  0.000002
  7N   1dx2y2    -0.000288 -0.000250 -0.000258 -0.000235  0.000046 -0.000120
  7N   1dxy       0.000404 -0.000169 -0.000210  0.000010  0.000008 -0.000014
  8S   1s         0.996597  0.000004 -0.000059  0.000014  0.000024  0.000014
  8S   2s         0.012525  0.000003 -0.000045 -0.000071 -0.000121  0.000027
  8S   1pz        0.000009  0.000001  0.000000  0.000014 -0.000008 -0.000001
  8S   1px        0.000217 -0.000000 -0.000000  0.000003  0.000013 -0.000033
  8S   1py        0.000003  0.000019  0.000001  0.000179 -0.000104  0.000000
  8S   3s        -0.005116  0.000019 -0.000287  0.000077  0.000131  0.000548
  8S   2pz       -0.000037 -0.000014 -0.000002 -0.000016 -0.000026  0.000012
  8S   2px       -0.000847  0.000004 -0.000019 -0.000359 -0.000614  0.000270
  8S   2py       -0.000011 -0.000179 -0.000012 -0.000014 -0.000002 -0.000001
  8S   4s         0.000802 -0.000032  0.000497 -0.003813 -0.006517 -0.000291
  8S   3pz       -0.000007 -0.000038  0.000020  0.000123 -0.000259 -0.000004
  8S   3px       -0.000169 -0.000027  0.000530 -0.001935 -0.003208 -0.000081
  8S   3py       -0.000002 -0.000479 -0.000024  0.002652 -0.001607  0.000008
  8S   1dz2       0.000383  0.000006 -0.000096 -0.000010 -0.000013 -0.000015
  8S   1dxz      -0.000013 -0.000000  0.000007 -0.000043 -0.000003  0.000001
  8S   1dyz      -0.000078 -0.000001  0.000013  0.000005  0.000050  0.000002
  8S   1dx2y2     0.000340 -0.000000  0.000004 -0.000276 -0.000499  0.000003
  8S   1dxy       0.000012  0.000001 -0.000000 -0.000412  0.000222 -0.000001
  9N   1s        -0.000060 -0.000034  0.000042 -0.962833 -0.252044  0.000038
  9N   2s        -0.000277 -0.000186  0.000306 -0.030686 -0.008285  0.000358
  9N   1pz        0.000002 -0.000001  0.000000 -0.000140 -0.000040  0.000008
  9N   1px       -0.000061 -0.000025 -0.000000 -0.001048 -0.000391  0.000004
  9N   1py        0.000056  0.000005 -0.000000 -0.001270 -0.000306  0.000103
  9N   3s         0.001125  0.000581 -0.001089  0.019971  0.006491 -0.001484
  9N   2pz        0.000070  0.000011 -0.000022  0.000250  0.000167 -0.000082
  9N   2px       -0.000487  0.001046 -0.000712  0.002542  0.001102 -0.000844
  9N   2py        0.001182 -0.000413  0.000098  0.001912  0.001579 -0.000635
  9N   1dz2      -0.000302 -0.000186  0.000181 -0.000096 -0.000063  0.000054
  9N   1dxz      -0.000022  0.000011 -0.000009  0.000014 -0.000005 -0.000008
  9N   1dyz       0.000043 -0.000005  0.000001  0.000001  0.000022  0.000003
  9N   1dx2y2    -0.000264  0.000292 -0.000234  0.000156 -0.000181 -0.000126
  9N   1dxy      -0.000423 -0.000180  0.000175  0.000006 -0.000024  0.000008
 10S   1s        -0.000035  0.748835 -0.657612  0.000008 -0.000010 -0.000028
 10S   2s         0.000031  0.009387 -0.008254 -0.000018 -0.000033  0.000010
 10S   1pz        0.000000  0.000010 -0.000006  0.000006  0.000003  0.000009
 10S   1px        0.000009 -0.000026  0.000043  0.000110  0.000006  0.000086
 10S   1py        0.000001  0.000142 -0.000101  0.000022  0.000030  0.000076
 10S   3s         0.000208 -0.003927  0.003230 -0.000019 -0.000465 -0.000713
 10S   2pz       -0.000003 -0.000042  0.000019 -0.000021 -0.000014 -0.000011
 10S   2px       -0.000097 -0.000024 -0.000135  0.000151  0.000208 -0.000085
 10S   2py        0.000005 -0.000549  0.000325 -0.000365 -0.000292 -0.000090
 10S   4s        -0.000498  0.000207 -0.000905 -0.005617 -0.001027  0.005759
 10S   3pz       -0.000047 -0.000010 -0.000011 -0.000038 -0.000006  0.000299
 10S   3px       -0.000258  0.000297 -0.000346  0.003807  0.000590  0.001778
 10S   3py       -0.000481 -0.000286  0.000036 -0.002515 -0.000396  0.003037
 10S   1dz2       0.000064  0.000186 -0.000136  0.000136  0.000008 -0.000024
 10S   1dxz      -0.000003 -0.000021  0.000015  0.000001  0.000004 -0.000017
 10S   1dyz      -0.000007 -0.000008  0.000002 -0.000029 -0.000003 -0.000019
 10S   1dx2y2    -0.000008 -0.000213  0.000186  0.000175  0.000044  0.000123
 10S   1dxy       0.000017  0.000005 -0.000027  0.000043  0.000034 -0.000317
 11H   1s         0.000004 -0.000173 -0.000131 -0.000057  0.000236 -0.000167
 11H   2s        -0.000034 -0.000577 -0.000084  0.000489 -0.000899 -0.000167
 12H   1s         0.000015  0.000028 -0.000049  0.000008  0.000103 -0.000010
 12H   2s         0.000058  0.000360 -0.000074 -0.000032  0.000248  0.000170
 13H   1s         0.000015 -0.000021 -0.000052  0.000086  0.000057 -0.000013
 13H   2s         0.000058 -0.000348 -0.000120  0.000232  0.000093  0.000145
 14H   1s         0.000004  0.000188 -0.000108  0.000233  0.000065 -0.000171
 14H   2s        -0.000034  0.000583 -0.000009 -0.001024 -0.000014 -0.000161
                      6         7         8         9        10        11   
                 -10.24192 -10.20700 -10.20699 -10.19852 -10.19813  -8.04547
                   2.00000   2.00000   2.00000   2.00000   2.00000   2.00000
                  --------  --------  --------  --------  --------  --------
  0C   1s        -0.718099 -0.003391 -0.003668 -0.000181 -0.000027  0.000091
  0C   2s        -0.027805 -0.001400 -0.001430  0.000197 -0.000427  0.000797
  0C   1pz        0.000071 -0.000062 -0.000053  0.000003  0.000003  0.000016
  0C   1px       -0.000069 -0.000701 -0.000919  0.000228  0.000023  0.000013
  0C   1py        0.000947 -0.000450 -0.000235 -0.000078  0.000030  0.000183
  0C   3s         0.029044  0.014148  0.005452  0.001251  0.007068 -0.005071
  0C   2pz       -0.000181 -0.000043  0.000119  0.000034  0.000009 -0.000157
  0C   2px        0.001184  0.006538  0.003375  0.000165  0.003584  0.000019
  0C   2py       -0.002909 -0.003757 -0.000114  0.000356 -0.001637 -0.001999
  0C   1dz2       0.000783  0.000398  0.000431  0.000087 -0.000028  0.000113
  0C   1dxz      -0.000033 -0.000100 -0.000097 -0.000006  0.000002 -0.000015
  0C   1dyz      -0.000203 -0.000049 -0.000058 -0.000017 -0.000001 -0.000007
  0C   1dx2y2     0.001101 -0.000428 -0.000351  0.000058  0.000057 -0.000129
  0C   1dxy      -0.000291 -0.000736 -0.000712 -0.000028 -0.000021 -0.000032
  1C   1s         0.689093  0.003783 -0.003259 -0.000180  0.000031  0.000091
  1C   2s         0.026774  0.001552 -0.001262  0.000205  0.000423  0.000797
  1C   1pz        0.000078 -0.000004 -0.000019  0.000015  0.000001 -0.000013
  1C   1px        0.000034  0.000815 -0.000839  0.000225 -0.000029  0.000019
  1C   1py        0.000988 -0.000452  0.000160  0.000085  0.000028 -0.000183
  1C   3s        -0.028328 -0.014674  0.003816  0.001107 -0.007092 -0.005070
  1C   2pz       -0.000279 -0.000560  0.000080 -0.000026 -0.000268  0.000152
  1C   2px       -0.001077 -0.006754  0.002623  0.000105 -0.003532 -0.000045
  1C   2py       -0.003068 -0.003924 -0.000243 -0.000387 -0.001723  0.001999
  1C   1dz2      -0.000793 -0.000453  0.000390  0.000088  0.000026  0.000114
  1C   1dxz      -0.000017 -0.000012  0.000009 -0.000001 -0.000006 -0.000010
  1C   1dyz       0.000180 -0.000009 -0.000003 -0.000015 -0.000000 -0.000004
  1C   1dx2y2    -0.001102  0.000512 -0.000336  0.000055 -0.000057 -0.000130
  1C   1dxy      -0.000352 -0.000788  0.000609  0.000032 -0.000025  0.000026
  2C   1s        -0.003586  0.662415  0.742025  0.021736  0.020387 -0.000024
  2C   2s         0.000954  0.024728  0.026796  0.002449  0.002330 -0.000096
  2C   1pz       -0.000049 -0.000057 -0.000044 -0.000015 -0.000001 -0.000002
  2C   1px       -0.000625 -0.000104 -0.000124  0.001011  0.000775 -0.000064
  2C   1py       -0.000321 -0.000695 -0.000514 -0.000684 -0.000399  0.000014
  2C   3s        -0.008423 -0.025124 -0.020755 -0.007009 -0.014305  0.001840
  2C   2pz        0.000290  0.000593  0.000253  0.000130  0.000399 -0.000105
  2C   2px        0.001126  0.000022  0.000499 -0.001708 -0.002007 -0.001359
  2C   2py        0.003199  0.007645  0.003025  0.002518  0.006135 -0.000705
  2C   1dz2      -0.000479 -0.000316 -0.000520 -0.000418 -0.000503 -0.000058
  2C   1dxz       0.000098  0.000026  0.000041 -0.000007  0.000007  0.000009
  2C   1dyz       0.000055  0.000012  0.000035 -0.000010  0.000006  0.000004
  2C   1dx2y2     0.000445  0.000343  0.000397  0.000505  0.000507  0.000070
  2C   1dxy       0.000640 -0.000097 -0.000107 -0.000698 -0.000586  0.000039
  3C   1s         0.003442 -0.742138  0.662290  0.021298 -0.020802 -0.000024
  3C   2s        -0.000906 -0.027602  0.023825  0.002400 -0.002379 -0.000095
  3C   1pz        0.000001 -0.000053  0.000029  0.000092 -0.000063 -0.000004
  3C   1px        0.000605  0.000141 -0.000125  0.000973 -0.000782 -0.000064
  3C   1py       -0.000285 -0.000746  0.000429  0.000702 -0.000433 -0.000015
  3C   3s         0.008185  0.027312 -0.017779 -0.006718  0.014444  0.001840
  3C   2pz        0.000199  0.000604 -0.000144 -0.000250  0.000554  0.000001
  3C   2px       -0.001141 -0.000333  0.000562 -0.001590  0.001842 -0.001381
  3C   2py        0.003114  0.007933 -0.002127 -0.002436  0.006235  0.000668
  3C   1dz2       0.000471  0.000371 -0.000480 -0.000401  0.000505 -0.000058
  3C   1dxz      -0.000003 -0.000049  0.000054  0.000099 -0.000100  0.000004
  3C   1dyz      -0.000005 -0.000026  0.000042  0.000046 -0.000055  0.000001
  3C   1dx2y2    -0.000463 -0.000379  0.000350  0.000454 -0.000482  0.000072
  3C   1dxy       0.000590 -0.000127  0.000111  0.000710 -0.000624 -0.000035
  4C   1s        -0.000159  0.019196  0.022521 -0.710381 -0.696271  0.000009
  4C   2s        -0.000275 -0.000769 -0.000875 -0.024717 -0.027109  0.000076
  4C   1pz        0.000001 -0.000019  0.000013 -0.000023  0.000114 -0.000007
  4C   1px       -0.000061  0.000762  0.001016  0.000630  0.000652 -0.000015
  4C   1py        0.000045 -0.000623 -0.000333 -0.000604  0.001144 -0.000086
  4C   3s         0.004509  0.012745  0.005417  0.014687  0.032982  0.000339
  4C   2pz       -0.000197 -0.000390 -0.000107 -0.000013 -0.000768  0.000057
  4C   2px       -0.002397 -0.006016 -0.002912 -0.002092 -0.007563  0.000362
  4C   2py       -0.001367 -0.002072  0.000042  0.000863 -0.006185  0.000560
  4C   1dz2      -0.000012  0.000431  0.000440  0.000036  0.000877  0.000019
  4C   1dxz       0.000003  0.000010  0.000016 -0.000011  0.000009 -0.000002
  4C   1dyz      -0.000003  0.000001 -0.000003  0.000059 -0.000172 -0.000001
  4C   1dx2y2     0.000064 -0.000409 -0.000347 -0.000702  0.000896 -0.000020
  4C   1dxy       0.000000  0.000701  0.000755  0.000237  0.000434  0.000005
  5C   1s         0.000164 -0.021599  0.020184 -0.696139  0.710512  0.000009
  5C   2s         0.000286  0.000864 -0.000783 -0.024163  0.027604  0.000076
  5C   1pz        0.000006 -0.000085  0.000057  0.000073  0.000060  0.000006
  5C   1px        0.000051 -0.000851  0.000915  0.000596 -0.000701 -0.000018
  5C   1py        0.000046 -0.000679  0.000285  0.000643  0.001113  0.000085
  5C   3s        -0.004499 -0.013277  0.003940  0.014017 -0.033273  0.000340
  5C   2pz       -0.000009  0.000095 -0.000110 -0.000153 -0.000167 -0.000029
  5C   2px        0.002438  0.006371 -0.002202 -0.001906  0.007800  0.000380
  5C   2py       -0.001299 -0.001888 -0.000333 -0.001038 -0.005965 -0.000550
  5C   1dz2       0.000015 -0.000470  0.000381  0.000016 -0.000873  0.000019
  5C   1dxz      -0.000004  0.000109 -0.000088 -0.000049  0.000053 -0.000002
  5C   1dyz       0.000003  0.000063 -0.000058  0.000042  0.000204 -0.000001
  5C   1dx2y2    -0.000061  0.000400 -0.000259 -0.000705 -0.000905 -0.000020
  5C   1dxy      -0.000003  0.000802 -0.000683 -0.000270  0.000377 -0.000006
  6S   1s         0.000025  0.000001 -0.000006 -0.000002  0.000004  0.000061
  6S   2s         0.000018  0.000010 -0.000035  0.000009  0.000025 -0.000454
  6S   1pz       -0.000003  0.000000 -0.000000  0.000000  0.000001 -0.000002
  6S   1px       -0.000096 -0.000015 -0.000005  0.000018 -0.000000 -0.000067
  6S   1py        0.000015  0.000009 -0.000001 -0.000006  0.000016  0.000008
  6S   3s         0.000688  0.000072 -0.000296 -0.000043  0.000215 -0.001189
  6S   2pz        0.000025 -0.000004  0.000000 -0.000001 -0.000008  0.000029
  6S   2px        0.000123  0.000121 -0.000014 -0.000114  0.000046  0.000616
  6S   2py        0.000247 -0.000111  0.000008  0.000043 -0.000128  0.000049
  6S   4s        -0.005309  0.001491  0.001147 -0.000327  0.000453  0.002853
  6S   3pz        0.000159 -0.000018 -0.000018  0.000001 -0.000029 -0.000157
  6S   3px       -0.001500  0.000914  0.000833 -0.000189 -0.000209  0.001035
  6S   3py        0.002744 -0.000684 -0.000646  0.000100 -0.000269 -0.002515
  6S   1dz2      -0.000001 -0.000067 -0.000094  0.000025 -0.000004 -0.000265
  6S   1dxz      -0.000016  0.000006  0.000006 -0.000001 -0.000001  0.000025
  6S   1dyz      -0.000018  0.000005  0.000008 -0.000000  0.000005  0.000048
  6S   1dx2y2     0.000102  0.000051  0.000049 -0.000029 -0.000054 -0.000079
  6S   1dxy      -0.000233 -0.000009 -0.000021  0.000020  0.000001  0.000124
  7N   1s        -0.000027 -0.000001  0.000001 -0.000001  0.000001  0.000094
  7N   2s        -0.000219 -0.000049 -0.000048 -0.000011  0.000010  0.000805
  7N   1pz        0.000004 -0.000005 -0.000005  0.000001  0.000001  0.000026
  7N   1px       -0.000019 -0.000023 -0.000031 -0.000003 -0.000004  0.000255
  7N   1py        0.000066 -0.000048 -0.000040  0.000010  0.000019  0.000197
  7N   3s         0.001116  0.000086  0.000046  0.000014 -0.000160 -0.003953
  7N   2pz        0.000004  0.000024  0.000025 -0.000004 -0.000013  0.000467
  7N   2px        0.000841  0.000096  0.000089  0.000016 -0.000073  0.001835
  7N   2py       -0.000375  0.000246  0.000267 -0.000059 -0.000118  0.005008
  7N   1dz2      -0.000018 -0.000001 -0.000004 -0.000003 -0.000016  0.000933
  7N   1dxz       0.000007 -0.000002 -0.000001  0.000000  0.000001 -0.000126
  7N   1dyz      -0.000007 -0.000001 -0.000000  0.000000  0.000002 -0.000247
  7N   1dx2y2     0.000120  0.000001 -0.000001  0.000001 -0.000004  0.000887
  7N   1dxy       0.000018 -0.000025 -0.000018 -0.000002 -0.000005 -0.001222
  8S   1s        -0.000000 -0.000000  0.000002 -0.000001  0.000000 -0.280759
  8S   2s        -0.000001 -0.000000  0.000002 -0.000002  0.000000  1.026897
  8S   1pz        0.000002 -0.000001 -0.000000  0.000000  0.000000  0.000409
  8S   1px        0.000000  0.000000 -0.000004  0.000003 -0.000000  0.009745
  8S   1py        0.000028 -0.000014 -0.000001  0.000000  0.000005  0.000126
  8S   3s        -0.000011 -0.000004  0.000070 -0.000043  0.000000  0.039778
  8S   2pz       -0.000016  0.000008  0.000002 -0.000001 -0.000003  0.000181
  8S   2px       -0.000002 -0.000004  0.000037 -0.000025  0.000001  0.004233
  8S   2py       -0.000200  0.000108  0.000007 -0.000001 -0.000040  0.000054
  8S   4s         0.000006 -0.000013  0.000223  0.000003 -0.000000 -0.008530
  8S   3pz        0.000032  0.000006  0.000004  0.000000 -0.000005 -0.000006
  8S   3px       -0.000005 -0.000007  0.000095  0.000010  0.000001 -0.000165
  8S   3py        0.000412  0.000078  0.000006 -0.000000 -0.000061 -0.000002
  8S   1dz2      -0.000000  0.000001 -0.000024  0.000001 -0.000000 -0.001684
  8S   1dxz      -0.000005  0.000002  0.000001 -0.000000 -0.000001  0.000054
  8S   1dyz      -0.000003  0.000001  0.000005 -0.000000 -0.000001  0.000347
  8S   1dx2y2     0.000002  0.000000 -0.000019 -0.000001  0.000001 -0.001578
  8S   1dxy      -0.000063  0.000027  0.000001 -0.000000 -0.000018 -0.000055
  9N   1s         0.000025  0.000000  0.000001 -0.000001 -0.000001  0.000094
  9N   2s         0.000204  0.000055 -0.000043 -0.000011 -0.000010  0.000805
  9N   1pz        0.000006 -0.000003  0.000001 -0.000001  0.000002 -0.000004
  9N   1px        0.000017  0.000028 -0.000029 -0.000003  0.000004  0.000261
  9N   1py        0.000062 -0.000052  0.000034 -0.000009  0.000019 -0.000191
  9N   3s        -0.001055 -0.000090  0.000036  0.000017  0.000160 -0.003953
  9N   2pz       -0.000060  0.000016 -0.000014  0.000005 -0.000006 -0.000297
  9N   2px       -0.000794 -0.000114  0.000085  0.000016  0.000077  0.001995
  9N   2py       -0.000371  0.000271 -0.000235  0.000057 -0.000117 -0.004960
  9N   1dz2       0.000016  0.000002 -0.000003 -0.000003  0.000016  0.000948
  9N   1dxz      -0.000005 -0.000002  0.000001  0.000000 -0.000001  0.000064
  9N   1dyz       0.000007 -0.000001  0.000001  0.000000 -0.000003 -0.000136
  9N   1dx2y2    -0.000116  0.000001 -0.000002  0.000001  0.000005  0.000815
  9N   1dxy       0.000011 -0.000027  0.000015  0.000002 -0.000005  0.001282
 10S   1s        -0.000024 -0.000001 -0.000006 -0.000002 -0.000004  0.000061
 10S   2s        -0.000019 -0.000006 -0.000036  0.000008 -0.000025 -0.000454
 10S   1pz        0.000005  0.000001  0.000000  0.000001  0.000001 -0.000003
 10S   1px        0.000092  0.000015 -0.000003  0.000018 -0.000001 -0.000066
 10S   1py        0.000014  0.000009  0.000002  0.000007  0.000016 -0.000010
 10S   3s        -0.000659 -0.000038 -0.000302 -0.000047 -0.000214 -0.001189
 10S   2pz        0.000014 -0.000013 -0.000003 -0.000008 -0.000011  0.000022
 10S   2px       -0.000128 -0.000115 -0.000027 -0.000113 -0.000040  0.000617
 10S   2py        0.000248 -0.000112 -0.000021 -0.000049 -0.000128 -0.000033
 10S   4s         0.005075 -0.001611  0.000971 -0.000336 -0.000446  0.002853
 10S   3pz        0.000254 -0.000098  0.000072 -0.000015 -0.000011  0.000230
 10S   3px        0.001339 -0.000978  0.000706 -0.000182  0.000221  0.000953
 10S   3py        0.002660 -0.000779  0.000583 -0.000110 -0.000261  0.002542
 10S   1dz2      -0.000000  0.000078 -0.000086  0.000025  0.000004 -0.000267
 10S   1dxz      -0.000020 -0.000008  0.000009 -0.000004  0.000002  0.000005
 10S   1dyz      -0.000002 -0.000007  0.000009 -0.000002 -0.000004  0.000035
 10S   1dx2y2    -0.000093 -0.000055  0.000042 -0.000027  0.000054 -0.000072
 10S   1dxy      -0.000226 -0.000014  0.000022 -0.000022  0.000005 -0.000132
 11H   1s         0.000100 -0.000951 -0.000875  0.000095  0.000014 -0.000039
 11H   2s        -0.000145  0.000733  0.002505 -0.000486 -0.000891  0.000169
 12H   1s         0.000074 -0.000048 -0.000147  0.001052  0.000843 -0.000072
 12H   2s         0.000612  0.001253  0.000741 -0.002709 -0.000922 -0.000278
 13H   1s        -0.000074  0.000064 -0.000141  0.001035 -0.000865 -0.000072
 13H   2s        -0.000619 -0.001329  0.000594 -0.002689  0.000976 -0.000278
 14H   1s        -0.000093  0.001044 -0.000762  0.000094 -0.000016 -0.000039
 14H   2s         0.000152 -0.001011  0.002406 -0.000468  0.000901  0.000169
                     12        13        14        15        16        17   
                  -8.00139  -8.00135  -6.01088  -6.00405  -6.00319  -5.96704
                   2.00000   2.00000   2.00000   2.00000   2.00000   2.00000
                  --------  --------  --------  --------  --------  --------
  0C   1s        -0.000159  0.000107  0.000023 -0.000066  0.000000  0.000154
  0C   2s        -0.001246  0.000158  0.000274 -0.000488 -0.000000  0.001172
  0C   1pz       -0.000005  0.000043  0.000010 -0.000017  0.000009 -0.000020
  0C   1px       -0.000496  0.000146 -0.000006 -0.000112  0.000001  0.000095
  0C   1py        0.000179  0.000483  0.000124 -0.000157 -0.000000 -0.000296
  0C   3s         0.022837 -0.006487 -0.000410  0.004025 -0.000007 -0.020499
  0C   2pz       -0.001053 -0.000427 -0.000226  0.000149  0.000065  0.001713
  0C   2px        0.011307 -0.000716  0.000278  0.000538 -0.000006 -0.006942
  0C   2py       -0.019105 -0.005170 -0.003012  0.001627 -0.000006  0.025419
  0C   1dz2       0.000104  0.000561 -0.000006 -0.000070  0.000002 -0.000169
  0C   1dxz       0.000031 -0.000003 -0.000005  0.000013 -0.000021 -0.000022
  0C   1dyz       0.000038 -0.000041  0.000010  0.000003  0.000021 -0.000029
  0C   1dx2y2    -0.000349 -0.000192 -0.000124  0.000118  0.000002  0.000381
  0C   1dxy       0.000656  0.000525 -0.000012  0.000055  0.000001 -0.000600
  1C   1s         0.000163  0.000101 -0.000023 -0.000066  0.000000 -0.000169
  1C   2s         0.001251  0.000111 -0.000274 -0.000488  0.000001 -0.001229
  1C   1pz        0.000032 -0.000032  0.000009  0.000007  0.000009 -0.000024
  1C   1px        0.000496  0.000143  0.000002 -0.000117  0.000000 -0.000123
  1C   1py        0.000173 -0.000486  0.000124  0.000154 -0.000002 -0.000253
  1C   3s        -0.023068 -0.005613  0.000409  0.004025 -0.000009  0.021697
  1C   2pz       -0.001893  0.000439 -0.000238 -0.000101  0.000066  0.002132
  1C   2px       -0.010713 -0.000474 -0.000182  0.000589 -0.000004  0.006085
  1C   2py       -0.019182  0.005883 -0.003018 -0.001613  0.000002  0.024573
  1C   1dz2      -0.000076  0.000559  0.000006 -0.000071 -0.000004  0.000067
  1C   1dxz       0.000067 -0.000086  0.000004  0.000005 -0.000020 -0.000057
  1C   1dyz       0.000011 -0.000083 -0.000010 -0.000002 -0.000021 -0.000001
  1C   1dx2y2     0.000304 -0.000173  0.000124  0.000121 -0.000001 -0.000350
  1C   1dxy       0.000654 -0.000555 -0.000005 -0.000049  0.000002 -0.000518
  2C   1s         0.000092 -0.000056 -0.000011  0.000027 -0.000000  0.000010
  2C   2s         0.000500 -0.000386 -0.000019  0.000131 -0.000000  0.000006
  2C   1pz        0.000018 -0.000006 -0.000001  0.000002 -0.000043 -0.000010
  2C   1px        0.000477  0.000178 -0.000047  0.000070  0.000001 -0.000141
  2C   1py       -0.000000 -0.000164  0.000014 -0.000014  0.000003 -0.000065
  2C   3s        -0.013552  0.002934  0.001290 -0.002011  0.000007  0.002305
  2C   2pz        0.000631 -0.000123 -0.000040  0.000108  0.000129 -0.000302
  2C   2px       -0.007678 -0.006314 -0.000549  0.001128 -0.000001  0.007601
  2C   2py        0.011892  0.001506 -0.000260  0.000860 -0.000013 -0.007590
  2C   1dz2       0.000111 -0.000094 -0.000032  0.000060  0.000000  0.000029
  2C   1dxz      -0.000012  0.000016  0.000003 -0.000009 -0.000003  0.000006
  2C   1dyz      -0.000028  0.000002 -0.000000 -0.000005  0.000003  0.000033
  2C   1dx2y2     0.000112  0.000161  0.000049 -0.000054  0.000001 -0.000340
  2C   1dxy      -0.000110  0.000050 -0.000015 -0.000038 -0.000000  0.000266
  3C   1s        -0.000094 -0.000053  0.000011  0.000027 -0.000000 -0.000001
  3C   2s        -0.000514 -0.000366  0.000018  0.000131 -0.000000  0.000028
  3C   1pz       -0.000018  0.000020  0.000003  0.000004 -0.000043  0.000001
  3C   1px       -0.000469  0.000190  0.000047  0.000070  0.000001  0.000167
  3C   1py       -0.000007  0.000169  0.000016  0.000016  0.000003 -0.000072
  3C   3s         0.013654  0.002416 -0.001290 -0.002010  0.000009 -0.003024
  3C   2pz        0.001199 -0.000413  0.000001 -0.000022  0.000130 -0.000842
  3C   2px        0.007049 -0.006536  0.000557  0.001155 -0.000004 -0.006685
  3C   2py        0.012015 -0.002129 -0.000245 -0.000829 -0.000007 -0.007615
  3C   1dz2      -0.000116 -0.000090  0.000032  0.000061 -0.000001 -0.000021
  3C   1dxz      -0.000005  0.000009 -0.000005 -0.000003 -0.000003  0.000032
  3C   1dyz       0.000019 -0.000002 -0.000001 -0.000003 -0.000003 -0.000009
  3C   1dx2y2    -0.000099  0.000167 -0.000048 -0.000056  0.000000  0.000281
  3C   1dxy      -0.000119 -0.000037 -0.000018  0.000035  0.000000  0.000262
  4C   1s        -0.000119 -0.000008  0.000015 -0.000008  0.000000  0.000013
  4C   2s        -0.000765  0.000042  0.000099 -0.000058  0.000000  0.000054
  4C   1pz       -0.000004 -0.000014 -0.000001  0.000006  0.000013  0.000006
  4C   1px       -0.000166 -0.000210 -0.000009 -0.000005 -0.000000  0.000167
  4C   1py        0.000034 -0.000073 -0.000008  0.000074 -0.000001 -0.000006
  4C   3s         0.016044  0.004073 -0.000905 -0.000098 -0.000005 -0.007718
  4C   2pz       -0.000384  0.000116  0.000068 -0.000047 -0.000058  0.000039
  4C   2px       -0.009007 -0.000517  0.000488 -0.000361  0.000004  0.003719
  4C   2py       -0.000524  0.001755  0.000648 -0.000438  0.000003 -0.001337
  4C   1dz2      -0.000166 -0.000006  0.000028 -0.000014  0.000000 -0.000020
  4C   1dxz       0.000005  0.000001 -0.000001  0.000001  0.000011  0.000001
  4C   1dyz       0.000016 -0.000000 -0.000004  0.000000 -0.000005  0.000002
  4C   1dx2y2     0.000036  0.000016  0.000005  0.000021 -0.000001  0.000003
  4C   1dxy      -0.000094  0.000003  0.000007 -0.000005 -0.000001 -0.000001
  5C   1s         0.000119 -0.000012 -0.000015 -0.000008  0.000000 -0.000018
  5C   2s         0.000766  0.000012 -0.000099 -0.000058  0.000000 -0.000107
  5C   1pz        0.000009 -0.000003 -0.000000 -0.000006  0.000013 -0.000008
  5C   1px        0.000157 -0.000218  0.000009 -0.000003 -0.000000 -0.000140
  5C   1py        0.000041  0.000066 -0.000008 -0.000074 -0.000001 -0.000033
  5C   3s        -0.015878  0.004681  0.000905 -0.000098 -0.000005  0.007452
  5C   2pz        0.000315 -0.000167  0.000030  0.000019 -0.000058 -0.000243
  5C   2px        0.008997 -0.000803 -0.000509 -0.000375  0.000005 -0.003760
  5C   2py       -0.000355 -0.001755  0.000634  0.000428  0.000004 -0.001267
  5C   1dz2       0.000165 -0.000013 -0.000028 -0.000014  0.000002  0.000007
  5C   1dxz      -0.000019  0.000002  0.000002  0.000002  0.000011  0.000001
  5C   1dyz      -0.000024  0.000000  0.000005  0.000000  0.000005 -0.000001
  5C   1dx2y2    -0.000030  0.000017 -0.000006  0.000021 -0.000000  0.000003
  5C   1dxy      -0.000094  0.000001  0.000006  0.000006 -0.000001  0.000012
  6S   1s        -0.202241 -0.194711 -0.000030  0.000002  0.000000  0.000794
  6S   2s         0.739861  0.712146 -0.000106  0.000125 -0.000000 -0.003178
[...]
     25      -0.034688  -0.000024  -0.000007   0.000003   0.001415   0.028128
     26      -0.002661  -0.000000   0.000072  -0.000002   0.005180   0.002155
     27       0.023413  -0.000204  -0.000065   0.000073  -0.295218   0.037704
     28       0.043937  -0.000318  -0.000043  -0.000000   0.261630  -0.047535
     29       0.004357   0.004787   0.000965  -0.000597   0.007997  -0.002061
     30      -0.094225  -0.000008  -0.000022   0.000004   0.047801   0.025210
     31      -0.082869  -0.000007  -0.000047   0.000023  -0.034023   0.049900
     32      -0.009964  -0.000317   0.000504  -0.000388  -0.000674   0.004750
     33       0.272015  -0.022251   0.020465   0.014387  -0.140415  -0.128506
     34       0.133783  -0.045292   0.041710   0.029171  -0.219761   0.289427
     35       0.015962   0.585961  -0.539479  -0.376915  -0.022538   0.017170
     36      -0.387538  -0.014182  -0.016591  -0.022207  -0.161099  -0.152926
     37      -0.023538  -0.028834  -0.034000  -0.045445  -0.170583  -0.233307
     38      -0.022476   0.371503   0.436969   0.585199  -0.018966  -0.023018
     39       0.388548   0.014094  -0.016538   0.022154  -0.166646   0.160194
     40      -0.013299   0.028866  -0.033938   0.045452   0.166448  -0.229590
     41       0.008576  -0.371564   0.437407  -0.584889   0.005233  -0.012273
     42      -0.275842   0.022169   0.020413  -0.014291  -0.147395   0.118470
     43       0.126241   0.045575   0.041964  -0.029369   0.215758   0.292661
     44      -0.003561  -0.585918  -0.539792   0.376583   0.012162   0.027029
                 30         31         32         33         34         35    
      0      -0.103179   0.163420  -0.144315  -0.133166  -0.008544   0.085823
      1      -0.031150  -0.052901  -0.057171   0.004174  -0.026866   0.092098
      2      -0.006342   0.002096  -0.009953  -0.004591  -0.002415   0.010429
      3      -0.103955   0.161930   0.145973   0.132711  -0.009334  -0.088739
      4       0.028496   0.057127  -0.053407   0.007739   0.026600   0.089887
      5      -0.001708   0.010540   0.001418   0.005476   0.001705   0.003585
      6      -0.053106  -0.092989  -0.043549  -0.033773  -0.028113  -0.055326
      7       0.139534  -0.031283   0.108876   0.022765   0.008077  -0.037785
      8       0.008809  -0.005948   0.006792   0.000467  -0.000442  -0.005027
      9      -0.048597  -0.093933   0.040167   0.033132  -0.027841   0.056568
     10      -0.140940   0.028888   0.109988   0.023534  -0.008760  -0.036321
     11      -0.012791  -0.001348   0.010049   0.003075  -0.001731  -0.000667
     12       0.138687   0.021076   0.062741   0.062850   0.039052   0.006345
     13       0.187379   0.077766  -0.028084   0.005255  -0.019660  -0.023331
     14       0.019836   0.006856   0.000218   0.002768  -0.000036  -0.001566
     15       0.144541   0.023451  -0.061922  -0.062959   0.038394  -0.005620
     16      -0.183634  -0.077180  -0.029688   0.003623   0.020663  -0.023525
     17      -0.008788  -0.005079  -0.004641  -0.002085   0.003066  -0.002043
     18       0.053545  -0.034811   0.001533   0.102029  -0.000539   0.002493
     19       0.010290   0.005619   0.004640   0.026037   0.000513  -0.007498
     20       0.002956  -0.000960   0.000410   0.006193   0.000010  -0.000498
     21      -0.140487   0.081707   0.040032  -0.386259   0.007827  -0.008937
     22      -0.141523   0.078262   0.031318  -0.406203   0.006222  -0.001485
     23      -0.016802   0.009459   0.004067  -0.047538   0.000808  -0.000468
     24       0.050798  -0.029372   0.000476  -0.004537  -0.003129  -0.000082
     25       0.000565  -0.000330  -0.029794   0.289209  -0.000052   0.005038
     26       0.002188  -0.001261  -0.002279   0.022103  -0.000135   0.000385
     27      -0.145177   0.084306  -0.040997   0.398608   0.007993   0.008978
     28       0.138058  -0.076258   0.030262  -0.395640  -0.005992  -0.001253
     29       0.004636  -0.002397   0.000645  -0.013920  -0.000131   0.000263
     30       0.053886  -0.034665  -0.001679  -0.102679  -0.000519  -0.002255
     31      -0.008905  -0.006509   0.004603   0.023367  -0.000523  -0.007565
     32       0.001463  -0.001880   0.000303  -0.002325  -0.000068  -0.000663
     33      -0.406779  -0.517670  -0.189102   0.025976  -0.386597  -0.668841
     34       0.150556  -0.035912   0.117427   0.030963   0.007876  -0.044109
     35      -0.003747  -0.022496   0.001876   0.003720  -0.014006  -0.028821
     36       0.018670  -0.159406   0.369250   0.218058   0.329511   0.081267
     37       0.420979   0.379208  -0.517151  -0.241566  -0.487399  -0.148738
     38       0.033317   0.023381  -0.026140  -0.010515  -0.025376  -0.008489
     39       0.031998  -0.147462  -0.352553  -0.209780   0.313531  -0.076430
     40      -0.420449  -0.383587  -0.526576  -0.246526   0.495600  -0.150779
     41      -0.031327  -0.035446  -0.054290  -0.027137   0.050349  -0.014615
     42      -0.401761  -0.518487   0.186118  -0.026533  -0.386172   0.669765
     43      -0.161210   0.022432   0.122348   0.030214  -0.017929  -0.026614
     44      -0.027609  -0.017940   0.016587   0.001030  -0.016001   0.023317
                 36         37         38         39         40         41    
      0      -0.068553   0.079720  -0.038065  -0.053758   0.098255   0.001094
      1      -0.513913   0.027513   0.100976  -0.228690   0.016796   0.000697
      2      -0.042546   0.005168   0.006389  -0.019789   0.005041   0.000096
      3      -0.085075  -0.080568  -0.034770  -0.060941  -0.098744  -0.001098
      4       0.511841   0.025431  -0.101952   0.227163   0.014367   0.000670
      5       0.036352  -0.001088  -0.009223   0.015294  -0.002636   0.000010
      6       0.331004  -0.083899   0.162288  -0.036405  -0.297605   0.001396
      7      -0.024923  -0.060998  -0.015305   0.158099   0.065493  -0.058091
      8       0.010630  -0.007924   0.004984   0.010883  -0.006243  -0.004441
      9       0.330132   0.085887   0.161755  -0.031637   0.295143   0.000457
     10       0.033543  -0.058778   0.019620  -0.159001   0.073087  -0.057228
     11       0.015125  -0.001298   0.007664  -0.013533   0.016888  -0.004432
     12      -0.207277  -0.065695  -0.056758   0.124120   0.240649   0.012677
     13       0.217140   0.085061  -0.063312  -0.350000  -0.116427   0.009944
     14       0.009031   0.004113  -0.007070  -0.022465   0.000099   0.001255
     15      -0.200318   0.062915  -0.058872   0.113020  -0.236617  -0.012815
     16      -0.222504   0.086799   0.061718   0.353161  -0.122377   0.009475
     17      -0.024857   0.009123   0.002556   0.031711  -0.018473   0.000252
     18      -0.026178  -0.002251   0.004032  -0.003360   0.001158  -0.000062
     19       0.029117  -0.003737  -0.003326   0.006723  -0.002834  -0.000192
     20       0.001314  -0.000382  -0.000096   0.000382  -0.000178  -0.000017
     21       0.026123  -0.000558  -0.011179   0.020828   0.003249  -0.000072
     22       0.005533   0.004125  -0.008245   0.010212   0.005984   0.000215
     23       0.001453   0.000304  -0.001098   0.001646   0.000597   0.000013
     24      -0.008861   0.000007   0.003221  -0.006546   0.000052   0.000001
     25      -0.000124  -0.000485   0.000041  -0.000085  -0.003375  -0.000040
     26      -0.000386  -0.000036   0.000137  -0.000280  -0.000257  -0.000003
     27       0.026276   0.000424  -0.011440   0.021150  -0.003418   0.000064
     28      -0.004825   0.004138   0.007949  -0.009677   0.005885   0.000214
     29       0.000658   0.000331   0.000148   0.000114   0.000311   0.000020
     30      -0.025213   0.002368   0.003919  -0.003141  -0.001066   0.000066
     31      -0.029775  -0.003678   0.003427  -0.006801  -0.002866  -0.000187
     32      -0.003216  -0.000191   0.000421  -0.000657  -0.000261  -0.000013
     33      -0.008586   0.395529  -0.621846  -0.091559   0.405950  -0.005556
     34      -0.042061  -0.067062  -0.024590   0.171916   0.091444   0.677268
     35      -0.004064   0.009855  -0.025587   0.009867   0.022540   0.052185
     36       0.010893   0.276359  -0.208664  -0.325816  -0.042449  -0.174435
     37      -0.155938  -0.481690   0.150849   0.366618   0.386881  -0.108215
     38      -0.011904  -0.026921   0.003776   0.016167   0.028488  -0.015056
     39       0.006265  -0.260879  -0.203591  -0.313825   0.029879   0.175494
     40       0.157087  -0.488913  -0.155920  -0.375304   0.387655  -0.102226
     41       0.012348  -0.047862  -0.019839  -0.041057   0.031151  -0.001302
     42      -0.010895  -0.393547  -0.622408  -0.085364  -0.408487  -0.015955
     43       0.041840  -0.077360   0.008441  -0.174239   0.080642   0.666969
     44       0.002565  -0.020962  -0.022968  -0.016794  -0.009211   0.051260
                  42         43         44    
      0       0.001153   0.000744   0.000629
      1      -0.000066   0.000506   0.000271
      2       0.000038   0.000067   0.000045
      3       0.001166  -0.000753   0.000644
      4       0.000085   0.000485  -0.000259
      5       0.000051   0.000009   0.000005
      6       0.001159   0.002098   0.002929
      7      -0.058826  -0.018810  -0.013766
      8      -0.004507  -0.001376  -0.000953
      9      -0.000736  -0.001468   0.002501
     10       0.059706  -0.018670   0.013977
     11       0.004614  -0.001507   0.001182
     12       0.008609  -0.051363  -0.052020
     13       0.007202  -0.027993  -0.032948
     14       0.000887  -0.004130  -0.004539
     15       0.008989   0.051720  -0.053591
     16      -0.007093  -0.026327   0.031844
     17      -0.000211  -0.000090   0.000447
     18      -0.000096  -0.000051  -0.000005
     19      -0.000160  -0.000028  -0.000054
     20      -0.000016  -0.000004  -0.000005
     21      -0.000053  -0.000029  -0.000044
     22       0.000194   0.000033   0.000061
     23       0.000012   0.000001   0.000003
     24       0.000055  -0.000000   0.000017
     25       0.000001   0.000014   0.000000
     26       0.000002   0.000001   0.000001
     27      -0.000047   0.000027  -0.000042
     28      -0.000198   0.000033  -0.000063
     29      -0.000018   0.000004  -0.000006
     30      -0.000103   0.000052  -0.000007
     31       0.000160  -0.000026   0.000054
     32       0.000009  -0.000000   0.000004
     33      -0.005499  -0.003300  -0.004289
     34       0.682307   0.202105   0.141318
     35       0.052578   0.015511   0.010769
     36      -0.121502   0.579277   0.583149
     37      -0.075517   0.349451   0.358176
     38      -0.010497   0.049194   0.050018
     39      -0.126056  -0.584445   0.600480
     40       0.073572   0.330745  -0.346155
     41       0.000947   0.003598  -0.004186
     42       0.016662  -0.003177   0.000270
     43      -0.692347   0.200134  -0.142823
     44      -0.053207   0.015439  -0.011097


-----------
IR SPECTRUM
-----------

 Mode    freq (cm**-1)   T**2         TX         TY         TZ
-------------------------------------------------------------------
   6:        43.03    0.194039  ( -0.014309  -0.035744   0.438813)
   7:       101.44    0.000226  ( -0.003257   0.013546   0.005669)
   8:       124.25    0.000101  (  0.000446   0.006802  -0.007418)
   9:       197.29    7.889095  ( -0.116443  -0.219949   2.797706)
  10:       226.98    4.459300  ( -0.034223   2.104981   0.164876)
  11:       253.05    7.673607  (  0.130849   0.226473  -2.757752)
  12:       270.07    1.722190  (  1.310310   0.010188   0.071931)
  13:       298.36    9.552946  (  0.049118  -3.080786  -0.243497)
  14:       416.95    0.616924  (  0.784841   0.010686   0.028889)
  15:       441.16    5.073355  ( -0.075983  -0.174491   2.244356)
  16:       487.48    0.000985  (  0.001390  -0.030982  -0.004819)
  17:       528.07   31.425392  ( -0.092173   5.588455   0.431352)
  18:       583.38   52.900221  (  7.266946   0.092516   0.288382)
  19:       627.36    0.628850  ( -0.792332  -0.007267  -0.031733)
  20:       651.77   40.022623  (  0.124694  -6.306732  -0.481881)
  21:       652.42    1.793166  ( -1.328859  -0.153771  -0.060456)
  22:       697.40    0.000053  (  0.007128   0.001532   0.000235)
  23:       753.25   53.600915  (  0.284183   0.575183  -7.293101)
  24:       756.09    5.908237  (  0.040468  -2.420823  -0.214972)
  25:       848.39    0.000076  ( -0.008096   0.003239   0.000535)
  26:       949.29    0.817161  (  0.039326   0.061973  -0.900985)
  27:       982.09    0.000029  ( -0.004229  -0.003261   0.000793)
  28:       997.52    2.425528  (  1.556470   0.018932   0.050702)
  29:      1053.61    0.027584  ( -0.001472   0.165599   0.012604)
  30:      1067.92    0.139488  ( -0.373108  -0.007957  -0.014691)
  31:      1114.63    2.184084  ( -1.476459  -0.017570  -0.061990)
  32:      1160.48    0.247982  (  0.009537  -0.496478  -0.037429)
  33:      1191.35   46.967076  ( -0.108755   6.832482   0.521952)
  34:      1207.82    0.025274  ( -0.158743  -0.002862  -0.008185)
  35:      1278.41   16.636017  (  0.066163  -4.066134  -0.313355)
  36:      1359.50    1.391334  (  1.178349   0.014710   0.051114)
  37:      1450.27    7.713030  (  0.046348  -2.768644  -0.213284)
  38:      1512.51   15.385319  ( -3.919202  -0.051198  -0.150188)
  39:      1590.31    4.873821  (  2.205810   0.028819   0.085989)
  40:      1649.86    0.164151  ( -0.006867   0.403853   0.031732)
  41:      3175.11    2.169293  (  0.025947  -1.468033  -0.116180)
  42:      3177.23    0.036521  (  0.190487   0.013178   0.007884)
  43:      3204.52    9.142309  (  0.026518  -3.014612  -0.231781)
  44:      3219.01   17.690056  ( -4.202611  -0.038986  -0.163083)

The first frequency considered to be a vibration is 6
The total number of vibrations considered is 39


--------------------------
THERMOCHEMISTRY AT 298.15K
--------------------------

Temperature         ... 298.15 K
Pressure            ... 1.00 atm
Total Mass          ... 200.29 AMU

Throughout the following assumptions are being made:
  (1) The electronic state is orbitally nondegenerate
  (2) There are no thermally accessible electronically excited states
  (3) Hindered rotations indicated by low frequency modes are not
      treated as such but are treated as vibrations and this may
      cause some error
  (4) All equations used are the standard statistical mechanics
      equations for an ideal gas
  (5) All vibrations are strictly harmonic

freq.      43.03  E(vib)   ...       0.53 
freq.     101.44  E(vib)   ...       0.46 
freq.     124.25  E(vib)   ...       0.43 
freq.     197.29  E(vib)   ...       0.35 
freq.     226.98  E(vib)   ...       0.33 
freq.     253.05  E(vib)   ...       0.30 
freq.     270.07  E(vib)   ...       0.29 
freq.     298.36  E(vib)   ...       0.26 
freq.     416.95  E(vib)   ...       0.18 
freq.     441.16  E(vib)   ...       0.17 
freq.     487.48  E(vib)   ...       0.15 
freq.     528.07  E(vib)   ...       0.13 
freq.     583.38  E(vib)   ...       0.11 
freq.     627.36  E(vib)   ...       0.09 
freq.     651.77  E(vib)   ...       0.08 
freq.     652.42  E(vib)   ...       0.08 
freq.     697.40  E(vib)   ...       0.07 
freq.     753.25  E(vib)   ...       0.06 
freq.     756.09  E(vib)   ...       0.06 
freq.     848.39  E(vib)   ...       0.04 
freq.     949.29  E(vib)   ...       0.03 
freq.     982.09  E(vib)   ...       0.02 
freq.     997.52  E(vib)   ...       0.02 
freq.    1053.61  E(vib)   ...       0.02 
freq.    1067.92  E(vib)   ...       0.02 
freq.    1114.63  E(vib)   ...       0.01 
freq.    1160.48  E(vib)   ...       0.01 
freq.    1191.35  E(vib)   ...       0.01 
freq.    1207.82  E(vib)   ...       0.01 
freq.    1278.41  E(vib)   ...       0.01 
freq.    1359.50  E(vib)   ...       0.01 
freq.    1450.27  E(vib)   ...       0.00 
freq.    1512.51  E(vib)   ...       0.00 
freq.    1590.31  E(vib)   ...       0.00 
freq.    1649.86  E(vib)   ...       0.00 
freq.    3175.11  E(vib)   ...       0.00 
freq.    3177.23  E(vib)   ...       0.00 
freq.    3204.52  E(vib)   ...       0.00 
freq.    3219.01  E(vib)   ...       0.00 

------------
INNER ENERGY
------------

The inner energy is: U= E(el) + E(ZPE) + E(vib) + E(rot) + E(trans)
    E(el)   - is the total energy from the electronic structure calculation
              = E(kin-el) + E(nuc-el) + E(el-el) + E(nuc-nuc)
    E(ZPE)  - the the zero temperature vibrational energy from the frequency calculation
    E(vib)  - the the finite temperature correction to E(ZPE) due to population
              of excited vibrational states
    E(rot)  - is the rotational thermal energy
    E(trans)- is the translational thermal energy

Summary of contributions to the inner energy U:
Electronic energy                ...  -1534.61024254 Eh
Zero point energy                ...      0.09180928 Eh      57.61 kcal/mol
Thermal vibrational correction   ...      0.00696155 Eh       4.37 kcal/mol
Thermal rotational correction    ...      0.00141627 Eh       0.89 kcal/mol
Thermal translational correction ...      0.00141627 Eh       0.89 kcal/mol
-----------------------------------------------------------------------
Total thermal energy                  -1534.50863917 Eh


Summary of corrections to the electronic energy:
(perhaps to be used in another calculation)
Total thermal correction                  0.00979409 Eh       6.15 kcal/mol
Non-thermal (ZPE) correction              0.09180928 Eh      57.61 kcal/mol
-----------------------------------------------------------------------
Total correction                          0.10160338 Eh      63.76 kcal/mol


--------
ENTHALPY
--------

The enthalpy is H = U + kB*T
                kB is Boltzmann's constant
Total free energy                 ...  -1534.50863917 Eh 
Thermal Enthalpy correction       ...      0.00094421 Eh       0.59 kcal/mol
-----------------------------------------------------------------------
Total Enthalpy                    ...  -1534.50769496 Eh


Note: Rotational entropy computed according to Herzberg 
Infrared and Raman Spectra, Chapter V,1, Van Nostrand Reinhold, 1945 
Point Group:  C1, Symmetry Number:   1  
Rotational constants in cm-1:     0.045095     0.021160     0.014402 

Vibrational entropy computed according to the QRRHO of S. Grimme
Chem.Eur.J. 2012 18 9955


-------
ENTROPY
-------

The entropy contributions are T*S = T*(S(el)+S(vib)+S(rot)+S(trans))
     S(el)   - electronic entropy
     S(vib)  - vibrational entropy
     S(rot)  - rotational entropy
     S(trans)- translational entropy
The entropies will be listed as mutliplied by the temperature to get
units of energy

Electronic entropy                ...      0.00000000 Eh      0.00 kcal/mol
Vibrational entropy               ...      0.01185984 Eh      7.44 kcal/mol
Rotational entropy                ...      0.01479587 Eh      9.28 kcal/mol
Translational entropy             ...      0.01985499 Eh     12.46 kcal/mol
-----------------------------------------------------------------------
Final entropy term                ...      0.04651071 Eh     29.19 kcal/mol


-------------------
GIBBS FREE ENTHALPY
-------------------

The Gibbs free enthalpy is G = H - T*S

Total enthalpy                    ...  -1534.50769496 Eh 
Total entropy correction          ...     -0.04651071 Eh    -29.19 kcal/mol
-----------------------------------------------------------------------
Final Gibbs free enthalpy         ...  -1534.55420566 Eh

For completeness - the Gibbs free enthalpy minus the electronic energy
G-E(el)                           ...      0.05603688 Eh     35.16 kcal/mol


Timings for individual modules:

Sum of individual times         ...     1856.749 sec (=  30.946 min)
GTO integral calculation        ...        0.341 sec (=   0.006 min)   0.0 %
SCF iterations                  ...       92.631 sec (=   1.544 min)   5.0 %
Analytical frequency calculation...     1763.777 sec (=  29.396 min)  95.0 %
                             ****ORCA TERMINATED NORMALLY****
TOTAL RUN TIME: 0 days 0 hours 30 minutes 57 seconds 212 msec
