
                                 *****************
                                 * O   R   C   A *
                                 *****************

           --- An Ab Initio, DFT and Semiempirical electronic structure package ---

                  #######################################################
                  #                        -***-                        #
                  #          Department of theory and spectroscopy      #
                  #               Directorship: Frank Neese             #
                  #        Max Planck Institute fuer Kohlenforschung    #
                  #                Kaiser Wilhelm Platz 1               #
                  #                 D-45470 Muelheim/Ruhr               #
                  #                      Germany                        #
                  #                                                     #
                  #                  All rights reserved                #
                  #                        -***-                        #
                  #######################################################


                         Program Version 4.1.0  - RELEASE  -


 With contributions from (in alphabetic order):
   Daniel Aravena         : Magnetic Properties
   Michael Atanasov       : Ab Initio Ligand Field Theory
   Alexander A. Auer      : GIAO ZORA
   Ute Becker             : Parallelization
   Giovanni Bistoni       : ED, Open-shell LED
   Martin Brehm           : Molecular dynamics
   Dmytro Bykov           : SCF Hessian
   Vijay G. Chilkuri      : MRCI spin determinant printing
   Dipayan Datta          : RHF DLPNO-CCSD density
   Achintya Kumar Dutta   : EOM-CC, STEOM-CC
   Dmitry Ganyushin       : Spin-Orbit,Spin-Spin,Magnetic field MRCI
   Miquel Garcia          : C-PCM Hessian
   Yang Guo               : DLPNO-NEVPT2, CIM, IAO-localization
   Andreas Hansen         : Spin unrestricted coupled pair/coupled cluster methods
   Benjamin Helmich-Paris : CASSCF linear response (MC-RPA)
   Lee Huntington         : MR-EOM, pCC
   Robert Izsak           : Overlap fitted RIJCOSX, COSX-SCS-MP3, EOM
   Christian Kollmar      : KDIIS, OOCD, Brueckner-CCSD(T), CCSD density
   Simone Kossmann        : Meta GGA functionals, TD-DFT gradient, OOMP2, MP2 Hessian
   Martin Krupicka        : AUTO-CI
   Lucas Lang             : DCDCAS
   Dagmar Lenk            : GEPOL surface, SMD
   Dimitrios Liakos       : Extrapolation schemes; parallel MDCI
   Dimitrios Manganas     : ROCIS; embedding schemes
   Dimitrios Pantazis     : SARC Basis sets
   Taras Petrenko         : DFT Hessian,TD-DFT gradient, ASA, ECA, R-Raman, ABS, FL, XAS/XES, NRVS
   Peter Pinski           : DLPNO-MP2, DLPNO-MP2 Gradient
   Christoph Reimann      : Effective Core Potentials
   Marius Retegan         : Local ZFS, SOC
   Christoph Riplinger    : Optimizer, TS searches, QM/MM, DLPNO-CCSD(T), (RO)-DLPNO pert. Triples
   Tobias Risthaus        : Range-separated hybrids, TD-DFT gradient, RPA, STAB
   Michael Roemelt        : Restricted open shell CIS
   Masaaki Saitow         : Open-shell DLPNO
   Barbara Sandhoefer     : DKH picture change effects
   Avijit Sen             : IP-ROCIS
   Kantharuban Sivalingam : CASSCF convergence, NEVPT2, FIC-MRCI
   Bernardo de Souza      : ESD, SOC TD-DFT
   Georgi Stoychev        : AutoAux, RI-MP2 NMR
   Willem Van den Heuvel  : Paramagnetic NMR
   Boris Wezisla          : Elementary symmetry handling
   Frank Wennmohs         : Technical directorship


 We gratefully acknowledge several colleagues who have allowed us to
 interface, adapt or use parts of their codes:
   Stefan Grimme, W. Hujo, H. Kruse,             : VdW corrections, initial TS optimization,
                  C. Bannwarth                     DFT functionals, gCP, sTDA/sTD-DF
   Ed Valeev                                     : LibInt (2-el integral package), F12 methods
   Garnet Chan, S. Sharma, J. Yang, R. Olivares  : DMRG
   Ulf Ekstrom                                   : XCFun DFT Library
   Mihaly Kallay                                 : mrcc  (arbitrary order and MRCC methods)
   Andreas Klamt, Michael Diedenhofen            : otool_cosmo (COSMO solvation model)
   Jiri Pittner, Ondrej Demel                    : Mk-CCSD
   Frank Weinhold                                : gennbo (NPA and NBO analysis)
   Christopher J. Cramer and Donald G. Truhlar   : smd solvation model
   Lars Goerigk                                  : TD-DFT with DH, B97 family of functionals
   V. Asgeirsson, H. Jonsson                     : NEB implementation
   FAccTs GmbH                                   : IRC, NEB, NEB-TS, Multilevel


 Your calculation uses the libint2 library for the computation of 2-el integrals
 For citations please refer to: http://libint.valeyev.net

 This ORCA versions uses:
   CBLAS   interface :  Fast vector & matrix operations
   LAPACKE interface :  Fast linear algebra routines
   SCALAPACK package :  Parallel linear algebra routines




***************************************
The coordinates will be read from file: /Users/lailaal-madhagi/Desktop/Testing_XAS_Analysis_code/1-3-5-2-4_Benzotrithiadiazepine/Benzotrithiadiazepine_geom.xyz
***************************************


----- Orbital basis set information -----
Your calculation utilizes the basis: 6-31G*
   H-He, Li-Ne : W. J. Hehre, R. Ditchfield and J.A. Pople, J. Chem. Phys. 56, 2257 (1972).
                 Note: He and Ne are unpublished basis sets taken from the Gaussian program.
                 Note: Li and B from J. D. Dill and J. A. Pople, J. Chem. Phys. 62, 2921 (1975).
   Na - Ar     : M. M. Francl, W. J. Pietro, W. J. Hehre, J. S. Binkley, M. S. Gordon, 
                 D. J. DeFrees and J. A. Pople, J. Chem. Phys. 77, 3654 (1982).
   K - Zn      : V. A. Rassolov, J. A. Pople, M. A. Ratner, and T. L. Windus, J. Chem. Phys. 109, 1223 (1998).

================================================================================
                                        WARNINGS
                       Please study these warnings very carefully!
================================================================================


WARNING: Geometry Optimization
  ===> : Switching off AutoStart
         For restart on a previous wavefunction, please use MOREAD

INFO   : the flag for use of LIBINT has been found!

================================================================================
                                       INPUT FILE
================================================================================
NAME = /Users/lailaal-madhagi/Desktop/Testing_XAS_Analysis_code/1-3-5-2-4_Benzotrithiadiazepine//Results_dir_Benzotrithiadiazepine_geom_element_N_2019-11-11_07-22-02//GTE1_Benzotrithiadiazepine_geom_2019-11-11_07-22-14//opt.inp
|  1> ! B3LYP 6-31G* TIGHTSCF Grid3 FinalGrid5 Opt 
|  2> !NormalPrint 
|  3> %output 
|  4> Print[P_Basis] 2 
|  5> Print[P_MOS] 1 
|  6> end 
|  7> *xyzfile 0 1 /Users/lailaal-madhagi/Desktop/Testing_XAS_Analysis_code/1-3-5-2-4_Benzotrithiadiazepine/Benzotrithiadiazepine_geom.xyz                           ****END OF INPUT****
================================================================================

                       *****************************
                       * Geometry Optimization Run *
                       *****************************

Geometry optimization settings:
Update method            Update   .... BFGS
Choice of coordinates    CoordSys .... Z-matrix Internals
Initial Hessian          InHess   .... Almoef's Model

Convergence Tolerances:
Energy Change            TolE     ....  5.0000e-06 Eh
Max. Gradient            TolMAXG  ....  3.0000e-04 Eh/bohr
RMS Gradient             TolRMSG  ....  1.0000e-04 Eh/bohr
Max. Displacement        TolMAXD  ....  4.0000e-03 bohr
RMS Displacement         TolRMSD  ....  2.0000e-03 bohr

------------------------------------------------------------------------------
                        ORCA OPTIMIZATION COORDINATE SETUP
------------------------------------------------------------------------------

The optimization will be done in new redundant internal coordinates
Making redundant internal coordinates   ...  (new redundants) done
Evaluating the initial hessian          ...  (Almloef) done
Evaluating the coordinates              ...  done
Calculating the B-matrix                .... done
Calculating the G-matrix                .... done
Diagonalizing the G-matrix              .... done
The first mode is                       ....   32
The number of degrees of freedom        ....   39

    -----------------------------------------------------------------
                    Redundant Internal Coordinates


    -----------------------------------------------------------------
         Definition                    Initial Value    Approx d2E/dq
    -----------------------------------------------------------------
      1. B(C   1,C   0)                  1.4250         0.549487   
      2. B(C   2,C   0)                  1.4098         0.580897   
      3. B(C   3,C   1)                  1.4098         0.580916   
      4. B(C   4,C   2)                  1.3917         0.620868   
      5. B(C   5,C   4)                  1.3861         0.633875   
      6. B(C   5,C   3)                  1.3917         0.620869   
      7. B(S   6,C   0)                  1.7172         0.506337   
      8. B(N   7,S   6)                  1.6781         0.523646   
      9. B(S   8,N   7)                  1.6710         0.537478   
     10. B(N   9,S   8)                  1.6710         0.537461   
     11. B(S  10,N   9)                  1.6781         0.523643   
     12. B(S  10,C   1)                  1.7172         0.506336   
     13. B(H  11,C   2)                  1.0844         0.367634   
     14. B(H  12,C   4)                  1.0825         0.370150   
     15. B(H  13,C   5)                  1.0825         0.370138   
     16. B(H  14,C   3)                  1.0844         0.367619   
     17. A(C   1,C   0,S   6)          129.0512         0.432237   
     18. A(C   1,C   0,C   2)          118.4765         0.419850   
     19. A(C   2,C   0,S   6)          112.4723         0.436583   
     20. A(C   3,C   1,S  10)          112.4723         0.436585   
     21. A(C   0,C   1,S  10)          129.0512         0.432236   
     22. A(C   0,C   1,C   3)          118.4765         0.419852   
     23. A(C   0,C   2,C   4)          121.7234         0.429123   
     24. A(C   4,C   2,H  11)          117.7468         0.354233   
     25. A(C   0,C   2,H  11)          120.5298         0.350268   
     26. A(C   5,C   3,H  14)          117.7465         0.354230   
     27. A(C   1,C   3,H  14)          120.5299         0.350267   
     28. A(C   1,C   3,C   5)          121.7236         0.429126   
     29. A(C   2,C   4,C   5)          119.7999         0.435909   
     30. A(C   5,C   4,H  12)          120.0591         0.355892   
     31. A(C   2,C   4,H  12)          120.1410         0.354642   
     32. A(C   3,C   5,C   4)          119.8002         0.435909   
     33. A(C   4,C   5,H  13)          120.0585         0.355890   
     34. A(C   3,C   5,H  13)          120.1413         0.354641   
     35. A(C   0,S   6,N   7)          129.9438         0.449808   
     36. A(S   6,N   7,S   8)          129.1047         0.452157   
     37. A(N   7,S   8,N   9)          123.8007         0.454304   
     38. A(S   8,N   9,S  10)          129.1045         0.452154   
     39. A(C   1,S  10,N   9)          129.9438         0.449808   
     40. D(S  10,C   1,C   0,S   6)     -0.0008         0.020654   
     41. D(S  10,C   1,C   0,C   2)    179.9995         0.020654   
     42. D(C   3,C   1,C   0,S   6)   -179.9999         0.020654   
     43. D(C   3,C   1,C   0,C   2)      0.0005         0.020654   
     44. D(C   4,C   2,C   0,S   6)    179.9999         0.023187   
     45. D(H  11,C   2,C   0,C   1)    179.9992         0.023187   
     46. D(C   4,C   2,C   0,C   1)     -0.0004         0.023187   
     47. D(H  11,C   2,C   0,S   6)     -0.0005         0.023187   
     48. D(H  14,C   3,C   1,S  10)      0.0007         0.023188   
     49. D(H  14,C   3,C   1,C   0)    179.9999         0.023188   
     50. D(C   5,C   3,C   1,S  10)   -179.9995         0.023188   
     51. D(C   5,C   3,C   1,C   0)     -0.0002         0.023188   
     52. D(H  12,C   4,C   2,C   0)   -179.9994         0.026678   
     53. D(C   5,C   4,C   2,H  11)   -179.9996         0.026678   
     54. D(C   5,C   4,C   2,C   0)      0.0001         0.026678   
     55. D(H  12,C   4,C   2,H  11)      0.0010         0.026678   
     56. D(H  13,C   5,C   4,H  12)     -0.0000         0.027881   
     57. D(C   3,C   5,C   4,H  12)    179.9996         0.027881   
     58. D(C   3,C   5,C   4,C   2)      0.0002         0.027881   
     59. D(H  13,C   5,C   3,H  14)     -0.0006         0.026679   
     60. D(H  13,C   5,C   3,C   1)    179.9995         0.026679   
     61. D(H  13,C   5,C   4,C   2)   -179.9995         0.027881   
     62. D(C   4,C   5,C   3,H  14)    179.9998         0.026679   
     63. D(C   4,C   5,C   3,C   1)     -0.0001         0.026679   
     64. D(N   7,S   6,C   0,C   2)   -179.9983         0.005305   
     65. D(N   7,S   6,C   0,C   1)      0.0020         0.005305   
     66. D(S   8,N   7,S   6,C   0)     -0.0008         0.005627   
     67. D(N   9,S   8,N   7,S   6)     -0.0008         0.005861   
     68. D(S  10,N   9,S   8,N   7)      0.0007         0.005860   
     69. D(N   9,S  10,C   1,C   3)    179.9982         0.005305   
     70. D(N   9,S  10,C   1,C   0)     -0.0009         0.005305   
     71. D(C   1,S  10,N   9,S   8)      0.0007         0.005627   
    -----------------------------------------------------------------

Number of atoms                         .... 15
Number of degrees of freedom            .... 71

         *************************************************************
         *                GEOMETRY OPTIMIZATION CYCLE   1            *
         *************************************************************
---------------------------------
CARTESIAN COORDINATES (ANGSTROEM)
---------------------------------
  C     -0.557590    0.902200   -0.026490
  C     -0.534750   -0.518380   -0.135810
  C      0.669810    1.588450    0.074380
  C      0.714190   -1.172400   -0.138070
  C      1.887520    0.914630    0.069370
  C      1.909730   -0.467180   -0.036960
  S     -1.907330    1.963410    0.003450
  N     -3.547970    1.622640   -0.086620
  S     -4.310700    0.142920   -0.230980
  N     -3.500720   -1.316340   -0.312770
  S     -1.849810   -1.614270   -0.271850
  H      0.691260    2.669290    0.159050
  H      2.814930    1.467360    0.148250
  H      2.854530   -0.995550   -0.041270
  H      0.770380   -2.252240   -0.219660

----------------------------
CARTESIAN COORDINATES (A.U.)
----------------------------
  NO LB      ZA    FRAG     MASS         X           Y           Z
   0 C     6.0000    0    12.011   -1.053692    1.704911   -0.050059
   1 C     6.0000    0    12.011   -1.010531   -0.979596   -0.256644
   2 C     6.0000    0    12.011    1.265757    3.001735    0.140558
   3 C     6.0000    0    12.011    1.349624   -2.215515   -0.260914
   4 C     6.0000    0    12.011    3.566896    1.728400    0.131090
   5 C     6.0000    0    12.011    3.608867   -0.882842   -0.069844
   6 S    16.0000    0    32.060   -3.604331    3.710307    0.006520
   7 N     7.0000    0    14.007   -6.704692    3.066345   -0.163688
   8 S    16.0000    0    32.060   -8.146042    0.270080   -0.436489
   9 N     7.0000    0    14.007   -6.615402   -2.487522   -0.591050
  10 S    16.0000    0    32.060   -3.495634   -3.050528   -0.513722
  11 H     1.0000    0     1.008    1.306292    5.044227    0.300561
  12 H     1.0000    0     1.008    5.319447    2.772909    0.280152
  13 H     1.0000    0     1.008    5.394280   -1.881317   -0.077989
  14 H     1.0000    0     1.008    1.455807   -4.256117   -0.415097

--------------------------------
INTERNAL COORDINATES (ANGSTROEM)
--------------------------------
 C      0   0   0     0.000000000000     0.00000000     0.00000000
 C      1   0   0     1.424963180016     0.00000000     0.00000000
 C      1   2   0     1.409831401055   118.47645763     0.00000000
 C      2   1   3     1.409822113460   118.47647635     0.00000000
 C      3   1   2     1.391716974316   121.72341726     0.00000000
 C      5   3   1     1.386072952301   119.79986077     0.00000000
 S      1   2   3     1.717224835396   129.05120923   179.99967769
 N      7   1   2     1.678075209101   129.94381866     0.00000000
 S      8   7   1     1.670978198811   129.10473925     0.00000000
 N      9   8   7     1.670986819846   123.80070273     0.00000000
 S     10   9   8     1.678076446232   129.10453127     0.00000000
 H      3   1   2     1.084363507778   120.52982444   179.99924998
 H      5   3   1     1.082507189537   120.14101827   180.00062265
 H      6   5   3     1.082515807275   120.05849805   180.00053932
 H      4   2   1     1.084374782905   120.52988914   179.99991473

---------------------------
INTERNAL COORDINATES (A.U.)
---------------------------
 C      0   0   0     0.000000000000     0.00000000     0.00000000
 C      1   0   0     2.692790161151     0.00000000     0.00000000
 C      1   2   0     2.664195242996   118.47645763     0.00000000
 C      2   1   3     2.664177691985   118.47647635     0.00000000
 C      3   1   2     2.629963937387   121.72341726     0.00000000
 C      5   3   1     2.619298281484   119.79986077     0.00000000
 S      1   2   3     3.245084649266   129.05120923   179.99967769
 N      7   1   2     3.171102577324   129.94381866     0.00000000
 S      8   7   1     3.157691171505   129.10473925     0.00000000
 N      9   8   7     3.157707462901   123.80070273     0.00000000
 S     10   9   8     3.171104915163   129.10453127     0.00000000
 H      3   1   2     2.049150059318   120.52982444   179.99924998
 H      5   3   1     2.045642126226   120.14101827   180.00062265
 H      6   5   3     2.045658411390   120.05849805   180.00053932
 H      4   2   1     2.049171366221   120.52988914   179.99991473

---------------------
BASIS SET INFORMATION
---------------------
There are 4 groups of distinct atoms

 Group   1 Type C   : 10s4p1d contracted to 3s2p1d pattern {631/31/1}
 Group   2 Type S   : 16s10p1d contracted to 4s3p1d pattern {6631/631/1}
 Group   3 Type N   : 10s4p1d contracted to 3s2p1d pattern {631/31/1}
 Group   4 Type H   : 4s contracted to 2s pattern {31}

Atom   0C    basis set group =>   1
Atom   1C    basis set group =>   1
Atom   2C    basis set group =>   1
Atom   3C    basis set group =>   1
Atom   4C    basis set group =>   1
Atom   5C    basis set group =>   1
Atom   6S    basis set group =>   2
Atom   7N    basis set group =>   3
Atom   8S    basis set group =>   2
Atom   9N    basis set group =>   3
Atom  10S    basis set group =>   2
Atom  11H    basis set group =>   4
Atom  12H    basis set group =>   4
Atom  13H    basis set group =>   4
Atom  14H    basis set group =>   4

-------------------------
BASIS SET IN INPUT FORMAT
-------------------------

 # Basis set for element : H 
 NewGTO H 
 S 3 
   1      18.7311370000      0.0334945995
   2       2.8253937000      0.2347269467
   3       0.6401217000      0.8137573184
 S 1 
   1       0.1612778000      1.0000000000
  end;

 # Basis set for element : C 
 NewGTO C 
 S 6 
   1    3047.5249000000      0.0018347002
   2     457.3695100000      0.0140373012
   3     103.9486900000      0.0688426061
   4      29.2101550000      0.2321844206
   5       9.2866630000      0.4679413416
   6       3.1639270000      0.3623120322
 S 3 
   1       7.8682724000     -0.1193324086
   2       1.8812885000     -0.1608542116
   3       0.5442493000      1.1434564826
 P 3 
   1       7.8682724000      0.0689990956
   2       1.8812885000      0.3164239798
   3       0.5442493000      0.7443082524
 S 1 
   1       0.1687144000      1.0000000000
 P 1 
   1       0.1687144000      1.0000000000
 D 1 
   1       0.8000000000      1.0000000000
  end;

 # Basis set for element : N 
 NewGTO N 
 S 6 
   1    4173.5110000000      0.0018347994
   2     627.4579000000      0.0139949958
   3     142.9021000000      0.0685869792
   4      40.2343300000      0.2322409295
   5      12.8202100000      0.4690698576
   6       4.3904370000      0.3604548906
 S 3 
   1      11.6263580000     -0.1149610229
   2       2.7162800000     -0.1691180337
   3       0.7722180000      1.1458522281
 P 3 
   1      11.6263580000      0.0675800232
   2       2.7162800000      0.3239071114
   3       0.7722180000      0.7408952549
 S 1 
   1       0.2120313000      1.0000000000
 P 1 
   1       0.2120313000      1.0000000000
 D 1 
   1       0.8000000000      1.0000000000
  end;

 # Basis set for element : S 
 NewGTO S 
 S 6 
   1   21917.1000000000      0.0018690012
   2    3301.4900000000      0.0142300092
   3     754.1460000000      0.0696960451
   4     212.7110000000      0.2384871542
   5      67.9896000000      0.4833073125
   6      23.0515000000      0.3380742186
 S 6 
   1     423.7350000000     -0.0023767005
   2     100.7100000000     -0.0316930066
   3      32.1599000000     -0.1133170236
   4      11.8079000000      0.0560900117
   5       4.6311000000      0.5922551234
   6       1.8702500000      0.4550060948
 P 6 
   1     423.7350000000      0.0040610003
   2     100.7100000000      0.0306810024
   3      32.1599000000      0.1304520103
   4      11.8079000000      0.3272050259
   5       4.6311000000      0.4528510358
   6       1.8702500000      0.2560420203
 S 3 
   1       2.6158400000     -0.2503731142
   2       0.9221670000      0.0669567631
   3       0.3412870000      1.0545062691
 P 3 
   1       2.6158400000     -0.0145109929
   2       0.9221670000      0.3102628472
   3       0.3412870000      0.7544826285
 S 1 
   1       0.1171670000      1.0000000000
 P 1 
   1       0.1171670000      1.0000000000
 D 1 
   1       0.6500000000      1.0000000000
  end;

------------------------------------------------------------------------------
                           ORCA GTO INTEGRAL CALCULATION
------------------------------------------------------------------------------

                         BASIS SET STATISTICS AND STARTUP INFO

 # of primitive gaussian shells          ...  217
 # of primitive gaussian functions       ...  385
 # of contracted shells                  ...   80
 # of contracted basis functions         ...  174
 Highest angular momentum                ...    2
 Maximum contraction depth               ...    6
 Integral package used                   ... LIBINT
 Integral threshhold            Thresh   ...  2.500e-11
 Primitive cut-off              TCut     ...  2.500e-12


------------------------------ INTEGRAL EVALUATION ----------------------------


 * One electron integrals 
 Pre-screening matrix                    ... done
 Shell pair data                         ... done (   0.005 sec)

-------------------------------------------------------------------------------
                                 ORCA SCF
-------------------------------------------------------------------------------

------------
SCF SETTINGS
------------
Hamiltonian:
 Density Functional     Method          .... DFT(GTOs)
 Exchange Functional    Exchange        .... B88
   X-Alpha parameter    XAlpha          ....  0.666667
   Becke's b parameter  XBeta           ....  0.004200
 Correlation Functional Correlation     .... LYP
 LDA part of GGA corr.  LDAOpt          .... VWN-5
 Gradients option       PostSCFGGA      .... off
 Hybrid DFT is turned on
   Fraction HF Exchange ScalHFX         ....  0.200000
   Scaling of DF-GGA-X  ScalDFX         ....  0.720000
   Scaling of DF-GGA-C  ScalDFC         ....  0.810000
   Scaling of DF-LDA-C  ScalLDAC        ....  1.000000
   Perturbative correction              ....  0.000000
   Density functional embedding theory  .... OFF
   NL short-range parameter             ....  4.800000


General Settings:
 Integral files         IntName         .... /Users/lailaal-madhagi/Desktop/Testing_XAS_Analysis_code/1-3-5-2-4_Benzotrithiadiazepine//Results_dir_Benzotrithiadiazepine_geom_element_N_2019-11-11_07-22-02//GTE1_Benzotrithiadiazepine_geom_2019-11-11_07-22-14//opt
 Hartree-Fock type      HFTyp           .... RHF
 Total Charge           Charge          ....    0
 Multiplicity           Mult            ....    1
 Number of Electrons    NEL             ....  102
 Basis Dimension        Dim             ....  174
 Nuclear Repulsion      ENuc            ....    851.9398025461 Eh

Convergence Acceleration:
 DIIS                   CNVDIIS         .... on
   Start iteration      DIISMaxIt       ....    12
   Startup error        DIISStart       ....  0.200000
   # of expansion vecs  DIISMaxEq       ....     5
   Bias factor          DIISBfac        ....   1.050
   Max. coefficient     DIISMaxC        ....  10.000
 Newton-Raphson         CNVNR           .... off
 SOSCF                  CNVSOSCF        .... on
   Start iteration      SOSCFMaxIt      ....   150
   Startup grad/error   SOSCFStart      ....  0.003300
 Level Shifting         CNVShift        .... on
   Level shift para.    LevelShift      ....    0.2500
   Turn off err/grad.   ShiftErr        ....    0.0010
 Zerner damping         CNVZerner       .... off
 Static damping         CNVDamp         .... on
   Fraction old density DampFac         ....    0.7000
   Max. Damping (<1)    DampMax         ....    0.9800
   Min. Damping (>=0)   DampMin         ....    0.0000
   Turn off err/grad.   DampErr         ....    0.1000
 Fernandez-Rico         CNVRico         .... off

SCF Procedure:
 Maximum # iterations   MaxIter         ....   125
 SCF integral mode      SCFMode         .... Direct
   Integral package                     .... LIBINT
 Reset frequency        DirectResetFreq ....    20
 Integral Threshold     Thresh          ....  2.500e-11 Eh
 Primitive CutOff       TCut            ....  2.500e-12 Eh

Convergence Tolerance:
 Convergence Check Mode ConvCheckMode   .... Total+1el-Energy
 Convergence forced     ConvForced      .... 0
 Energy Change          TolE            ....  1.000e-08 Eh
 1-El. energy change                    ....  1.000e-05 Eh
 Orbital Gradient       TolG            ....  1.000e-05
 Orbital Rotation angle TolX            ....  1.000e-05
 DIIS Error             TolErr          ....  5.000e-07


Diagonalization of the overlap matrix:
Smallest eigenvalue                        ... 5.280e-04
Time for diagonalization                   ...    0.005 sec
Threshold for overlap eigenvalues          ... 1.000e-08
Number of eigenvalues below threshold      ... 0
Time for construction of square roots      ...    0.004 sec
Total time needed                          ...    0.009 sec

-------------------
DFT GRID GENERATION
-------------------

General Integration Accuracy     IntAcc      ...  4.340
Radial Grid Type                 RadialGrid  ... Gauss-Chebyshev
Angular Grid (max. acc.)         AngularGrid ... Lebedev-194
Angular grid pruning method      GridPruning ... 3 (G Style)
Weight generation scheme         WeightScheme... Becke
Basis function cutoff            BFCut       ...    1.0000e-11
Integration weight cutoff        WCut        ...    1.0000e-14
Grids for H and He will be reduced by one unit

# of grid points (after initial pruning)     ...  43220 (   0.0 sec)
# of grid points (after weights+screening)   ...  40105 (   0.1 sec)
nearest neighbour list constructed           ...    0.0 sec
Grid point re-assignment to atoms done       ...    0.0 sec
Grid point division into batches done        ...    0.1 sec
Reduced shell lists constructed in    0.4 sec

Total number of grid points                  ...    40105
Total number of batches                      ...      632
Average number of points per batch           ...       63
Average number of grid points per atom       ...     2674
Average number of shells per batch           ...    48.06 (60.07%)
Average number of basis functions per batch  ...   107.33 (61.68%)
Average number of large shells per batch     ...    35.60 (74.08%)
Average number of large basis fcns per batch ...    79.62 (74.18%)
Maximum spatial batch extension              ...  17.48, 20.36, 21.45 au
Average spatial batch extension              ...   3.08,  3.17,  3.68 au

Time for grid setup =    0.475 sec

------------------------------
INITIAL GUESS: MODEL POTENTIAL
------------------------------
Loading Hartree-Fock densities                     ... done
Calculating cut-offs                               ... done
Setting up the integral package                    ... done
Initializing the effective Hamiltonian             ... done
Starting the Coulomb interaction                   ... done (   0.1 sec)
Reading the grid                                   ... done
Mapping shells                                     ... done
Starting the XC term evaluation                    ... done (   0.3 sec)
  promolecular density results
     # of electrons  =    101.998376694
     EX              =   -120.228328553
     EC              =     -3.844421187
     EX+EC           =   -124.072749740
Transforming the Hamiltonian                       ... done (   0.0 sec)
Diagonalizing the Hamiltonian                      ... done (   0.0 sec)
Back transforming the eigenvectors                 ... done (   0.0 sec)
Now organizing SCF variables                       ... done
                      ------------------
                      INITIAL GUESS DONE (   1.0 sec)
                      ------------------
--------------
SCF ITERATIONS
--------------
               ***  Starting incremental Fock matrix formation  ***

                         ----------------------------
                         !        ITERATION     0   !
                         ----------------------------
   Total Energy        :   -1534.287245049341 Eh
   Energy Change       :   -1534.287245049341 Eh
   MAX-DP              :       0.082997783521
   RMS-DP              :       0.002590242945
   Actual Damping      :       0.7000
   Actual Level Shift  :       0.2500 Eh
   Int. Num. El.       :   101.99988226 (UP=   50.99994113 DN=   50.99994113)
   Exchange            :   -96.42096934
   Correlation         :    -4.52435614


                         ----------------------------
                         !        ITERATION     1   !
                         ----------------------------
   Total Energy        :   -1534.434988999581 Eh
   Energy Change       :      -0.147743950240 Eh
   MAX-DP              :       0.057607795099
   RMS-DP              :       0.001773701991
   Actual Damping      :       0.7000
   Actual Level Shift  :       0.2500 Eh
   Int. Num. El.       :   101.99985121 (UP=   50.99992560 DN=   50.99992560)
   Exchange            :   -96.19100550
   Correlation         :    -4.51481398

                               ***Turning on DIIS***

                         ----------------------------
                         !        ITERATION     2   !
                         ----------------------------
   Total Energy        :   -1534.486794360510 Eh
   Energy Change       :      -0.051805360930 Eh
   MAX-DP              :       0.069875281595
   RMS-DP              :       0.002727817031
   Actual Damping      :       0.0000
   Actual Level Shift  :       0.2500 Eh
   Int. Num. El.       :   101.99983589 (UP=   50.99991794 DN=   50.99991794)
   Exchange            :   -96.04393278
   Correlation         :    -4.50832045
   DIIS-Error          :       0.023822265404


                         ----------------------------
                         !        ITERATION     3   !
                         ----------------------------
   Total Energy        :   -1534.555815430548 Eh
   Energy Change       :      -0.069021070038 Eh
   MAX-DP              :       0.047531182964
   RMS-DP              :       0.001260934810
   Actual Damping      :       0.0000
   Actual Level Shift  :       0.2500 Eh
   Int. Num. El.       :   101.99981367 (UP=   50.99990683 DN=   50.99990683)
   Exchange            :   -95.82952572
   Correlation         :    -4.49839908
   DIIS-Error          :       0.043621878863
   DIIS coefficients:
      0.70181   0.29819


                         ----------------------------
                         !        ITERATION     4   !
                         ----------------------------
   Total Energy        :   -1534.582386066370 Eh
   Energy Change       :      -0.026570635822 Eh
   MAX-DP              :       0.011238743053
   RMS-DP              :       0.000513816926
   Actual Damping      :       0.0000
   Actual Level Shift  :       0.2500 Eh
   Int. Num. El.       :   101.99981672 (UP=   50.99990836 DN=   50.99990836)
   Exchange            :   -95.89763340
   Correlation         :    -4.50172625
   DIIS-Error          :       0.013218743872
   DIIS coefficients:
      0.22801  -0.12799   0.89998


                         ----------------------------
                         !        ITERATION     5   !
                         ----------------------------
   Total Energy        :   -1534.584782021599 Eh
   Energy Change       :      -0.002395955229 Eh
   MAX-DP              :       0.005305321786
   RMS-DP              :       0.000183244474
   Actual Damping      :       0.0000
   Actual Level Shift  :       0.2500 Eh
   Int. Num. El.       :   101.99981731 (UP=   50.99990865 DN=   50.99990865)
   Exchange            :   -95.92226520
   Correlation         :    -4.50292674
   DIIS-Error          :       0.008060644519
   DIIS coefficients:
      0.08586  -0.09658   0.34904   0.66168

                      *** Initiating the SOSCF procedure ***
                           *** Shutting down DIIS ***
                      *** Re-Reading the Fockian *** 
                      *** Removing any level shift *** 

                         ----------------------------
                         !        ITERATION     6   !
                         ----------------------------
   Total Energy        :   -1534.585141694246 Eh
   Energy Change       :      -0.000359672646 Eh
   MAX-DP              :       0.002457358653
   RMS-DP              :       0.000093592755
   Orbital gradient    :       0.000649162362
   Orbital Rotation    :       0.000649162362
   Actual Damping      :       0.0000
   Int. Num. El.       :   101.99981595 (UP=   50.99990797 DN=   50.99990797)
   Exchange            :   -95.93391514
   Correlation         :    -4.50334509

               *** Restarting incremental Fock matrix formation ***

                         ----------------------------
                         !        ITERATION     7   !
                         ----------------------------
   Total Energy        :   -1534.585168075497 Eh
   Energy Change       :      -0.000026381251 Eh
   MAX-DP              :       0.001575832219
   RMS-DP              :       0.000052994182
   Orbital gradient    :       0.000363033008
   Orbital Rotation    :       0.001340679808
   Actual Damping      :       0.0000
   Int. Num. El.       :   101.99981578 (UP=   50.99990789 DN=   50.99990789)
   Exchange            :   -95.93622783
   Correlation         :    -4.50347043


                         ----------------------------
                         !        ITERATION     8   !
                         ----------------------------
   Total Energy        :   -1534.585158626182 Eh
   Energy Change       :       0.000009449315 Eh
   MAX-DP              :       0.001458019936
   RMS-DP              :       0.000036872948
   Orbital gradient    :       0.000730241823
   Orbital Rotation    :       0.001385397292
   Actual Damping      :       0.0000
   Int. Num. El.       :   101.99981552 (UP=   50.99990776 DN=   50.99990776)
   Exchange            :   -95.93520336
   Correlation         :    -4.50340115


                         ----------------------------
                         !        ITERATION     9   !
                         ----------------------------
   Total Energy        :   -1534.585171148991 Eh
   Energy Change       :      -0.000012522809 Eh
   MAX-DP              :       0.000815698515
   RMS-DP              :       0.000019925907
   Orbital gradient    :       0.000132687730
   Orbital Rotation    :       0.000532308656
   Actual Damping      :       0.0000
   Int. Num. El.       :   101.99981587 (UP=   50.99990794 DN=   50.99990794)
   Exchange            :   -95.93547476
   Correlation         :    -4.50343269


                         ----------------------------
                         !        ITERATION    10   !
                         ----------------------------
   Total Energy        :   -1534.585169775051 Eh
   Energy Change       :       0.000001373941 Eh
   MAX-DP              :       0.000564404923
   RMS-DP              :       0.000013026437
   Orbital gradient    :       0.000254675093
   Orbital Rotation    :       0.000376608364
   Actual Damping      :       0.0000
   Int. Num. El.       :   101.99981585 (UP=   50.99990793 DN=   50.99990793)
   Exchange            :   -95.93626011
   Correlation         :    -4.50346571


                         ----------------------------
                         !        ITERATION    11   !
                         ----------------------------
   Total Energy        :   -1534.585171657109 Eh
   Energy Change       :      -0.000001882058 Eh
   MAX-DP              :       0.000192609765
   RMS-DP              :       0.000004367854
   Orbital gradient    :       0.000027174625
   Orbital Rotation    :       0.000228606891
   Actual Damping      :       0.0000
   Int. Num. El.       :   101.99981585 (UP=   50.99990793 DN=   50.99990793)
   Exchange            :   -95.93572159
   Correlation         :    -4.50344249


                         ----------------------------
                         !        ITERATION    12   !
                         ----------------------------
   Total Energy        :   -1534.585171533725 Eh
   Energy Change       :       0.000000123383 Eh
   MAX-DP              :       0.000161229578
   RMS-DP              :       0.000003357484
   Orbital gradient    :       0.000111829860
   Orbital Rotation    :       0.000204264367
   Actual Damping      :       0.0000
   Int. Num. El.       :   101.99981586 (UP=   50.99990793 DN=   50.99990793)
   Exchange            :   -95.93571544
   Correlation         :    -4.50344122


                         ----------------------------
                         !        ITERATION    13   !
                         ----------------------------
   Total Energy        :   -1534.585171665087 Eh
   Energy Change       :      -0.000000131362 Eh
   MAX-DP              :       0.000068878270
   RMS-DP              :       0.000002357730
   Orbital gradient    :       0.000014089885
   Orbital Rotation    :       0.000087379310
   Actual Damping      :       0.0000
   Int. Num. El.       :   101.99981585 (UP=   50.99990793 DN=   50.99990793)
   Exchange            :   -95.93573354
   Correlation         :    -4.50344238


                         ----------------------------
                         !        ITERATION    14   !
                         ----------------------------
   Total Energy        :   -1534.585171643747 Eh
   Energy Change       :       0.000000021340 Eh
   MAX-DP              :       0.000050260303
   RMS-DP              :       0.000001612531
   Orbital gradient    :       0.000034945396
   Orbital Rotation    :       0.000063236841
   Actual Damping      :       0.0000
   Int. Num. El.       :   101.99981586 (UP=   50.99990793 DN=   50.99990793)
   Exchange            :   -95.93571959
   Correlation         :    -4.50344295

                  ***Gradient check signals convergence***
              ***Rediagonalizing the Fockian in SOSCF/NRSCF***

               *****************************************************
               *                     SUCCESS                       *
               *           SCF CONVERGED AFTER  15 CYCLES          *
               *****************************************************

Setting up the final grid:

General Integration Accuracy     IntAcc      ...  5.010
Radial Grid Type                 RadialGrid  ... Gauss-Chebyshev
Angular Grid (max. acc.)         AngularGrid ... Lebedev-434
Angular grid pruning method      GridPruning ... 3 (G Style)
Weight generation scheme         WeightScheme... Becke
Basis function cutoff            BFCut       ...    1.0000e-11
Integration weight cutoff        WCut        ...    1.0000e-14
Grids for H and He will be reduced by one unit

# of grid points (after initial pruning)     ... 147356 (   0.1 sec)
# of grid points (after weights+screening)   ... 135672 (   0.2 sec)
nearest neighbour list constructed           ...    0.0 sec
Grid point re-assignment to atoms done       ...    0.0 sec
Grid point division into batches done        ...    0.8 sec
Reduced shell lists constructed in    1.5 sec

Total number of grid points                  ...   135672
Total number of batches                      ...     2128
Average number of points per batch           ...       63
Average number of grid points per atom       ...     9045
Average number of shells per batch           ...    44.16 (55.19%)
Average number of basis functions per batch  ...    98.15 (56.41%)
Average number of large shells per batch     ...    32.33 (73.22%)
Average number of large basis fcns per batch ...    71.85 (73.21%)
Maximum spatial batch extension              ...  19.16, 16.13, 22.33 au
Average spatial batch extension              ...   2.08,  2.09,  2.32 au

Final grid set up in    1.8 sec
Final integration                            ... done (   1.2 sec)
Change in XC energy                          ...     0.000447461
Integrated number of electrons               ...   101.999996693
Previous integrated no of electrons          ...   101.999815856

----------------
TOTAL SCF ENERGY
----------------

Total Energy       :        -1534.58472421 Eh          -41758.17329 eV

Components:
Nuclear Repulsion  :          851.93980255 Eh           23182.46060 eV
Electronic Energy  :        -2386.52452676 Eh          -64940.63389 eV
One Electron Energy:        -3803.05168635 Eh         -103486.29753 eV
Two Electron Energy:         1416.52715959 Eh           38545.66364 eV

Virial components:
Potential Energy   :        -3064.69981521 Eh          -83394.72168 eV
Kinetic Energy     :         1530.11509100 Eh           41636.54839 eV
Virial Ratio       :            2.00292111


DFT components:
N(Alpha)           :       50.999998346319 electrons
N(Beta)            :       50.999998346319 electrons
N(Total)           :      101.999996692638 electrons
E(X)               :      -95.935308886546 Eh       
E(C)               :       -4.503413248352 Eh       
E(XC)              :     -100.438722134898 Eh       
DFET-embed. en.    :        0.000000000000 Eh       

---------------
SCF CONVERGENCE
---------------

  Last Energy change         ...   -2.7361e-08  Tolerance :   1.0000e-08
  Last MAX-Density change    ...    4.1495e-06  Tolerance :   1.0000e-07
  Last RMS-Density change    ...    1.5557e-07  Tolerance :   5.0000e-09
  Last Orbital Gradient      ...    8.8588e-07  Tolerance :   1.0000e-05
  Last Orbital Rotation      ...    1.7153e-06  Tolerance :   1.0000e-05

             **** THE GBW FILE WAS UPDATED (/Users/lailaal-madhagi/Desktop/Testing_XAS_Analysis_code/1-3-5-2-4_Benzotrithiadiazepine//Results_dir_Benzotrithiadiazepine_geom_element_N_2019-11-11_07-22-02//GTE1_Benzotrithiadiazepine_geom_2019-11-11_07-22-14//opt.gbw) ****
             **** DENSITY FILE WAS UPDATED (/Users/lailaal-madhagi/Desktop/Testing_XAS_Analysis_code/1-3-5-2-4_Benzotrithiadiazepine//Results_dir_Benzotrithiadiazepine_geom_element_N_2019-11-11_07-22-02//GTE1_Benzotrithiadiazepine_geom_2019-11-11_07-22-14//opt.scfp.tmp) ****
             **** ENERGY FILE WAS UPDATED (/Users/lailaal-madhagi/Desktop/Testing_XAS_Analysis_code/1-3-5-2-4_Benzotrithiadiazepine//Results_dir_Benzotrithiadiazepine_geom_element_N_2019-11-11_07-22-02//GTE1_Benzotrithiadiazepine_geom_2019-11-11_07-22-14//opt.en.tmp) ****
----------------
ORBITAL ENERGIES
----------------

  NO   OCC          E(Eh)            E(eV) 
   0   2.0000     -88.973429     -2421.0901 
   1   2.0000     -88.929322     -2419.8899 
   2   2.0000     -88.929306     -2419.8894 
   3   2.0000     -14.393265      -391.6607 
   4   2.0000     -14.393255      -391.6604 
   5   2.0000     -10.248057      -278.8638 
   6   2.0000     -10.247712      -278.8544 
   7   2.0000     -10.212325      -277.8915 
   8   2.0000     -10.212308      -277.8910 
   9   2.0000     -10.202456      -277.6229 
  10   2.0000     -10.201983      -277.6101 
  11   2.0000      -8.037409      -218.7090 
  12   2.0000      -8.000276      -217.6986 
  13   2.0000      -8.000233      -217.6974 
  14   2.0000      -6.002598      -163.3390 
  15   2.0000      -5.996423      -163.1710 
  16   2.0000      -5.994201      -163.1105 
  17   2.0000      -5.965459      -162.3284 
  18   2.0000      -5.965433      -162.3277 
  19   2.0000      -5.959100      -162.1554 
  20   2.0000      -5.959057      -162.1542 
  21   2.0000      -5.955634      -162.0610 
  22   2.0000      -5.955623      -162.0607 
  23   2.0000      -0.960760       -26.1436 
  24   2.0000      -0.904999       -24.6263 
  25   2.0000      -0.893829       -24.3223 
  26   2.0000      -0.815849       -22.2004 
  27   2.0000      -0.798080       -21.7169 
  28   2.0000      -0.743135       -20.2217 
  29   2.0000      -0.717627       -19.5276 
  30   2.0000      -0.635337       -17.2884 
  31   2.0000      -0.611614       -16.6429 
  32   2.0000      -0.609274       -16.5792 
  33   2.0000      -0.517585       -14.0842 
  34   2.0000      -0.504942       -13.7402 
  35   2.0000      -0.483088       -13.1455 
  36   2.0000      -0.457316       -12.4442 
  37   2.0000      -0.428394       -11.6572 
  38   2.0000      -0.428030       -11.6473 
  39   2.0000      -0.395602       -10.7649 
  40   2.0000      -0.394872       -10.7450 
  41   2.0000      -0.387674       -10.5491 
  42   2.0000      -0.370422       -10.0797 
  43   2.0000      -0.368257       -10.0208 
  44   2.0000      -0.364533        -9.9195 
  45   2.0000      -0.318436        -8.6651 
  46   2.0000      -0.317975        -8.6525 
  47   2.0000      -0.293053        -7.9744 
  48   2.0000      -0.286190        -7.7876 
  49   2.0000      -0.238594        -6.4925 
  50   2.0000      -0.208003        -5.6601 
  51   0.0000      -0.092530        -2.5179 
  52   0.0000      -0.035378        -0.9627 
  53   0.0000      -0.032945        -0.8965 
  54   0.0000      -0.023538        -0.6405 
  55   0.0000      -0.015353        -0.4178 
  56   0.0000       0.001124         0.0306 
  57   0.0000       0.082596         2.2476 
  58   0.0000       0.085026         2.3137 
  59   0.0000       0.122064         3.3215 
  60   0.0000       0.123524         3.3613 
  61   0.0000       0.127381         3.4662 
  62   0.0000       0.132335         3.6010 
  63   0.0000       0.167619         4.5611 
  64   0.0000       0.176929         4.8145 
  65   0.0000       0.184246         5.0136 
  66   0.0000       0.252191         6.8625 
  67   0.0000       0.260595         7.0912 
  68   0.0000       0.289306         7.8724 
  69   0.0000       0.290856         7.9146 
  70   0.0000       0.305041         8.3006 
  71   0.0000       0.330342         8.9891 
  72   0.0000       0.333191         9.0666 
  73   0.0000       0.357010         9.7147 
  74   0.0000       0.365397         9.9430 
  75   0.0000       0.369164        10.0455 
  76   0.0000       0.371716        10.1149 
  77   0.0000       0.381119        10.3708 
  78   0.0000       0.396361        10.7855 
  79   0.0000       0.423517        11.5245 
  80   0.0000       0.444574        12.0975 
  81   0.0000       0.514415        13.9979 
  82   0.0000       0.514713        14.0061 
  83   0.0000       0.529139        14.3986 
  84   0.0000       0.556881        15.1535 
  85   0.0000       0.566912        15.4265 
  86   0.0000       0.575938        15.6721 
  87   0.0000       0.583574        15.8798 
  88   0.0000       0.589115        16.0306 
  89   0.0000       0.596333        16.2270 
  90   0.0000       0.607708        16.5366 
  91   0.0000       0.613319        16.6893 
  92   0.0000       0.621869        16.9219 
  93   0.0000       0.625956        17.0331 
  94   0.0000       0.676470        18.4077 
  95   0.0000       0.682138        18.5619 
  96   0.0000       0.689510        18.7625 
  97   0.0000       0.690345        18.7853 
  98   0.0000       0.699879        19.0447 
  99   0.0000       0.715742        19.4763 
 100   0.0000       0.740652        20.1542 
 101   0.0000       0.773516        21.0484 
 102   0.0000       0.791874        21.5480 
 103   0.0000       0.815026        22.1780 
 104   0.0000       0.823200        22.4004 
 105   0.0000       0.836297        22.7568 
 106   0.0000       0.841430        22.8965 
 107   0.0000       0.860798        23.4235 
 108   0.0000       0.876253        23.8441 
 109   0.0000       0.897819        24.4309 
 110   0.0000       0.904696        24.6180 
 111   0.0000       0.918014        24.9804 
 112   0.0000       0.928774        25.2732 
 113   0.0000       0.937258        25.5041 
 114   0.0000       0.937864        25.5206 
 115   0.0000       0.938014        25.5246 
 116   0.0000       0.981483        26.7075 
 117   0.0000       0.983498        26.7623 
 118   0.0000       0.999892        27.2084 
 119   0.0000       1.057556        28.7776 
 120   0.0000       1.058537        28.8042 
 121   0.0000       1.078344        29.3432 
 122   0.0000       1.090320        29.6691 
 123   0.0000       1.096466        29.8364 
 124   0.0000       1.134477        30.8707 
 125   0.0000       1.176076        32.0026 
 126   0.0000       1.211094        32.9555 
 127   0.0000       1.224904        33.3313 
 128   0.0000       1.237186        33.6655 
 129   0.0000       1.323700        36.0197 
 130   0.0000       1.400879        38.1199 
 131   0.0000       1.401022        38.1238 
 132   0.0000       1.405087        38.2343 
 133   0.0000       1.432296        38.9748 
 134   0.0000       1.462917        39.8080 
 135   0.0000       1.471173        40.0327 
 136   0.0000       1.472739        40.0753 
 137   0.0000       1.521816        41.4107 
 138   0.0000       1.551523        42.2191 
 139   0.0000       1.738965        47.3196 
 140   0.0000       1.744067        47.4585 
 141   0.0000       1.745623        47.5008 
 142   0.0000       1.780298        48.4444 
 143   0.0000       1.788542        48.6687 
 144   0.0000       1.822566        49.5946 
 145   0.0000       1.842957        50.1494 
 146   0.0000       1.853731        50.4426 
 147   0.0000       1.861794        50.6620 
 148   0.0000       1.887242        51.3545 
 149   0.0000       1.942551        52.8595 
 150   0.0000       1.971197        53.6390 
 151   0.0000       2.055844        55.9423 
 152   0.0000       2.068124        56.2765 
 153   0.0000       2.109199        57.3942 
 154   0.0000       2.115512        57.5660 
 155   0.0000       2.132450        58.0269 
 156   0.0000       2.151763        58.5525 
 157   0.0000       2.247470        61.1568 
 158   0.0000       2.252157        61.2843 
 159   0.0000       2.280201        62.0474 
 160   0.0000       2.292338        62.3777 
 161   0.0000       2.308914        62.8287 
 162   0.0000       2.366075        64.3842 
 163   0.0000       2.368608        64.4531 
 164   0.0000       2.523291        68.6623 
 165   0.0000       2.551168        69.4208 
 166   0.0000       2.612255        71.0831 
 167   0.0000       2.653953        72.2177 
 168   0.0000       2.687821        73.1393 
 169   0.0000       2.712612        73.8139 
 170   0.0000       2.723457        74.1090 
 171   0.0000       2.783215        75.7351 
 172   0.0000       3.006163        81.8019 
 173   0.0000       3.335777        90.7711 
------------------
MOLECULAR ORBITALS
------------------
                      0         1         2         3         4         5   
                 -88.97343 -88.92932 -88.92931 -14.39327 -14.39325 -10.24806
                   2.00000   2.00000   2.00000   2.00000   2.00000   2.00000
                  --------  --------  --------  --------  --------  --------
  0C   1s        -0.000018  0.000020 -0.000033  0.000000  0.000066 -0.695108
  0C   2s        -0.000183  0.000223 -0.000043 -0.000105  0.000504 -0.024906
  0C   1pz       -0.000000  0.000004 -0.000008  0.000015 -0.000014 -0.000076
  0C   1px        0.000036  0.000125 -0.000022  0.000194 -0.000201  0.000028
  0C   1py       -0.000018 -0.000012 -0.000097  0.000094 -0.000077 -0.000997
  0C   3s         0.000858 -0.004773  0.001082 -0.001041 -0.003594  0.016923
  0C   2pz        0.000012  0.000125  0.000089 -0.000019  0.000219  0.000206
  0C   2px       -0.000282 -0.003328 -0.000274 -0.001013  0.001859 -0.000462
  0C   2py        0.000291  0.003282  0.001287  0.000262  0.001899  0.002888
  0C   1dz2      -0.000022 -0.000047 -0.000149  0.000003  0.000113 -0.000114
  0C   1dxz       0.000001 -0.000011 -0.000002 -0.000005 -0.000008 -0.000038
  0C   1dyz       0.000001 -0.000009  0.000008 -0.000006 -0.000016  0.000048
  0C   1dx2y2     0.000017  0.000079  0.000065  0.000031  0.000003 -0.000576
  0C   1dxy      -0.000012 -0.000221 -0.000188 -0.000073 -0.000008 -0.000305
  1C   1s        -0.000018 -0.000017 -0.000035 -0.000037 -0.000054 -0.712215
  1C   2s        -0.000183 -0.000219 -0.000060 -0.000374 -0.000353 -0.025571
  1C   1pz        0.000003 -0.000006  0.000006  0.000002  0.000001  0.000076
  1C   1px        0.000036 -0.000123 -0.000035  0.000277  0.000054 -0.000002
  1C   1py        0.000019 -0.000022  0.000095 -0.000114 -0.000008  0.000978
  1C   3s         0.000858  0.004678  0.001438  0.001203  0.003543  0.017615
  1C   2pz       -0.000034  0.000393 -0.000080 -0.000011  0.000092 -0.000233
  1C   2px       -0.000273  0.003229  0.000010 -0.001922 -0.001000 -0.000368
  1C   2py       -0.000298  0.003455 -0.001036  0.000822  0.001682 -0.002823
  1C   1dz2      -0.000022  0.000055 -0.000143 -0.000062 -0.000095 -0.000091
  1C   1dxz       0.000003 -0.000025  0.000025  0.000009  0.000002  0.000006
  1C   1dyz       0.000002 -0.000011  0.000022  0.000009  0.000012  0.000067
  1C   1dx2y2     0.000016 -0.000070  0.000049  0.000020 -0.000018 -0.000568
  1C   1dxy       0.000013 -0.000239  0.000172  0.000056 -0.000050  0.000278
  2C   1s        -0.000000 -0.000029  0.000007 -0.000013  0.000007 -0.003801
  2C   2s        -0.000010 -0.000148  0.000064 -0.000049 -0.000031  0.001089
  2C   1pz        0.000000 -0.000005  0.000001 -0.000003  0.000007 -0.000070
  2C   1px       -0.000002 -0.000120 -0.000061 -0.000153  0.000212 -0.000732
  2C   1py        0.000002 -0.000005  0.000042  0.000041 -0.000013 -0.000532
  2C   3s        -0.000018  0.003810 -0.000238  0.001229 -0.002914 -0.005143
  2C   2pz        0.000004 -0.000182 -0.000001 -0.000048 -0.000026  0.000138
  2C   2px        0.000231  0.001075  0.001317  0.000737 -0.002370  0.001446
  2C   2py       -0.000058 -0.002884 -0.000670 -0.000981  0.000849  0.001053
  2C   1dz2       0.000002 -0.000039  0.000015 -0.000029  0.000018 -0.000389
  2C   1dxz      -0.000001  0.000005 -0.000003  0.000001  0.000009  0.000100
  2C   1dyz       0.000000  0.000006 -0.000000  0.000001  0.000007  0.000050
  2C   1dx2y2    -0.000010  0.000007 -0.000024  0.000021 -0.000043  0.000405
  2C   1dxy      -0.000005  0.000027 -0.000008 -0.000021  0.000151  0.000740
  3C   1s        -0.000000  0.000028  0.000009 -0.000014  0.000002 -0.003896
  3C   2s        -0.000010  0.000143  0.000075 -0.000022  0.000053  0.001111
  3C   1pz       -0.000000  0.000005 -0.000005 -0.000013 -0.000003  0.000011
  3C   1px       -0.000002  0.000124 -0.000050 -0.000246 -0.000087 -0.000765
  3C   1py       -0.000002  0.000001 -0.000044 -0.000047  0.000011  0.000520
  3C   3s        -0.000018 -0.003781 -0.000524  0.002676  0.001687 -0.005326
  3C   2pz        0.000014 -0.000271  0.000085  0.000178  0.000072 -0.000026
  3C   2px        0.000229 -0.001076  0.001217  0.001918  0.001517  0.001496
  3C   2py        0.000064 -0.002956  0.000483  0.001341  0.000174 -0.001083
  3C   1dz2       0.000002  0.000038  0.000018 -0.000033  0.000003 -0.000409
  3C   1dxz      -0.000000 -0.000001 -0.000002  0.000012  0.000009 -0.000012
  3C   1dyz       0.000001 -0.000004 -0.000000  0.000006  0.000003 -0.000009
  3C   1dx2y2    -0.000010 -0.000007 -0.000025  0.000036  0.000017  0.000459
  3C   1dxy       0.000004  0.000027  0.000008  0.000105  0.000113 -0.000735
  4C   1s        -0.000001  0.000031  0.000004  0.000008 -0.000032  0.000099
  4C   2s        -0.000008  0.000200  0.000005  0.000033 -0.000197  0.000266
  4C   1pz        0.000001  0.000001  0.000003 -0.000001  0.000000 -0.000009
  4C   1px        0.000011  0.000031  0.000050  0.000082 -0.000038 -0.000216
  4C   1py        0.000007 -0.000008  0.000009 -0.000053  0.000020 -0.000008
  4C   3s        -0.000170 -0.003735 -0.001084 -0.001131  0.002652  0.000440
  4C   2pz       -0.000007  0.000117 -0.000014 -0.000009  0.000001  0.000010
  4C   2px       -0.000000  0.002109  0.000270  0.000136 -0.001799  0.000022
  4C   2py       -0.000094  0.000453 -0.000322 -0.000181  0.000917  0.000117
  4C   1dz2      -0.000002  0.000046  0.000005  0.000018 -0.000065  0.000063
  4C   1dxz       0.000000 -0.000001 -0.000000 -0.000000  0.000000 -0.000003
  4C   1dyz       0.000000 -0.000005  0.000000  0.000000  0.000004 -0.000014
  4C   1dx2y2     0.000000 -0.000005 -0.000008 -0.000023  0.000032  0.000070
  4C   1dxy       0.000001  0.000028  0.000003  0.000023 -0.000066 -0.000014
  5C   1s        -0.000001 -0.000031  0.000001  0.000024  0.000022  0.000096
  5C   2s        -0.000008 -0.000200 -0.000010  0.000140  0.000142  0.000260
  5C   1pz       -0.000000 -0.000002  0.000001  0.000008 -0.000002 -0.000008
  5C   1px        0.000011 -0.000034  0.000048  0.000087 -0.000016 -0.000217
  5C   1py       -0.000007 -0.000008 -0.000008  0.000057 -0.000014  0.000001
  5C   3s        -0.000170  0.003806 -0.000799 -0.002445 -0.001528  0.000540
  5C   2pz        0.000007 -0.000054  0.000032  0.000098  0.000107 -0.000009
  5C   2px       -0.000004 -0.002137  0.000099  0.001119  0.001377 -0.000031
  5C   2py        0.000094  0.000372  0.000358  0.000702  0.000684 -0.000095
  5C   1dz2      -0.000002 -0.000046  0.000001  0.000051  0.000042  0.000063
  5C   1dxz       0.000000  0.000005 -0.000000 -0.000009 -0.000006 -0.000000
  5C   1dyz       0.000000  0.000007  0.000000 -0.000007 -0.000007 -0.000013
  5C   1dx2y2     0.000000  0.000004 -0.000007 -0.000034 -0.000011  0.000070
  5C   1dxy      -0.000001  0.000028 -0.000001 -0.000058 -0.000041  0.000019
  6S   1s        -0.000036  0.677662  0.730740 -0.000012 -0.000005  0.000032
  6S   2s         0.000025  0.008491  0.009173 -0.000026 -0.000029 -0.000059
  6S   1pz        0.000000 -0.000010 -0.000009 -0.000003  0.000001  0.000002
  6S   1px        0.000010  0.000000 -0.000025 -0.000008 -0.000057 -0.000110
  6S   1py       -0.000001 -0.000130 -0.000108 -0.000033  0.000038  0.000087
  6S   3s         0.000173 -0.003627 -0.003584 -0.000569 -0.000062  0.000690
  6S   2pz       -0.000003  0.000032  0.000025  0.000040 -0.000037 -0.000008
  6S   2px       -0.000089 -0.000164  0.000024  0.000438 -0.000303  0.000190
  6S   2py        0.000002  0.000495  0.000313  0.000297 -0.000332 -0.000202
  6S   4s        -0.000720  0.000117  0.000924 -0.001894  0.005356 -0.005431
  6S   3pz        0.000037  0.000022  0.000014  0.000114 -0.000346  0.000102
  6S   3px       -0.000133  0.000132  0.000262  0.001776 -0.004485 -0.002856
  6S   3py        0.000548  0.000221  0.000048  0.000581 -0.002220  0.002745
  6S   1dz2       0.000065  0.000163  0.000152  0.000055 -0.000213 -0.000103
  6S   1dxz      -0.000006 -0.000013 -0.000016 -0.000016  0.000022 -0.000023
  6S   1dyz      -0.000009 -0.000004 -0.000001 -0.000011  0.000042 -0.000001
  6S   1dx2y2    -0.000006 -0.000195 -0.000232 -0.000029 -0.000096 -0.000004
  6S   1dxy      -0.000014  0.000069  0.000041 -0.000142  0.000147 -0.000382
  7N   1s        -0.000044 -0.000027 -0.000041 -0.460388  0.882474 -0.000024
  7N   2s        -0.000279 -0.000161 -0.000333 -0.014883  0.027866 -0.000279
  7N   1pz       -0.000000 -0.000002  0.000001  0.000029 -0.000055  0.000015
  7N   1px       -0.000031 -0.000033 -0.000012 -0.000678  0.001046 -0.000017
  7N   1py        0.000014 -0.000004  0.000013  0.000719 -0.001233  0.000207
  7N   3s         0.000733  0.000406  0.001032  0.010474 -0.018169  0.000643
  7N   2pz       -0.000073  0.000049  0.000023 -0.000093  0.000051 -0.000071
  7N   2px       -0.000212  0.000810  0.000700  0.001859 -0.002594  0.000441
  7N   2py       -0.000837  0.000224 -0.000048 -0.002135  0.001955 -0.001131
  7N   1dz2      -0.000246 -0.000157 -0.000184 -0.000194  0.000223 -0.000079
  7N   1dxz       0.000032  0.000028  0.000031  0.000013 -0.000033  0.000003
  7N   1dyz       0.000064  0.000004  0.000009  0.000036 -0.000023  0.000001
  7N   1dx2y2    -0.000234  0.000273  0.000264 -0.000103 -0.000164  0.000090
  7N   1dxy       0.000310  0.000094  0.000114  0.000047 -0.000153 -0.000080
  8S   1s         0.996608 -0.000002  0.000059  0.000010 -0.000003 -0.000018
  8S   2s         0.012517 -0.000001  0.000036  0.000010 -0.000003 -0.000022
  8S   1pz        0.000007 -0.000001  0.000000  0.000004  0.000005  0.000002
  8S   1px        0.000179  0.000000  0.000003  0.000057 -0.000019  0.000052
  8S   1py        0.000002 -0.000011 -0.000000  0.000024  0.000074  0.000000
  8S   3s        -0.004758 -0.000009  0.000242  0.000058 -0.000018 -0.000682
  8S   2pz       -0.000024  0.000008  0.000001 -0.000019  0.000052 -0.000015
  8S   2px       -0.000604 -0.000002  0.000010 -0.000806  0.000244 -0.000383
  8S   2py       -0.000008  0.000105  0.000004  0.000161  0.000550 -0.000001
  8S   4s         0.001499  0.000023 -0.000600 -0.006465  0.002032 -0.000048
  8S   3pz        0.000004  0.000030 -0.000021 -0.000059  0.000253  0.000003
  8S   3px        0.000089  0.000014 -0.000549 -0.003185  0.000952  0.000082
  8S   3py        0.000001  0.000385  0.000007  0.000831  0.002788 -0.000000
  8S   1dz2       0.000246 -0.000003  0.000084  0.000227 -0.000071  0.000038
  8S   1dxz      -0.000007  0.000000 -0.000007 -0.000024  0.000013 -0.000001
  8S   1dyz      -0.000052  0.000000 -0.000009 -0.000010  0.000006 -0.000008
  8S   1dx2y2     0.000243  0.000001 -0.000033 -0.000254  0.000078  0.000032
  8S   1dxy       0.000008 -0.000003 -0.000001  0.000015  0.000069  0.000003
  9N   1s        -0.000044  0.000030 -0.000039 -0.882500 -0.460337 -0.000025
  9N   2s        -0.000279  0.000185 -0.000320 -0.028150 -0.014338 -0.000283
  9N   1pz       -0.000002  0.000001 -0.000001 -0.000146 -0.000065 -0.000017
  9N   1px       -0.000030  0.000034 -0.000009 -0.001112 -0.000450 -0.000010
  9N   1py       -0.000015 -0.000002 -0.000014 -0.001325 -0.000611 -0.000210
  9N   3s         0.000733 -0.000483  0.000999  0.018986  0.008908  0.000658
  9N   2pz        0.000055 -0.000018  0.000031  0.000342  0.000073  0.000106
  9N   2px       -0.000239 -0.000867  0.000634  0.002915  0.001051  0.000414
  9N   2py        0.000831  0.000197  0.000081  0.002947  0.000410  0.001162
  9N   1dz2      -0.000249  0.000171 -0.000173 -0.000288 -0.000073 -0.000079
  9N   1dxz      -0.000017 -0.000016  0.000014  0.000010  0.000006  0.000015
  9N   1dyz       0.000038  0.000003  0.000000  0.000033 -0.000009  0.000007
  9N   1dx2y2    -0.000216 -0.000297  0.000249  0.000017  0.000199  0.000087
  9N   1dxy      -0.000325  0.000086 -0.000094 -0.000128 -0.000088  0.000086
 10S   1s        -0.000036 -0.730732  0.677671 -0.000007  0.000011  0.000032
 10S   2s         0.000025 -0.009158  0.008508 -0.000005  0.000039 -0.000060
 10S   1pz        0.000001 -0.000010  0.000006  0.000005  0.000003 -0.000011
 10S   1px        0.000010  0.000006 -0.000028  0.000025  0.000051 -0.000110
 10S   1py        0.000002 -0.000137  0.000097  0.000050  0.000014 -0.000091
 10S   3s         0.000173  0.003886 -0.003301 -0.000432  0.000377  0.000705
 10S   2pz       -0.000004  0.000046 -0.000020 -0.000011 -0.000008  0.000023
 10S   2px       -0.000089  0.000145  0.000045  0.000546  0.000001  0.000186
 10S   2py       -0.000004  0.000522 -0.000274 -0.000419 -0.000102  0.000202
 10S   4s        -0.000720 -0.000186  0.000913 -0.004618 -0.003309 -0.005561
 10S   3pz       -0.000047  0.000011  0.000008  0.000031 -0.000005 -0.000333
 10S   3px       -0.000115 -0.000159  0.000252  0.004077  0.002708 -0.002820
 10S   3py       -0.000552  0.000220 -0.000025 -0.001642 -0.001418 -0.002885
 10S   1dz2       0.000065 -0.000173  0.000139  0.000169  0.000144 -0.000102
 10S   1dxz      -0.000004  0.000026 -0.000021  0.000005 -0.000003  0.000036
 10S   1dyz      -0.000008  0.000011 -0.000004 -0.000016 -0.000025  0.000031
 10S   1dx2y2    -0.000007  0.000207 -0.000214  0.000019  0.000092 -0.000022
 10S   1dxy       0.000014  0.000082 -0.000047  0.000204  0.000046  0.000386
 11H   1s         0.000016  0.000166  0.000126  0.000126 -0.000194  0.000129
 11H   2s         0.000003  0.000703  0.000190  0.000021  0.000704  0.000342
 12H   1s         0.000012 -0.000044  0.000043  0.000050 -0.000004 -0.000013
 12H   2s         0.000038 -0.000454  0.000058  0.000070  0.000167 -0.000225
 13H   1s         0.000012  0.000041  0.000046  0.000044 -0.000025 -0.000012
 13H   2s         0.000038  0.000448  0.000092 -0.000038 -0.000177 -0.000212
 14H   1s         0.000016 -0.000175  0.000113  0.000214  0.000087  0.000131
 14H   2s         0.000003 -0.000715  0.000137 -0.000386 -0.000589  0.000342
                      6         7         8         9        10        11   
                 -10.24771 -10.21233 -10.21231 -10.20246 -10.20198  -8.03741
                   2.00000   2.00000   2.00000   2.00000   2.00000   2.00000
                  --------  --------  --------  --------  --------  --------
  0C   1s         0.712223  0.004290 -0.003565  0.000156  0.000018 -0.000082
  0C   2s         0.027668  0.001635 -0.001257 -0.000214  0.000409 -0.000846
  0C   1pz       -0.000062  0.000074 -0.000050 -0.000003 -0.000003 -0.000000
  0C   1px       -0.000033  0.000893 -0.000877 -0.000233 -0.000017  0.000174
  0C   1py       -0.000775  0.000503 -0.000201  0.000080 -0.000035 -0.000090
  0C   3s        -0.028707 -0.014784  0.003529 -0.001249 -0.007105  0.004127
  0C   2pz        0.000234 -0.000011  0.000132 -0.000033 -0.000040  0.000054
  0C   2px       -0.000143 -0.007340  0.002625 -0.000102 -0.003898 -0.001419
  0C   2py        0.003082  0.003529  0.000380 -0.000379  0.001431  0.001400
  0C   1dz2      -0.000822 -0.000466  0.000390 -0.000088  0.000028 -0.000089
  0C   1dxz       0.000038  0.000115 -0.000086  0.000006 -0.000004  0.000005
  0C   1dyz       0.000199  0.000058 -0.000054  0.000018  0.000002  0.000004
  0C   1dx2y2    -0.001000  0.000484 -0.000303 -0.000063 -0.000071  0.000076
  0C   1dxy       0.000264  0.000833 -0.000621  0.000030  0.000012 -0.000049
  1C   1s        -0.695116 -0.003687 -0.004184  0.000156 -0.000020 -0.000082
  1C   2s        -0.027054 -0.001421 -0.001494 -0.000219 -0.000407 -0.000846
  1C   1pz       -0.000060  0.000005 -0.000020 -0.000016 -0.000002  0.000014
  1C   1px        0.000058 -0.000762 -0.001013 -0.000230  0.000021  0.000171
  1C   1py       -0.000798  0.000446  0.000250 -0.000086 -0.000034  0.000094
  1C   3s         0.028287  0.014062  0.005770 -0.001160  0.007120  0.004127
  1C   2pz        0.000247  0.000550  0.000165  0.000028  0.000268 -0.000165
  1C   2px        0.000052  0.006730  0.003720 -0.000066  0.003852 -0.001374
  1C   2py        0.003154  0.003722  0.000267  0.000395  0.001527 -0.001436
  1C   1dz2       0.000827  0.000408  0.000465 -0.000089 -0.000027 -0.000088
  1C   1dxz       0.000008  0.000009  0.000009  0.000001  0.000006  0.000013
  1C   1dyz      -0.000177  0.000009 -0.000002  0.000015 -0.000001  0.000008
  1C   1dx2y2     0.000996 -0.000473 -0.000417 -0.000060  0.000071  0.000073
  1C   1dxy       0.000323  0.000705  0.000724 -0.000034  0.000016  0.000053
  2C   1s         0.003969 -0.755894  0.646834 -0.016449 -0.015516 -0.000001
  2C   2s        -0.000913 -0.028136  0.023289 -0.002169 -0.002111 -0.000053
  2C   1pz        0.000053  0.000070 -0.000043  0.000014  0.000000  0.000000
  2C   1px        0.000661  0.000218 -0.000195 -0.000947 -0.000732 -0.000023
  2C   1py        0.000351  0.000798 -0.000459  0.000649  0.000370  0.000017
  2C   3s         0.007613  0.027972 -0.017353  0.006601  0.014322  0.000042
  2C   2pz       -0.000241 -0.000652  0.000187 -0.000128 -0.000412  0.000018
  2C   2px       -0.000608 -0.000438  0.000548  0.001605  0.001778  0.001221
  2C   2py       -0.002801 -0.008190  0.002135 -0.002452 -0.006198 -0.000375
  2C   1dz2       0.000504  0.000387 -0.000472  0.000410  0.000489  0.000004
  2C   1dxz      -0.000103 -0.000039  0.000044  0.000007 -0.000006 -0.000004
  2C   1dyz      -0.000060 -0.000022  0.000037  0.000011 -0.000004  0.000002
  2C   1dx2y2    -0.000443 -0.000380  0.000337 -0.000501 -0.000499 -0.000043
  2C   1dxy      -0.000662  0.000029 -0.000018  0.000690  0.000601 -0.000025
  3C   1s        -0.003875  0.646950  0.755795 -0.016248  0.015716 -0.000001
  3C   2s         0.000887  0.024203  0.027354 -0.002142  0.002137 -0.000053
  3C   1pz       -0.000000  0.000047  0.000034 -0.000087  0.000059 -0.000002
  3C   1px       -0.000653 -0.000208 -0.000245 -0.000917  0.000731 -0.000022
  3C   1py        0.000321  0.000713  0.000570 -0.000668  0.000398 -0.000018
  3C   3s        -0.007486 -0.024957 -0.021464  0.006421 -0.014404  0.000042
  3C   2pz       -0.000188 -0.000578 -0.000232  0.000246 -0.000549  0.000078
  3C   2px        0.000661  0.000598  0.000717  0.001505 -0.001597  0.001209
  3C   2py       -0.002758 -0.007750 -0.003357  0.002414 -0.006272  0.000406
  3C   1dz2      -0.000501 -0.000309 -0.000526  0.000396 -0.000488  0.000005
  3C   1dxz       0.000004  0.000036  0.000054 -0.000099  0.000100 -0.000000
  3C   1dyz       0.000007  0.000018  0.000042 -0.000046  0.000054  0.000004
  3C   1dx2y2     0.000470  0.000321  0.000390 -0.000455  0.000469 -0.000045
  3C   1dxy      -0.000623  0.000041  0.000039 -0.000706  0.000632  0.000022
  4C   1s         0.000151 -0.016686  0.014994  0.707812  0.699140 -0.000001
  4C   2s         0.000256  0.000997 -0.000863  0.024551  0.027342 -0.000029
  4C   1pz       -0.000001  0.000017  0.000016  0.000025 -0.000126  0.000004
  4C   1px        0.000052 -0.000827  0.000855 -0.000573 -0.000608  0.000057
  4C   1py       -0.000042  0.000630 -0.000219  0.000611 -0.001323  0.000029
  4C   3s        -0.004158 -0.013554  0.003626 -0.014326 -0.033334 -0.000964
  4C   2pz        0.000163  0.000424 -0.000058  0.000011  0.000787 -0.000035
  4C   2px        0.002305  0.006360 -0.002089  0.001966  0.007569  0.000056
  4C   2py        0.000954  0.002289  0.000292 -0.000845  0.006359 -0.000482
  4C   1dz2       0.000011 -0.000489  0.000366 -0.000029 -0.000906 -0.000005
  4C   1dxz      -0.000002 -0.000013  0.000014  0.000011 -0.000008  0.000001
  4C   1dyz       0.000003  0.000000 -0.000002 -0.000054  0.000183  0.000001
  4C   1dx2y2    -0.000059  0.000435 -0.000286  0.000641 -0.000983 -0.000002
  4C   1dxy       0.000011 -0.000808  0.000643 -0.000202 -0.000409  0.000008
  5C   1s        -0.000153  0.014166  0.017385  0.698992 -0.707959 -0.000001
  5C   2s        -0.000262 -0.000852 -0.001007  0.024206 -0.027647 -0.000029
  5C   1pz       -0.000005  0.000073  0.000064 -0.000071 -0.000075  0.000000
  5C   1px       -0.000045  0.000666  0.000962 -0.000546  0.000658  0.000058
  5C   1py       -0.000043  0.000606  0.000339 -0.000642 -0.001299 -0.000027
  5C   3s         0.004147  0.012831  0.005676 -0.013907  0.033511 -0.000964
  5C   2pz       -0.000021 -0.000067 -0.000119  0.000147  0.000175  0.000039
  5C   2px       -0.002335 -0.006033 -0.003047  0.001841 -0.007795  0.000040
  5C   2py        0.000896  0.002150 -0.000014  0.000973  0.006147  0.000483
  5C   1dz2      -0.000013  0.000419  0.000429 -0.000016  0.000902 -0.000005
  5C   1dxz       0.000004 -0.000097 -0.000101  0.000044 -0.000049 -0.000000
  5C   1dyz      -0.000002 -0.000058 -0.000065 -0.000039 -0.000213  0.000000
  5C   1dx2y2     0.000057 -0.000345 -0.000305  0.000640  0.000997 -0.000002
  5C   1dxy       0.000014 -0.000715 -0.000775  0.000234 -0.000345 -0.000009
  6S   1s        -0.000029 -0.000001 -0.000005  0.000002 -0.000005 -0.000043
  6S   2s         0.000035 -0.000016 -0.000032 -0.000007 -0.000029  0.000355
  6S   1pz        0.000002 -0.000000  0.000000 -0.000000 -0.000001  0.000001
  6S   1px        0.000105  0.000015 -0.000000 -0.000019  0.000002  0.000051
  6S   1py       -0.000026 -0.000010  0.000006  0.000006 -0.000016 -0.000011
  6S   3s        -0.000630 -0.000070 -0.000267  0.000051 -0.000260  0.000962
  6S   2pz       -0.000019  0.000004 -0.000004  0.000001  0.000008 -0.000017
  6S   2px       -0.000101 -0.000113 -0.000050  0.000118 -0.000061 -0.000466
  6S   2py       -0.000200  0.000110 -0.000024 -0.000042  0.000133  0.000009
  6S   4s         0.005409 -0.001701  0.000969  0.000322 -0.000571 -0.003867
  6S   3pz       -0.000123  0.000006 -0.000004  0.000004  0.000034  0.000205
  6S   3px        0.002312 -0.001368  0.000972  0.000267  0.000246 -0.000378
  6S   3py       -0.002742  0.000756 -0.000542 -0.000081  0.000310  0.002833
  6S   1dz2       0.000123  0.000069 -0.000081 -0.000021  0.000009  0.000303
  6S   1dxz       0.000004 -0.000006  0.000005  0.000001  0.000001 -0.000031
  6S   1dyz       0.000008 -0.000008  0.000010 -0.000000 -0.000005 -0.000045
  6S   1dx2y2    -0.000186 -0.000023  0.000009  0.000028  0.000047 -0.000008
  6S   1dxy       0.000251 -0.000007 -0.000013 -0.000020 -0.000001 -0.000129
  7N   1s         0.000019  0.000003 -0.000000 -0.000000 -0.000003 -0.000123
  7N   2s         0.000187  0.000088 -0.000047 -0.000004 -0.000045 -0.000898
  7N   1pz       -0.000010  0.000007 -0.000005 -0.000001 -0.000001 -0.000011
  7N   1px        0.000015  0.000045 -0.000032  0.000001 -0.000007 -0.000208
  7N   1py       -0.000132  0.000065 -0.000054 -0.000012 -0.000014 -0.000033
  7N   3s        -0.000615 -0.000294  0.000160  0.000054  0.000256  0.002654
  7N   2pz        0.000048 -0.000037  0.000032  0.000006  0.000011 -0.000306
  7N   2px       -0.000436 -0.000234  0.000149  0.000019  0.000146 -0.000757
  7N   2py        0.000832 -0.000359  0.000335  0.000068  0.000064 -0.003563
  7N   1dz2       0.000033 -0.000004  0.000007  0.000002  0.000007 -0.000904
  7N   1dxz      -0.000000  0.000001 -0.000000  0.000000 -0.000000  0.000116
  7N   1dyz       0.000004  0.000000 -0.000001 -0.000000 -0.000002  0.000229
  7N   1dx2y2    -0.000079  0.000002  0.000002  0.000001  0.000009 -0.000809
  7N   1dxy       0.000065  0.000003  0.000003  0.000004  0.000000  0.001104
  8S   1s         0.000000 -0.000000  0.000002  0.000001 -0.000000  0.280800
  8S   2s         0.000000  0.000000 -0.000002  0.000001 -0.000000 -1.026918
  8S   1pz       -0.000004  0.000001 -0.000000 -0.000000 -0.000000 -0.000372
  8S   1px        0.000000  0.000000 -0.000005 -0.000003  0.000000 -0.009343
  8S   1py       -0.000049  0.000015  0.000001 -0.000000 -0.000001 -0.000122
  8S   3s         0.000008 -0.000004  0.000056  0.000031 -0.000000 -0.038621
  8S   2pz        0.000028 -0.000009  0.000001  0.000001  0.000001 -0.000134
  8S   2px       -0.000001 -0.000002  0.000045  0.000020 -0.000000 -0.003360
  8S   2py        0.000361 -0.000113 -0.000008  0.000000  0.000012 -0.000044
  8S   4s         0.000001 -0.000028  0.000356  0.000025 -0.000000  0.011429
  8S   3pz       -0.000009 -0.000013  0.000005 -0.000000  0.000007  0.000049
  8S   3px        0.000001 -0.000009  0.000144 -0.000001 -0.000001  0.001238
  8S   3py       -0.000112 -0.000168 -0.000011  0.000001  0.000092  0.000016
  8S   1dz2       0.000000  0.000002 -0.000033 -0.000002  0.000000  0.001241
  8S   1dxz       0.000009 -0.000002  0.000001  0.000000  0.000001 -0.000034
  8S   1dyz       0.000005 -0.000002  0.000007  0.000000  0.000000 -0.000261
  8S   1dx2y2    -0.000004  0.000003 -0.000031 -0.000003 -0.000000  0.001218
  8S   1dxy       0.000121 -0.000032 -0.000004 -0.000000  0.000007  0.000042
  9N   1s        -0.000018 -0.000003 -0.000001 -0.000000  0.000003 -0.000123
  9N   2s        -0.000181 -0.000079 -0.000060 -0.000004  0.000045 -0.000898
  9N   1pz       -0.000010  0.000003  0.000003  0.000001 -0.000001 -0.000006
  9N   1px       -0.000010 -0.000041 -0.000041  0.000000  0.000008 -0.000209
  9N   1py       -0.000127  0.000055  0.000062  0.000012 -0.000014  0.000028
  9N   3s         0.000600  0.000265  0.000204  0.000051 -0.000257  0.002654
  9N   2pz        0.000079 -0.000015 -0.000022 -0.000004 -0.000001  0.000241
  9N   2px        0.000399  0.000218  0.000196  0.000019 -0.000148 -0.000871
  9N   2py        0.000815 -0.000297 -0.000382 -0.000066  0.000061  0.003542
  9N   1dz2      -0.000031  0.000003  0.000008  0.000002 -0.000007 -0.000916
  9N   1dxz       0.000010 -0.000000 -0.000001 -0.000000  0.000000 -0.000057
  9N   1dyz       0.000001 -0.000000 -0.000001 -0.000001  0.000002  0.000137
  9N   1dx2y2     0.000073 -0.000003  0.000001  0.000001 -0.000009 -0.000744
  9N   1dxy       0.000067  0.000003 -0.000003 -0.000003 -0.000000 -0.001159
 10S   1s         0.000028  0.000002 -0.000005  0.000002  0.000005 -0.000043
 10S   2s        -0.000033  0.000021 -0.000029 -0.000007  0.000029  0.000355
 10S   1pz       -0.000006 -0.000001 -0.000001 -0.000001 -0.000001  0.000003
 10S   1px       -0.000101 -0.000014 -0.000002 -0.000019 -0.000001  0.000050
 10S   1py       -0.000026 -0.000009 -0.000007 -0.000007 -0.000016  0.000013
 10S   3s         0.000613  0.000111 -0.000253  0.000054  0.000259  0.000962
 10S   2pz       -0.000012  0.000013  0.000002  0.000008  0.000013 -0.000020
 10S   2px        0.000103  0.000116 -0.000033  0.000118  0.000056 -0.000466
 10S   2py       -0.000203  0.000108  0.000040  0.000046  0.000134 -0.000021
 10S   4s        -0.005276  0.001531  0.001221  0.000329  0.000567 -0.003867
 10S   3pz       -0.000295  0.000100  0.000098  0.000017  0.000013 -0.000232
 10S   3px       -0.002155  0.001180  0.001151  0.000261 -0.000259 -0.000287
 10S   3py       -0.002732  0.000694  0.000683  0.000092  0.000302 -0.002842
 10S   1dz2      -0.000117 -0.000056 -0.000091 -0.000021 -0.000009  0.000304
 10S   1dxz       0.000034  0.000004  0.000007  0.000004 -0.000002 -0.000011
 10S   1dyz       0.000012  0.000006  0.000012  0.000002  0.000005 -0.000035
 10S   1dx2y2     0.000172  0.000021  0.000012  0.000026 -0.000047 -0.000016
 10S   1dxy       0.000251 -0.000008  0.000011  0.000021 -0.000004  0.000131
 11H   1s        -0.000075  0.001069 -0.000749 -0.000107 -0.000035  0.000089
 11H   2s        -0.000007 -0.000989  0.002312  0.000513  0.000933  0.000004
 12H   1s        -0.000062  0.000058 -0.000126 -0.001054 -0.000864  0.000060
 12H   2s        -0.000538 -0.001361  0.000563  0.002716  0.000930  0.000182
 13H   1s         0.000062 -0.000038 -0.000133 -0.001043  0.000877  0.000060
 13H   2s         0.000543  0.001258  0.000766  0.002704 -0.000964  0.000182
 14H   1s         0.000072 -0.000941 -0.000905 -0.000107  0.000036  0.000089
 14H   2s        -0.000001  0.000620  0.002437  0.000501 -0.000940  0.000004
                     12        13        14        15        16        17   
                  -8.00028  -8.00023  -6.00260  -5.99642  -5.99420  -5.96546
                   2.00000   2.00000   2.00000   2.00000   2.00000   2.00000
[...]
 7 N  dxy             0.0       0.0       0.8       0.0       0.0       0.8
 8 S  s               0.0       0.0       5.8       0.0       0.0       0.0
 8 S  px              0.0       0.0       3.4       0.0       0.0       0.0
 8 S  py              0.1       0.0       0.0       0.0       0.0       0.9
 8 S  dz2             0.0       0.0       0.9       0.0       0.0       0.0
 8 S  dx2y2           0.0       0.0       0.3       0.0       0.0       0.0
 8 S  dxy             0.1       0.0       0.0       0.0       0.0       3.2
 9 N  s               0.0       0.0       0.3       0.0       0.0       1.7
 9 N  px              0.0       0.0       2.2       0.0       0.0       4.1
 9 N  py              0.0       0.0       2.5       0.0       0.0       1.2
 9 N  dz2             0.0       0.0       0.5       0.0       0.0       2.8
 9 N  dyz             0.0       0.0       0.2       0.0       0.1       0.0
 9 N  dx2y2           0.2       0.0      33.0       0.0       0.0      28.6
 9 N  dxy             0.0       0.0       1.5       0.0       0.0       0.3
10 S  s               0.2       0.0       0.6       0.0       0.0       1.7
10 S  px              0.1       0.0       1.0       0.0       0.0       2.4
10 S  py              0.1       0.0       0.2       0.0       0.0       0.4
10 S  dz2             0.0       0.0       0.1       0.0       0.0       0.6
10 S  dxz             0.0       0.1       0.0       0.0       0.2       0.0
10 S  dx2y2           0.1       0.0       0.0       0.0       0.0       0.6
10 S  dxy             0.0       0.0       1.6       0.0       0.0       1.5

                    162       163       164       165       166       167   
                   2.51883   2.52658   2.54111   2.54205   2.61537   2.64676
                   0.00000   0.00000   0.00000   0.00000   0.00000   0.00000
                  --------  --------  --------  --------  --------  --------
 0 C  s               1.0       0.0       0.6       5.0       0.0       0.9
 0 C  px              0.3       0.2       0.3       0.6       0.0       0.1
 0 C  py              0.0       0.2       0.0       0.1       0.0       0.5
 0 C  dz2             2.6       0.0       1.2       8.5       0.3       2.0
 0 C  dxz             0.0       0.0       0.0       0.0       3.2       0.1
 0 C  dyz             0.0       0.0       0.0       0.1       9.1       0.2
 0 C  dx2y2           3.1       0.0       2.0       1.0       0.0       2.4
 0 C  dxy             0.0       0.0       0.0       1.8       0.1      18.9
 1 C  s               1.0       0.0       0.7       4.9       0.0       0.9
 1 C  px              0.3       0.2       0.3       0.6       0.0       0.1
 1 C  py              0.0       0.2       0.0       0.1       0.0       0.6
 1 C  dz2             2.6       0.0       1.2       8.4       0.1       2.1
 1 C  dxz             0.0       0.0       0.0       0.1       3.6       0.1
 1 C  dyz             0.0       0.0       0.0       0.1       8.9       0.0
 1 C  dx2y2           3.1       0.0       2.0       0.8       0.1       1.6
 1 C  dxy             0.0       0.0       0.0       1.8       0.0      19.8
 2 C  s               3.4       0.0       1.4       0.2       0.0       0.0
 2 C  px              0.0       0.0       0.1       0.3       0.0       2.2
 2 C  py              0.5       0.0       0.2       0.1       0.0       0.0
 2 C  dz2             9.8       0.1       3.1       0.0       0.1       0.0
 2 C  dxz             0.0       0.0       0.0       0.0      17.1       0.0
 2 C  dyz             0.3       0.0       0.2       0.0       0.0       0.0
 2 C  dx2y2           2.0       0.0       6.6       0.1       0.0       0.3
 2 C  dxy             0.1       0.0       0.0       5.2       0.1       0.5
 3 C  s               3.4       0.0       1.4       0.1       0.0       0.0
 3 C  px              0.0       0.0       0.1       0.3       0.0       2.2
 3 C  py              0.5       0.0       0.2       0.1       0.0       0.0
 3 C  dz2             9.9       0.1       3.1       0.0       0.1       0.0
 3 C  dxz             0.0       0.0       0.0       0.0      17.0       0.0
 3 C  dyz             0.3       0.0       0.2       0.0       0.1       0.0
 3 C  dx2y2           1.9       0.0       6.5       0.0       0.0       0.2
 3 C  dxy             0.2       0.0       0.1       5.3       0.1       0.5
 4 C  s               0.8       0.1       0.2       4.2       0.0       1.1
 4 C  px              0.2       0.0       0.0       0.2       0.0       0.2
 4 C  py              0.0       0.0       0.1       1.0       0.0       1.0
 4 C  dz2             3.1       0.6       0.8      12.4       0.1       2.6
 4 C  dxz             0.0       0.0       0.0       0.1       5.9       0.1
 4 C  dyz             0.0       0.0       0.0       0.4      13.8       0.1
 4 C  dx2y2           1.9       0.0       2.3       1.4       0.1       3.4
 4 C  dxy             0.0       0.0       0.8       5.0       0.0      11.1
 5 C  s               0.8       0.1       0.2       4.2       0.0       1.1
 5 C  px              0.2       0.0       0.0       0.3       0.0       0.2
 5 C  py              0.0       0.0       0.1       0.9       0.0       1.0
 5 C  dz2             3.1       0.6       0.7      12.6       0.4       2.5
 5 C  dxz             0.0       0.0       0.0       0.0       5.2       0.1
 5 C  dyz             0.0       0.0       0.0       0.2      14.1       0.2
 5 C  dx2y2           1.9       0.0       2.5       1.1       0.0       4.1
 5 C  dxy             0.0       0.0       0.6       5.5       0.1      10.2
 6 S  s               0.2       0.1       0.5       0.0       0.0       0.0
 6 S  px              0.9       0.7       1.0       0.1       0.0       0.3
 6 S  py              0.0       0.0       0.1       0.1       0.0       0.1
 6 S  dz2             0.1       0.2       0.3       0.1       0.0       0.0
 6 S  dx2y2           0.8       0.9       0.5       0.0       0.0       0.0
 6 S  dxy             0.1       0.0       0.0       0.3       0.0       0.6
 7 N  s               1.7       5.9       4.7       0.0       0.0       0.0
 7 N  py              0.0       1.5       0.1       0.0       0.0       0.1
 7 N  dz2             2.8       9.9       6.4       0.0       0.0       0.0
 7 N  dxz             0.2       0.2       0.2       0.0       0.0       0.0
 7 N  dyz             0.1       0.5       0.2       0.0       0.0       0.0
 7 N  dx2y2           0.9       3.1       0.9       0.0       0.0       0.6
 7 N  dxy             9.1      17.6      10.7       0.1       0.0       0.0
 8 S  s               1.0       0.0       1.9       0.0       0.0       0.0
 8 S  px              0.2       0.0       0.5       0.0       0.0       0.0
 8 S  py              0.0      10.9       0.0       0.0       0.0       0.1
 8 S  dz2             0.7       0.0       0.9       0.0       0.0       0.0
 8 S  dx2y2           2.1       0.0       2.3       0.0       0.0       0.0
 8 S  dxy             0.0       4.3       0.0       0.0       0.0       0.1
 9 N  s               1.8       5.9       4.7       0.0       0.0       0.0
 9 N  py              0.0       1.5       0.1       0.0       0.0       0.1
 9 N  dz2             3.0      10.2       6.5       0.0       0.0       0.0
 9 N  dyz             0.0       0.1       0.0       0.0       0.0       0.0
 9 N  dx2y2           1.3       2.3       1.3       0.0       0.0       0.6
 9 N  dxy             9.0      18.7      10.4       0.1       0.0       0.0
10 S  s               0.2       0.1       0.5       0.0       0.0       0.0
10 S  px              0.9       0.7       1.0       0.1       0.0       0.3
10 S  py              0.0       0.0       0.1       0.1       0.0       0.1
10 S  dz2             0.1       0.2       0.3       0.1       0.0       0.0
10 S  dx2y2           0.9       0.9       0.5       0.1       0.0       0.0
10 S  dxy             0.1       0.0       0.0       0.3       0.0       0.6
11 H  s               1.2       0.0       1.3       0.0       0.0       0.0
12 H  s               0.3       0.0       0.4       1.4       0.0       0.7
13 H  s               0.3       0.0       0.4       1.4       0.0       0.7
14 H  s               1.2       0.0       1.3       0.0       0.0       0.0

                    168       169       170       171       172       173   
                   2.69383   2.72343   2.73272   2.78389   3.02190   3.33007
                   0.00000   0.00000   0.00000   0.00000   0.00000   0.00000
                  --------  --------  --------  --------  --------  --------
 0 C  s               0.8       1.5       0.4       7.8       0.2       1.5
 0 C  px              0.5       1.8       0.4       0.2       1.1       0.1
 0 C  py              0.7       0.1       2.4       0.8       2.3       0.0
 0 C  dz2             1.6       0.4       0.0      10.0       0.3       1.3
 0 C  dyz             0.1       0.0       0.1       0.2       0.1       0.1
 0 C  dx2y2           1.2       3.4      13.6       0.7      11.1       1.2
 0 C  dxy             2.2       2.5       1.2       3.4       3.2       8.0
 1 C  s               0.8       1.5       0.4       7.8       0.2       1.5
 1 C  px              0.5       1.8       0.4       0.2       1.2       0.1
 1 C  py              0.7       0.1       2.4       0.8       2.2       0.0
 1 C  dz2             1.6       0.4       0.0       9.9       0.3       1.4
 1 C  dyz             0.0       0.0       0.1       0.3       0.2       0.0
 1 C  dx2y2           1.0       3.8      13.9       0.9      11.8       0.9
 1 C  dxy             2.4       2.2       0.8       3.1       2.5       8.4
 2 C  s               2.8       0.0       5.1       2.5       0.0       2.1
 2 C  px              0.1       3.7       0.1       0.1       3.5       0.1
 2 C  py              0.6       0.0       1.3       0.1       0.0       0.1
 2 C  dz2             5.3       0.0       4.2       3.7       0.0       1.5
 2 C  dxz             0.1       0.2       0.0       0.0       0.1       0.1
 2 C  dyz             0.0       0.0       0.1       0.1       0.0       0.0
 2 C  dx2y2          20.3       0.4       0.6       1.5       0.0      13.2
 2 C  dxy             0.4      23.8       0.3       0.2      11.9       0.1
 3 C  s               2.8       0.0       5.1       2.5       0.0       2.1
 3 C  px              0.1       3.7       0.1       0.1       3.5       0.1
 3 C  py              0.6       0.0       1.3       0.1       0.0       0.1
 3 C  dz2             5.2       0.0       4.2       3.7       0.0       1.5
 3 C  dxz             0.2       0.1       0.0       0.0       0.1       0.0
 3 C  dyz             0.0       0.1       0.1       0.1       0.0       0.0
 3 C  dx2y2          19.9       0.9       0.7       1.5       0.0      13.3
 3 C  dxy             0.8      23.3       0.3       0.3      12.0       0.0
 4 C  s               0.9       2.0       1.1       3.7       0.0       1.9
 4 C  px              1.4       1.5       0.6       0.0       1.0       0.1
 4 C  py              1.3       0.1       1.3       1.0       2.3       0.1
 4 C  dz2             1.5       0.6       2.6       4.7       0.0       1.4
 4 C  dyz             0.0       0.0       0.0       0.2       0.1       0.0
 4 C  dx2y2           0.8       6.7      12.7       1.1       9.0       3.4
 4 C  dxy             4.0       0.6       0.5       5.5       3.0      12.1
 5 C  s               0.9       2.0       1.1       3.7       0.0       1.9
 5 C  px              1.3       1.5       0.6       0.0       1.0       0.1
 5 C  py              1.4       0.1       1.3       1.0       2.4       0.1
 5 C  dz2             1.4       0.6       2.6       4.8       0.0       1.3
 5 C  dyz             0.1       0.0       0.0       0.1       0.0       0.2
 5 C  dx2y2           1.0       6.4      12.5       0.8       8.4       4.2
 5 C  dxy             3.7       0.8       0.8       5.9       3.6      11.2
 6 S  s               0.1       0.1       0.0       0.1       0.0       0.0
 6 S  px              0.1       0.1       0.0       0.1       0.1       0.0
 6 S  py              0.0       0.0       0.0       0.1       0.0       0.0
 6 S  dz2             0.0       0.0       0.0       0.2       0.0       0.0
 6 S  dx2y2           0.3       0.1       0.0       0.0       0.1       0.0
 6 S  dxy             0.0       0.1       0.0       0.4       0.1       0.1
 7 N  s               0.4       0.1       0.1       0.1       0.0       0.0
 7 N  dz2             0.5       0.0       0.2       0.1       0.0       0.0
 7 N  dxy             0.9       0.0       0.0       0.1       0.0       0.0
 8 S  s               0.2       0.0       0.0       0.0       0.0       0.0
 8 S  dx2y2           0.2       0.0       0.0       0.0       0.0       0.0
 9 N  s               0.4       0.1       0.1       0.1       0.0       0.0
 9 N  dz2             0.5       0.0       0.2       0.1       0.0       0.0
 9 N  dxy             0.9       0.0       0.0       0.1       0.0       0.0
10 S  s               0.1       0.1       0.0       0.1       0.0       0.0
10 S  px              0.1       0.1       0.0       0.1       0.1       0.0
10 S  py              0.0       0.0       0.0       0.1       0.0       0.0
10 S  dz2             0.0       0.0       0.0       0.2       0.0       0.0
10 S  dx2y2           0.3       0.0       0.0       0.0       0.1       0.0
10 S  dxy             0.0       0.1       0.0       0.4       0.1       0.1
11 H  s               0.7       0.0       0.3       0.3       0.0       0.5
12 H  s               0.2       0.1       0.3       0.5       0.0       0.7
13 H  s               0.2       0.1       0.3       0.5       0.0       0.7
14 H  s               0.7       0.0       0.3       0.3       0.0       0.5



                      *****************************
                      * MAYER POPULATION ANALYSIS *
                      *****************************

  NA   - Mulliken gross atomic population
  ZA   - Total nuclear charge
  QA   - Mulliken gross atomic charge
  VA   - Mayer's total valence
  BVA  - Mayer's bonded valence
  FA   - Mayer's free valence

  ATOM       NA         ZA         QA         VA         BVA        FA
  0 C      6.1318     6.0000    -0.1318     3.8238     3.8238    -0.0000
  1 C      6.1321     6.0000    -0.1321     3.8241     3.8241     0.0000
  2 C      6.1518     6.0000    -0.1518     3.9668     3.9668    -0.0000
  3 C      6.1518     6.0000    -0.1518     3.9667     3.9667    -0.0000
  4 C      6.1225     6.0000    -0.1225     3.9719     3.9719    -0.0000
  5 C      6.1222     6.0000    -0.1222     3.9717     3.9717     0.0000
  6 S     15.6082    16.0000     0.3918     2.4347     2.4347    -0.0000
  7 N      7.5912     7.0000    -0.5912     2.7761     2.7761    -0.0000
  8 S     15.3855    16.0000     0.6145     3.0212     3.0212    -0.0000
  9 N      7.5911     7.0000    -0.5911     2.7761     2.7761    -0.0000
 10 S     15.6082    16.0000     0.3918     2.4348     2.4348    -0.0000
 11 H      0.8434     1.0000     0.1566     0.9333     0.9333    -0.0000
 12 H      0.8583     1.0000     0.1417     0.9350     0.9350     0.0000
 13 H      0.8584     1.0000     0.1416     0.9350     0.9350     0.0000
 14 H      0.8434     1.0000     0.1566     0.9332     0.9332     0.0000

  Mayer bond orders larger than 0.1
B(  0-C ,  1-C ) :   1.3070 B(  0-C ,  2-C ) :   1.3103 B(  0-C ,  6-S ) :   0.9954 
B(  1-C ,  3-C ) :   1.3104 B(  1-C , 10-S ) :   0.9955 B(  2-C ,  4-C ) :   1.5632 
B(  2-C , 11-H ) :   0.9131 B(  3-C ,  5-C ) :   1.5630 B(  3-C , 14-H ) :   0.9131 
B(  4-C ,  5-C ) :   1.3540 B(  4-C , 12-H ) :   0.9262 B(  5-C , 13-H ) :   0.9262 
B(  6-S ,  7-N ) :   1.0579 B(  6-S ,  8-S ) :   0.1669 B(  7-N ,  8-S ) :   1.3126 
B(  7-N ,  9-N ) :   0.2243 B(  8-S ,  9-N ) :   1.3125 B(  8-S , 10-S ) :   0.1669 
B(  9-N , 10-S ) :   1.0579 

-------
TIMINGS
-------

Total SCF time: 0 days 0 hours 0 min 58 sec 

Total time                  ....      58.565 sec
Sum of individual times     ....      58.262 sec  ( 99.5%)

Fock matrix formation       ....      55.971 sec  ( 95.6%)
  XC integration            ....       4.703 sec  (  8.4% of F)
    Basis function eval.    ....       1.827 sec  ( 38.8% of XC)
    Density eval.           ....       1.279 sec  ( 27.2% of XC)
    XC-Functional eval.     ....       0.297 sec  (  6.3% of XC)
    XC-Potential eval.      ....       1.061 sec  ( 22.6% of XC)
Diagonalization             ....       0.005 sec  (  0.0%)
Density matrix formation    ....       0.008 sec  (  0.0%)
Population analysis         ....       0.058 sec  (  0.1%)
Initial guess               ....       0.005 sec  (  0.0%)
Orbital Transformation      ....       0.000 sec  (  0.0%)
Orbital Orthonormalization  ....       0.002 sec  (  0.0%)
DIIS solution               ....       0.001 sec  (  0.0%)
SOSCF solution              ....       0.030 sec  (  0.1%)
Grid generation             ....       2.184 sec  (  3.7%)

-------------------------   --------------------
FINAL SINGLE POINT ENERGY     -1534.610242543886
-------------------------   --------------------

                                *** OPTIMIZATION RUN DONE ***

                            ***************************************
                            *     ORCA property calculations      *
                            ***************************************

                                    ---------------------
                                    Active property flags
                                    ---------------------
   (+) Dipole Moment


------------------------------------------------------------------------------
                       ORCA ELECTRIC PROPERTIES CALCULATION
------------------------------------------------------------------------------

Dipole Moment Calculation                       ... on
Quadrupole Moment Calculation                   ... off
Polarizability Calculation                      ... off
GBWName                                         ... /Users/lailaal-madhagi/Desktop/Testing_XAS_Analysis_code/1-3-5-2-4_Benzotrithiadiazepine//Results_dir_Benzotrithiadiazepine_geom_element_N_2019-11-11_07-22-02//GTE1_Benzotrithiadiazepine_geom_2019-11-11_07-22-14//opt.gbw
Electron density file                           ... /Users/lailaal-madhagi/Desktop/Testing_XAS_Analysis_code/1-3-5-2-4_Benzotrithiadiazepine//Results_dir_Benzotrithiadiazepine_geom_element_N_2019-11-11_07-22-02//GTE1_Benzotrithiadiazepine_geom_2019-11-11_07-22-14//opt.scfp.tmp
The origin for moment calculation is the CENTER OF MASS  = (-2.791199,  0.339712 -0.222741)

-------------
DIPOLE MOMENT
-------------
                                X             Y             Z
Electronic contribution:    -11.00401      -0.14350      -0.43511
Nuclear contribution   :     12.14434       0.15835       0.47991
                        -----------------------------------------
Total Dipole Moment    :      1.14032       0.01486       0.04480
                        -----------------------------------------
Magnitude (a.u.)       :      1.14130
Magnitude (Debye)      :      2.90095



--------------------
Rotational spectrum 
--------------------
 
Rotational constants in cm-1:     0.045095     0.021160     0.014402 
Rotational constants in MHz :  1351.908515   634.359294   431.763062 

 Dipole components along the rotational axes: 
x,y,z [a.u.] :     1.141298     0.000037    -0.001001 
x,y,z [Debye]:     2.900949     0.000094    -0.002545 

 

Timings for individual modules:

Sum of individual times         ...      780.281 sec (=  13.005 min)
GTO integral calculation        ...        4.208 sec (=   0.070 min)   0.5 %
SCF iterations                  ...      550.509 sec (=   9.175 min)  70.6 %
SCF Gradient evaluation         ...      224.531 sec (=   3.742 min)  28.8 %
Geometry relaxation             ...        1.033 sec (=   0.017 min)   0.1 %
                             ****ORCA TERMINATED NORMALLY****
TOTAL RUN TIME: 0 days 0 hours 13 minutes 1 seconds 321 msec
