23
	Energy:      36.1930373
C         -2.30813        1.63077       -0.03205
C         -1.81570        2.80800       -0.60006
C         -0.43968        2.97655       -0.78512
C         -1.42550        0.61656        0.34602
C         -0.04929        0.78095        0.16157
C          0.46004        1.96306       -0.39366
H         -2.50131        3.58926       -0.90207
H         -0.09090        3.89035       -1.24515
H         -1.80742       -0.29820        0.78060
H         -3.37346        1.50200        0.10922
H          0.62590       -0.01272        0.45618
O          1.80573        2.06294       -0.56204
C          2.58307        3.17576       -0.64340
C          2.22268        4.40802       -0.05899
C          3.07296        5.51355       -0.16355
C          4.28861        5.40184       -0.84230
C          4.65954        4.18197       -1.41232
C          3.81264        3.07424       -1.30892
H          1.29797        4.52064        0.48922
H          4.94560        6.25838       -0.92105
H          2.79101        6.45667        0.28661
H          5.60428        4.09368       -1.93308
H          4.11112        2.13263       -1.75261
