
                                 *****************
                                 * O   R   C   A *
                                 *****************

           --- An Ab Initio, DFT and Semiempirical electronic structure package ---

                  #######################################################
                  #                        -***-                        #
                  #          Department of theory and spectroscopy      #
                  #               Directorship: Frank Neese             #
                  #        Max Planck Institute fuer Kohlenforschung    #
                  #                Kaiser Wilhelm Platz 1               #
                  #                 D-45470 Muelheim/Ruhr               #
                  #                      Germany                        #
                  #                                                     #
                  #                  All rights reserved                #
                  #                        -***-                        #
                  #######################################################


                         Program Version 4.1.0  - RELEASE  -


 With contributions from (in alphabetic order):
   Daniel Aravena         : Magnetic Properties
   Michael Atanasov       : Ab Initio Ligand Field Theory
   Alexander A. Auer      : GIAO ZORA
   Ute Becker             : Parallelization
   Giovanni Bistoni       : ED, Open-shell LED
   Martin Brehm           : Molecular dynamics
   Dmytro Bykov           : SCF Hessian
   Vijay G. Chilkuri      : MRCI spin determinant printing
   Dipayan Datta          : RHF DLPNO-CCSD density
   Achintya Kumar Dutta   : EOM-CC, STEOM-CC
   Dmitry Ganyushin       : Spin-Orbit,Spin-Spin,Magnetic field MRCI
   Miquel Garcia          : C-PCM Hessian
   Yang Guo               : DLPNO-NEVPT2, CIM, IAO-localization
   Andreas Hansen         : Spin unrestricted coupled pair/coupled cluster methods
   Benjamin Helmich-Paris : CASSCF linear response (MC-RPA)
   Lee Huntington         : MR-EOM, pCC
   Robert Izsak           : Overlap fitted RIJCOSX, COSX-SCS-MP3, EOM
   Christian Kollmar      : KDIIS, OOCD, Brueckner-CCSD(T), CCSD density
   Simone Kossmann        : Meta GGA functionals, TD-DFT gradient, OOMP2, MP2 Hessian
   Martin Krupicka        : AUTO-CI
   Lucas Lang             : DCDCAS
   Dagmar Lenk            : GEPOL surface, SMD
   Dimitrios Liakos       : Extrapolation schemes; parallel MDCI
   Dimitrios Manganas     : ROCIS; embedding schemes
   Dimitrios Pantazis     : SARC Basis sets
   Taras Petrenko         : DFT Hessian,TD-DFT gradient, ASA, ECA, R-Raman, ABS, FL, XAS/XES, NRVS
   Peter Pinski           : DLPNO-MP2, DLPNO-MP2 Gradient
   Christoph Reimann      : Effective Core Potentials
   Marius Retegan         : Local ZFS, SOC
   Christoph Riplinger    : Optimizer, TS searches, QM/MM, DLPNO-CCSD(T), (RO)-DLPNO pert. Triples
   Tobias Risthaus        : Range-separated hybrids, TD-DFT gradient, RPA, STAB
   Michael Roemelt        : Restricted open shell CIS
   Masaaki Saitow         : Open-shell DLPNO
   Barbara Sandhoefer     : DKH picture change effects
   Avijit Sen             : IP-ROCIS
   Kantharuban Sivalingam : CASSCF convergence, NEVPT2, FIC-MRCI
   Bernardo de Souza      : ESD, SOC TD-DFT
   Georgi Stoychev        : AutoAux, RI-MP2 NMR
   Willem Van den Heuvel  : Paramagnetic NMR
   Boris Wezisla          : Elementary symmetry handling
   Frank Wennmohs         : Technical directorship


 We gratefully acknowledge several colleagues who have allowed us to
 interface, adapt or use parts of their codes:
   Stefan Grimme, W. Hujo, H. Kruse,             : VdW corrections, initial TS optimization,
                  C. Bannwarth                     DFT functionals, gCP, sTDA/sTD-DF
   Ed Valeev                                     : LibInt (2-el integral package), F12 methods
   Garnet Chan, S. Sharma, J. Yang, R. Olivares  : DMRG
   Ulf Ekstrom                                   : XCFun DFT Library
   Mihaly Kallay                                 : mrcc  (arbitrary order and MRCC methods)
   Andreas Klamt, Michael Diedenhofen            : otool_cosmo (COSMO solvation model)
   Jiri Pittner, Ondrej Demel                    : Mk-CCSD
   Frank Weinhold                                : gennbo (NPA and NBO analysis)
   Christopher J. Cramer and Donald G. Truhlar   : smd solvation model
   Lars Goerigk                                  : TD-DFT with DH, B97 family of functionals
   V. Asgeirsson, H. Jonsson                     : NEB implementation
   FAccTs GmbH                                   : IRC, NEB, NEB-TS, Multilevel


 Your calculation uses the libint2 library for the computation of 2-el integrals
 For citations please refer to: http://libint.valeyev.net

 This ORCA versions uses:
   CBLAS   interface :  Fast vector & matrix operations
   LAPACKE interface :  Fast linear algebra routines
   SCALAPACK package :  Parallel linear algebra routines




***************************************
The coordinates will be read from file: /Users/lailaal-madhagi/Desktop/Testing_XAS_Analysis_code/PhenylMethylKetone//Results_dir_PhenylMethylKetone_geom_element_C_2019-11-19_00-49-16//GTE1_PhenylMethylKetone_geom_2019-11-19_00-49-24//opt.xyz
***************************************


----- Orbital basis set information -----
Your calculation utilizes the basis: 6-31G*
   H-He, Li-Ne : W. J. Hehre, R. Ditchfield and J.A. Pople, J. Chem. Phys. 56, 2257 (1972).
                 Note: He and Ne are unpublished basis sets taken from the Gaussian program.
                 Note: Li and B from J. D. Dill and J. A. Pople, J. Chem. Phys. 62, 2921 (1975).
   Na - Ar     : M. M. Francl, W. J. Pietro, W. J. Hehre, J. S. Binkley, M. S. Gordon, 
                 D. J. DeFrees and J. A. Pople, J. Chem. Phys. 77, 3654 (1982).
   K - Zn      : V. A. Rassolov, J. A. Pople, M. A. Ratner, and T. L. Windus, J. Chem. Phys. 109, 1223 (1998).

================================================================================
                                        WARNINGS
                       Please study these warnings very carefully!
================================================================================


INFO   : the flag for use of LIBINT has been found!

================================================================================
                                       INPUT FILE
================================================================================
NAME = /Users/lailaal-madhagi/Desktop/Testing_XAS_Analysis_code/PhenylMethylKetone//Results_dir_PhenylMethylKetone_geom_element_C_2019-11-19_00-49-16//GTE1_PhenylMethylKetone_geom_2019-11-19_00-49-24//freq.inp
|  1> ! B3LYP 6-31G* TIGHTSCF Grid3 FinalGrid5 Freq 
|  2> !NormalPrint 
|  3> %output 
|  4> Print[P_Basis] 2 
|  5> Print[P_MOS] 1 
|  6> end 
|  7> *xyzfile 0 1 /Users/lailaal-madhagi/Desktop/Testing_XAS_Analysis_code/PhenylMethylKetone//Results_dir_PhenylMethylKetone_geom_element_C_2019-11-19_00-49-16//GTE1_PhenylMethylKetone_geom_2019-11-19_00-49-24//opt.xyz                           ****END OF INPUT****
================================================================================

                       ****************************
                       * Single Point Calculation *
                       ****************************

---------------------------------
CARTESIAN COORDINATES (ANGSTROEM)
---------------------------------
  C     -1.725750    1.146436    0.040693
  C     -0.422102    1.667036   -0.048620
  C     -1.941902   -0.227296    0.071619
  C     -0.855779   -1.107565    0.013905
  C      0.443257   -0.604390   -0.074660
  C      0.660017    0.774334   -0.105905
  C     -0.278174    3.161152   -0.076375
  C      1.094189    3.817866   -0.175689
  H     -2.552550    1.848037    0.084361
  H     -2.954697   -0.615760    0.140545
  H     -1.022601   -2.181570    0.037866
  H      1.678243    1.142350   -0.174634
  H      1.289878   -1.284522   -0.119571
  O     -1.268666    3.876143   -0.019005
  H      1.939830    3.130578   -0.226503
  H      1.224146    4.474582    0.691637
  H      1.104852    4.457458   -1.065164

----------------------------
CARTESIAN COORDINATES (A.U.)
----------------------------
  NO LB      ZA    FRAG     MASS         X           Y           Z
   0 C     6.0000    0    12.011   -3.261195    2.166449    0.076898
   1 C     6.0000    0    12.011   -0.797658    3.150241   -0.091879
   2 C     6.0000    0    12.011   -3.669664   -0.429527    0.135340
   3 C     6.0000    0    12.011   -1.617188   -2.092994    0.026276
   4 C     6.0000    0    12.011    0.837634   -1.142131   -0.141086
   5 C     6.0000    0    12.011    1.247252    1.463280   -0.200131
   6 C     6.0000    0    12.011   -0.525672    5.973712   -0.144328
   7 C     6.0000    0    12.011    2.067718    7.214721   -0.332004
   8 H     1.0000    0     1.008   -4.823620    3.492283    0.159419
   9 H     1.0000    0     1.008   -5.583568   -1.163617    0.265592
  10 H     1.0000    0     1.008   -1.932437   -4.122570    0.071557
  11 H     1.0000    0     1.008    3.171420    2.158730   -0.330010
  12 H     1.0000    0     1.008    2.437516   -2.427395   -0.225956
  13 O     8.0000    0    15.999   -2.397432    7.324848   -0.035914
  14 H     1.0000    0     1.008    3.665747    5.915935   -0.428029
  15 H     1.0000    0     1.008    2.313300    8.455734    1.307004
  16 H     1.0000    0     1.008    2.087868    8.423376   -2.012868

--------------------------------
INTERNAL COORDINATES (ANGSTROEM)
--------------------------------
 C      0   0   0     0.000000000000     0.00000000     0.00000000
 C      1   0   0     1.406591333767     0.00000000     0.00000000
 C      1   2   0     1.390976813106   120.72786705     0.00000000
 C      3   1   2     1.399238294074   119.98457283     0.00000000
 C      4   3   1     1.395895129200   119.88153933     0.00000000
 C      5   4   3     1.396009102252   120.12721724     0.00000000
 C      2   1   3     1.501289370954   117.28223842   180.00392238
 C      7   2   1     1.524636519028   121.07607442   180.17252379
 H      1   2   3     1.085241382218   117.99395163   180.00349330
 H      3   1   2     1.086925701166   119.94531722   180.01575951
 H      4   3   1     1.087147995978   120.09795255   180.00484457
 H      6   5   4     1.084870260910   118.82766252   179.97865301
 H      5   4   3     1.086905427786   120.12829687   179.99077336
 O      7   2   1     1.222938083624   120.22129725     0.18094509
 H      8   7   2     1.090896275762   115.43081143     0.16837540
 H      8   7   2     1.095635896944   108.26301798   237.95833222
 H      8   7   2     1.095608311408   108.24601205   122.35544705

---------------------------
INTERNAL COORDINATES (A.U.)
---------------------------
 C      0   0   0     0.000000000000     0.00000000     0.00000000
 C      1   0   0     2.658072403168     0.00000000     0.00000000
 C      1   2   0     2.628565235405   120.72786705     0.00000000
 C      3   1   2     2.644177171895   119.98457283     0.00000000
 C      4   3   1     2.637859505862   119.88153933     0.00000000
 C      5   4   3     2.638074883718   120.12721724     0.00000000
 C      2   1   3     2.837025758871   117.28223842   180.00392238
 C      7   2   1     2.881145474738   121.07607442   180.17252379
 H      1   2   3     2.050809001590   117.99395163   180.00349330
 H      3   1   2     2.053991903124   119.94531722   180.01575951
 H      4   3   1     2.054411979440   120.09795255   180.00484457
 H      6   5   4     2.050107683955   118.82766252   179.97865301
 H      5   4   3     2.053953591989   120.12829687   179.99077336
 O      7   2   1     2.311018056792   120.22129725     0.18094509
 H      8   7   2     2.061495201705   115.43081143     0.16837540
 H      8   7   2     2.070451787718   108.26301798   237.95833222
 H      8   7   2     2.070399658609   108.24601205   122.35544705

---------------------
BASIS SET INFORMATION
---------------------
There are 3 groups of distinct atoms

 Group   1 Type C   : 10s4p1d contracted to 3s2p1d pattern {631/31/1}
 Group   2 Type H   : 4s contracted to 2s pattern {31}
 Group   3 Type O   : 10s4p1d contracted to 3s2p1d pattern {631/31/1}

Atom   0C    basis set group =>   1
Atom   1C    basis set group =>   1
Atom   2C    basis set group =>   1
Atom   3C    basis set group =>   1
Atom   4C    basis set group =>   1
Atom   5C    basis set group =>   1
Atom   6C    basis set group =>   1
Atom   7C    basis set group =>   1
Atom   8H    basis set group =>   2
Atom   9H    basis set group =>   2
Atom  10H    basis set group =>   2
Atom  11H    basis set group =>   2
Atom  12H    basis set group =>   2
Atom  13O    basis set group =>   3
Atom  14H    basis set group =>   2
Atom  15H    basis set group =>   2
Atom  16H    basis set group =>   2

-------------------------
BASIS SET IN INPUT FORMAT
-------------------------

 # Basis set for element : H 
 NewGTO H 
 S 3 
   1      18.7311370000      0.0334945995
   2       2.8253937000      0.2347269467
   3       0.6401217000      0.8137573184
 S 1 
   1       0.1612778000      1.0000000000
  end;

 # Basis set for element : C 
 NewGTO C 
 S 6 
   1    3047.5249000000      0.0018347002
   2     457.3695100000      0.0140373012
   3     103.9486900000      0.0688426061
   4      29.2101550000      0.2321844206
   5       9.2866630000      0.4679413416
   6       3.1639270000      0.3623120322
 S 3 
   1       7.8682724000     -0.1193324086
   2       1.8812885000     -0.1608542116
   3       0.5442493000      1.1434564826
 P 3 
   1       7.8682724000      0.0689990956
   2       1.8812885000      0.3164239798
   3       0.5442493000      0.7443082524
 S 1 
   1       0.1687144000      1.0000000000
 P 1 
   1       0.1687144000      1.0000000000
 D 1 
   1       0.8000000000      1.0000000000
  end;

 # Basis set for element : O 
 NewGTO O 
 S 6 
   1    5484.6717000000      0.0018310998
   2     825.2349500000      0.0139500985
   3     188.0469600000      0.0684450927
   4      52.9645000000      0.2327142753
   5      16.8975700000      0.4701929501
   6       5.7996353000      0.3585208619
 S 3 
   1      15.5396160000     -0.1107775038
   2       3.5999336000     -0.1480263051
   3       1.0137618000      1.1307670390
 P 3 
   1      15.5396160000      0.0708742995
   2       3.5999336000      0.3397527978
   3       1.0137618000      0.7271585953
 S 1 
   1       0.2700058000      1.0000000000
 P 1 
   1       0.2700058000      1.0000000000
 D 1 
   1       0.8000000000      1.0000000000
  end;

------------------------------------------------------------------------------
                           ORCA GTO INTEGRAL CALCULATION
------------------------------------------------------------------------------

                         BASIS SET STATISTICS AND STARTUP INFO

 # of primitive gaussian shells          ...  167
 # of primitive gaussian functions       ...  275
 # of contracted shells                  ...   70
 # of contracted basis functions         ...  142
 Highest angular momentum                ...    2
 Maximum contraction depth               ...    6
 Integral package used                   ... LIBINT
 Integral threshhold            Thresh   ...  2.500e-11
 Primitive cut-off              TCut     ...  2.500e-12


------------------------------ INTEGRAL EVALUATION ----------------------------


 * One electron integrals 
 Pre-screening matrix                    ... done
 Shell pair data                         ... done (   0.001 sec)

-------------------------------------------------------------------------------
                                 ORCA SCF
-------------------------------------------------------------------------------

------------
SCF SETTINGS
------------
Hamiltonian:
 Density Functional     Method          .... DFT(GTOs)
 Exchange Functional    Exchange        .... B88
   X-Alpha parameter    XAlpha          ....  0.666667
   Becke's b parameter  XBeta           ....  0.004200
 Correlation Functional Correlation     .... LYP
 LDA part of GGA corr.  LDAOpt          .... VWN-5
 Gradients option       PostSCFGGA      .... off
 Hybrid DFT is turned on
   Fraction HF Exchange ScalHFX         ....  0.200000
   Scaling of DF-GGA-X  ScalDFX         ....  0.720000
   Scaling of DF-GGA-C  ScalDFC         ....  0.810000
   Scaling of DF-LDA-C  ScalLDAC        ....  1.000000
   Perturbative correction              ....  0.000000
   Density functional embedding theory  .... OFF
   NL short-range parameter             ....  4.800000


General Settings:
 Integral files         IntName         .... /Users/lailaal-madhagi/Desktop/Testing_XAS_Analysis_code/PhenylMethylKetone//Results_dir_PhenylMethylKetone_geom_element_C_2019-11-19_00-49-16//GTE1_PhenylMethylKetone_geom_2019-11-19_00-49-24//freq
 Hartree-Fock type      HFTyp           .... RHF
 Total Charge           Charge          ....    0
 Multiplicity           Mult            ....    1
 Number of Electrons    NEL             ....   64
 Basis Dimension        Dim             ....  142
 Nuclear Repulsion      ENuc            ....    399.7646240837 Eh

Convergence Acceleration:
 DIIS                   CNVDIIS         .... on
   Start iteration      DIISMaxIt       ....    12
   Startup error        DIISStart       ....  0.200000
   # of expansion vecs  DIISMaxEq       ....     5
   Bias factor          DIISBfac        ....   1.050
   Max. coefficient     DIISMaxC        ....  10.000
 Newton-Raphson         CNVNR           .... off
 SOSCF                  CNVSOSCF        .... on
   Start iteration      SOSCFMaxIt      ....   150
   Startup grad/error   SOSCFStart      ....  0.003300
 Level Shifting         CNVShift        .... on
   Level shift para.    LevelShift      ....    0.2500
   Turn off err/grad.   ShiftErr        ....    0.0010
 Zerner damping         CNVZerner       .... off
 Static damping         CNVDamp         .... on
   Fraction old density DampFac         ....    0.7000
   Max. Damping (<1)    DampMax         ....    0.9800
   Min. Damping (>=0)   DampMin         ....    0.0000
   Turn off err/grad.   DampErr         ....    0.1000
 Fernandez-Rico         CNVRico         .... off

SCF Procedure:
 Maximum # iterations   MaxIter         ....   125
 SCF integral mode      SCFMode         .... Direct
   Integral package                     .... LIBINT
 Reset frequency        DirectResetFreq ....    20
 Integral Threshold     Thresh          ....  2.500e-11 Eh
 Primitive CutOff       TCut            ....  2.500e-12 Eh

Convergence Tolerance:
 Convergence Check Mode ConvCheckMode   .... Total+1el-Energy
 Convergence forced     ConvForced      .... 0
 Energy Change          TolE            ....  1.000e-08 Eh
 1-El. energy change                    ....  1.000e-05 Eh
 Orbital Gradient       TolG            ....  1.000e-05
 Orbital Rotation angle TolX            ....  1.000e-05
 DIIS Error             TolErr          ....  5.000e-07


Diagonalization of the overlap matrix:
Smallest eigenvalue                        ... 4.730e-04
Time for diagonalization                   ...    0.003 sec
Threshold for overlap eigenvalues          ... 1.000e-08
Number of eigenvalues below threshold      ... 0
Time for construction of square roots      ...    0.002 sec
Total time needed                          ...    0.006 sec

-------------------
DFT GRID GENERATION
-------------------

General Integration Accuracy     IntAcc      ...  4.340
Radial Grid Type                 RadialGrid  ... Gauss-Chebyshev
Angular Grid (max. acc.)         AngularGrid ... Lebedev-194
Angular grid pruning method      GridPruning ... 3 (G Style)
Weight generation scheme         WeightScheme... Becke
Basis function cutoff            BFCut       ...    1.0000e-11
Integration weight cutoff        WCut        ...    1.0000e-14
Grids for H and He will be reduced by one unit

# of grid points (after initial pruning)     ...  41790 (   0.0 sec)
# of grid points (after weights+screening)   ...  38420 (   0.1 sec)
nearest neighbour list constructed           ...    0.0 sec
Grid point re-assignment to atoms done       ...    0.0 sec
Grid point division into batches done        ...    0.1 sec
Reduced shell lists constructed in    0.2 sec

Total number of grid points                  ...    38420
Total number of batches                      ...      607
Average number of points per batch           ...       63
Average number of grid points per atom       ...     2260
Average number of shells per batch           ...    46.43 (66.33%)
Average number of basis functions per batch  ...    96.14 (67.71%)
Average number of large shells per batch     ...    35.12 (75.64%)
Average number of large basis fcns per batch ...    73.32 (76.27%)
Maximum spatial batch extension              ...  18.66, 18.37, 22.17 au
Average spatial batch extension              ...   3.14,  2.91,  3.48 au

Time for grid setup =    0.337 sec

------------------------------
INITIAL GUESS: MODEL POTENTIAL
------------------------------
Loading Hartree-Fock densities                     ... done
Calculating cut-offs                               ... done
Setting up the integral package                    ... done
Initializing the effective Hamiltonian             ... done
Starting the Coulomb interaction                   ... done (   0.1 sec)
Reading the grid                                   ... done
Mapping shells                                     ... done
Starting the XC term evaluation                    ... done (   0.3 sec)
  promolecular density results
     # of electrons  =     63.995995428
     EX              =    -51.661446901
     EC              =     -2.140427838
     EX+EC           =    -53.801874740
Transforming the Hamiltonian                       ... done (   0.0 sec)
Diagonalizing the Hamiltonian                      ... done (   0.0 sec)
Back transforming the eigenvectors                 ... done (   0.0 sec)
Now organizing SCF variables                       ... done
                      ------------------
                      INITIAL GUESS DONE (   0.8 sec)
                      ------------------
--------------
SCF ITERATIONS
--------------
               ***  Starting incremental Fock matrix formation  ***

                         ----------------------------
                         !        ITERATION     0   !
                         ----------------------------
   Total Energy        :    -384.407688693461 Eh
   Energy Change       :    -384.407688693461 Eh
   MAX-DP              :       0.100206597237
   RMS-DP              :       0.002831973828
   Actual Damping      :       0.7000
   Actual Level Shift  :       0.2500 Eh
   Int. Num. El.       :    63.99963232 (UP=   31.99981616 DN=   31.99981616)
   Exchange            :   -42.37365510
   Correlation         :    -2.55768728


                         ----------------------------
                         !        ITERATION     1   !
                         ----------------------------
   Total Energy        :    -384.519919437053 Eh
   Energy Change       :      -0.112230743592 Eh
   MAX-DP              :       0.059267060447
   RMS-DP              :       0.001893617549
   Actual Damping      :       0.7000
   Actual Level Shift  :       0.2500 Eh
   Int. Num. El.       :    63.99960129 (UP=   31.99980064 DN=   31.99980064)
   Exchange            :   -42.07281752
   Correlation         :    -2.54620950

                               ***Turning on DIIS***

                         ----------------------------
                         !        ITERATION     2   !
                         ----------------------------
   Total Energy        :    -384.563875820098 Eh
   Energy Change       :      -0.043956383045 Eh
   MAX-DP              :       0.066847571279
   RMS-DP              :       0.002960352798
   Actual Damping      :       0.0000
   Actual Level Shift  :       0.2500 Eh
   Int. Num. El.       :    63.99958143 (UP=   31.99979071 DN=   31.99979071)
   Exchange            :   -41.87832098
   Correlation         :    -2.53816076
   DIIS-Error          :       0.040934686652


                         ----------------------------
                         !        ITERATION     3   !
                         ----------------------------
   Total Energy        :    -384.634414481792 Eh
   Energy Change       :      -0.070538661693 Eh
   MAX-DP              :       0.038853828787
   RMS-DP              :       0.001321476453
   Actual Damping      :       0.0000
   Actual Level Shift  :       0.2500 Eh
   Int. Num. El.       :    63.99955228 (UP=   31.99977614 DN=   31.99977614)
   Exchange            :   -41.59264772
   Correlation         :    -2.52516723
   DIIS-Error          :       0.046988052665
   DIIS coefficients:
      0.56127   0.43873


                         ----------------------------
                         !        ITERATION     4   !
                         ----------------------------
   Total Energy        :    -384.648485246965 Eh
   Energy Change       :      -0.014070765173 Eh
   MAX-DP              :       0.009800976727
   RMS-DP              :       0.000449408091
   Actual Damping      :       0.0000
   Actual Level Shift  :       0.2500 Eh
   Int. Num. El.       :    63.99956198 (UP=   31.99978099 DN=   31.99978099)
   Exchange            :   -41.70991573
   Correlation         :    -2.53042284
   DIIS-Error          :       0.019376689359
   DIIS coefficients:
      0.27814   0.11873   0.60314


                         ----------------------------
                         !        ITERATION     5   !
                         ----------------------------
   Total Energy        :    -384.649787655081 Eh
   Energy Change       :      -0.001302408116 Eh
   MAX-DP              :       0.003117123155
   RMS-DP              :       0.000131275953
   Actual Damping      :       0.0000
   Actual Level Shift  :       0.2500 Eh
   Int. Num. El.       :    63.99956198 (UP=   31.99978099 DN=   31.99978099)
   Exchange            :   -41.72701614
   Correlation         :    -2.53162435
   DIIS-Error          :       0.004925872072
   DIIS coefficients:
      0.06417   0.00360   0.15713   0.77509

                      *** Initiating the SOSCF procedure ***
                           *** Shutting down DIIS ***
                      *** Re-Reading the Fockian *** 
                      *** Removing any level shift *** 

                         ----------------------------
                         !        ITERATION     6   !
                         ----------------------------
   Total Energy        :    -384.649848396951 Eh
   Energy Change       :      -0.000060741870 Eh
   MAX-DP              :       0.001061955169
   RMS-DP              :       0.000051582683
   Orbital gradient    :       0.000281413188
   Orbital Rotation    :       0.000281413188
   Actual Damping      :       0.0000
   Int. Num. El.       :    63.99956602 (UP=   31.99978301 DN=   31.99978301)
   Exchange            :   -41.73560628
   Correlation         :    -2.53193009

               *** Restarting incremental Fock matrix formation ***

                         ----------------------------
                         !        ITERATION     7   !
                         ----------------------------
   Total Energy        :    -384.649850293403 Eh
   Energy Change       :      -0.000001896452 Eh
   MAX-DP              :       0.000620366772
   RMS-DP              :       0.000030919625
   Orbital gradient    :       0.000223265412
   Orbital Rotation    :       0.001109082276
   Actual Damping      :       0.0000
   Int. Num. El.       :    63.99956645 (UP=   31.99978323 DN=   31.99978323)
   Exchange            :   -41.73569702
   Correlation         :    -2.53194295


                         ----------------------------
                         !        ITERATION     8   !
                         ----------------------------
   Total Energy        :    -384.649848673153 Eh
   Energy Change       :       0.000001620250 Eh
   MAX-DP              :       0.000460839963
   RMS-DP              :       0.000019308774
   Orbital gradient    :       0.000414255941
   Orbital Rotation    :       0.000758062173
   Actual Damping      :       0.0000
   Int. Num. El.       :    63.99956668 (UP=   31.99978334 DN=   31.99978334)
   Exchange            :   -41.73594528
   Correlation         :    -2.53194226


                         ----------------------------
                         !        ITERATION     9   !
                         ----------------------------
   Total Energy        :    -384.649851263568 Eh
   Energy Change       :      -0.000002590415 Eh
   MAX-DP              :       0.000166914928
   RMS-DP              :       0.000004953547
   Orbital gradient    :       0.000035468066
   Orbital Rotation    :       0.000108108280
   Actual Damping      :       0.0000
   Int. Num. El.       :    63.99956664 (UP=   31.99978332 DN=   31.99978332)
   Exchange            :   -41.73577373
   Correlation         :    -2.53194243


                         ----------------------------
                         !        ITERATION    10   !
                         ----------------------------
   Total Energy        :    -384.649851220719 Eh
   Energy Change       :       0.000000042849 Eh
   MAX-DP              :       0.000096810234
   RMS-DP              :       0.000003025318
   Orbital gradient    :       0.000044260714
   Orbital Rotation    :       0.000063596442
   Actual Damping      :       0.0000
   Int. Num. El.       :    63.99956659 (UP=   31.99978329 DN=   31.99978329)
   Exchange            :   -41.73578659
   Correlation         :    -2.53194300


                         ----------------------------
                         !        ITERATION    11   !
                         ----------------------------
   Total Energy        :    -384.649851304367 Eh
   Energy Change       :      -0.000000083648 Eh
   MAX-DP              :       0.000021690136
   RMS-DP              :       0.000000580685
   Orbital gradient    :       0.000004256109
   Orbital Rotation    :       0.000015279137
   Actual Damping      :       0.0000
   Int. Num. El.       :    63.99956662 (UP=   31.99978331 DN=   31.99978331)
   Exchange            :   -41.73577495
   Correlation         :    -2.53194223


                         ----------------------------
                         !        ITERATION    12   !
                         ----------------------------
   Total Energy        :    -384.649851304306 Eh
   Energy Change       :       0.000000000061 Eh
   MAX-DP              :       0.000012895194
   RMS-DP              :       0.000000344769
   Orbital gradient    :       0.000006667459
   Orbital Rotation    :       0.000010560290
   Actual Damping      :       0.0000
   Int. Num. El.       :    63.99956663 (UP=   31.99978331 DN=   31.99978331)
   Exchange            :   -41.73578208
   Correlation         :    -2.53194272

                  ***Gradient check signals convergence***
              ***Rediagonalizing the Fockian in SOSCF/NRSCF***

               *****************************************************
               *                     SUCCESS                       *
               *           SCF CONVERGED AFTER  13 CYCLES          *
               *****************************************************

Setting up the final grid:

General Integration Accuracy     IntAcc      ...  5.010
Radial Grid Type                 RadialGrid  ... Gauss-Chebyshev
Angular Grid (max. acc.)         AngularGrid ... Lebedev-434
Angular grid pruning method      GridPruning ... 3 (G Style)
Weight generation scheme         WeightScheme... Becke
Basis function cutoff            BFCut       ...    1.0000e-11
Integration weight cutoff        WCut        ...    1.0000e-14
Grids for H and He will be reduced by one unit

# of grid points (after initial pruning)     ... 149962 (   0.1 sec)
# of grid points (after weights+screening)   ... 136482 (   0.3 sec)
nearest neighbour list constructed           ...    0.0 sec
Grid point re-assignment to atoms done       ...    0.0 sec
Grid point division into batches done        ...    0.7 sec
Reduced shell lists constructed in    1.3 sec

Total number of grid points                  ...   136482
Total number of batches                      ...     2141
Average number of points per batch           ...       63
Average number of grid points per atom       ...     8028
Average number of shells per batch           ...    42.86 (61.23%)
Average number of basis functions per batch  ...    88.47 (62.30%)
Average number of large shells per batch     ...    31.85 (74.31%)
Average number of large basis fcns per batch ...    66.18 (74.81%)
Maximum spatial batch extension              ...  18.10, 16.41, 22.62 au
Average spatial batch extension              ...   2.07,  2.00,  2.17 au

Final grid set up in    1.7 sec
Final integration                            ... done (   1.1 sec)
Change in XC energy                          ...    -0.000122600
Integrated number of electrons               ...    63.999986254
Previous integrated no of electrons          ...    63.999566625

----------------
TOTAL SCF ENERGY
----------------

Total Energy       :         -384.64997390 Eh          -10466.85791 eV

Components:
Nuclear Repulsion  :          399.76462408 Eh           10878.14846 eV
Electronic Energy  :         -784.41459799 Eh          -21345.00637 eV
One Electron Energy:        -1312.39201822 Eh          -35712.00238 eV
Two Electron Energy:          527.97742023 Eh           14366.99601 eV

Virial components:
Potential Energy   :         -767.00297099 Eh          -20871.21191 eV
Kinetic Energy     :          382.35299709 Eh           10404.35400 eV
Virial Ratio       :            2.00600748


DFT components:
N(Alpha)           :       31.999993126911 electrons
N(Beta)            :       31.999993126911 electrons
N(Total)           :       63.999986253822 electrons
E(X)               :      -41.735923210619 Eh       
E(C)               :       -2.531923205862 Eh       
E(XC)              :      -44.267846416481 Eh       
DFET-embed. en.    :        0.000000000000 Eh       

---------------
SCF CONVERGENCE
---------------

  Last Energy change         ...   -6.0629e-10  Tolerance :   1.0000e-08
  Last MAX-Density change    ...    3.7709e-06  Tolerance :   1.0000e-07
  Last RMS-Density change    ...    1.3262e-07  Tolerance :   5.0000e-09
  Last Orbital Gradient      ...    8.0399e-07  Tolerance :   1.0000e-05
  Last Orbital Rotation      ...    3.1404e-06  Tolerance :   1.0000e-05

             **** THE GBW FILE WAS UPDATED (/Users/lailaal-madhagi/Desktop/Testing_XAS_Analysis_code/PhenylMethylKetone//Results_dir_PhenylMethylKetone_geom_element_C_2019-11-19_00-49-16//GTE1_PhenylMethylKetone_geom_2019-11-19_00-49-24//freq.gbw) ****
             **** DENSITY FILE WAS UPDATED (/Users/lailaal-madhagi/Desktop/Testing_XAS_Analysis_code/PhenylMethylKetone//Results_dir_PhenylMethylKetone_geom_element_C_2019-11-19_00-49-16//GTE1_PhenylMethylKetone_geom_2019-11-19_00-49-24//freq.scfp.tmp) ****
             **** ENERGY FILE WAS UPDATED (/Users/lailaal-madhagi/Desktop/Testing_XAS_Analysis_code/PhenylMethylKetone//Results_dir_PhenylMethylKetone_geom_element_C_2019-11-19_00-49-16//GTE1_PhenylMethylKetone_geom_2019-11-19_00-49-24//freq.en.tmp) ****
----------------
ORBITAL ENERGIES
----------------

  NO   OCC          E(Eh)            E(eV) 
   0   2.0000     -19.123906      -520.3879 
   1   2.0000     -10.267756      -279.3998 
   2   2.0000     -10.195063      -277.4218 
   3   2.0000     -10.194048      -277.3941 
   4   2.0000     -10.193256      -277.3726 
   5   2.0000     -10.190721      -277.3036 
   6   2.0000     -10.188619      -277.2464 
   7   2.0000     -10.186464      -277.1878 
   8   2.0000     -10.177090      -276.9327 
   9   2.0000      -1.027850       -27.9692 
  10   2.0000      -0.858101       -23.3501 
  11   2.0000      -0.767136       -20.8748 
  12   2.0000      -0.749884       -20.4054 
  13   2.0000      -0.726500       -19.7691 
  14   2.0000      -0.627081       -17.0638 
  15   2.0000      -0.606706       -16.5093 
  16   2.0000      -0.549768       -14.9599 
  17   2.0000      -0.509679       -13.8691 
  18   2.0000      -0.462824       -12.5941 
  19   2.0000      -0.454116       -12.3571 
  20   2.0000      -0.447022       -12.1641 
  21   2.0000      -0.436818       -11.8864 
  22   2.0000      -0.425530       -11.5792 
  23   2.0000      -0.407120       -11.0783 
  24   2.0000      -0.387499       -10.5444 
  25   2.0000      -0.375395       -10.2150 
  26   2.0000      -0.358082        -9.7439 
  27   2.0000      -0.344626        -9.3777 
  28   2.0000      -0.342588        -9.3223 
  29   2.0000      -0.257510        -7.0072 
  30   2.0000      -0.253407        -6.8955 
  31   2.0000      -0.242495        -6.5986 
  32   0.0000      -0.052213        -1.4208 
  33   0.0000      -0.005033        -0.1369 
  34   0.0000       0.045466         1.2372 
  35   0.0000       0.086939         2.3657 
  36   0.0000       0.116885         3.1806 
  37   0.0000       0.136294         3.7087 
  38   0.0000       0.153713         4.1827 
  39   0.0000       0.158892         4.3237 
  40   0.0000       0.168170         4.5761 
  41   0.0000       0.190888         5.1943 
  42   0.0000       0.192042         5.2257 
  43   0.0000       0.222557         6.0561 
  44   0.0000       0.227521         6.1912 
  45   0.0000       0.271252         7.3811 
  46   0.0000       0.285274         7.7627 
  47   0.0000       0.303394         8.2558 
  48   0.0000       0.338559         9.2127 
  49   0.0000       0.353097         9.6083 
  50   0.0000       0.393563        10.7094 
  51   0.0000       0.484424        13.1819 
  52   0.0000       0.503379        13.6976 
  53   0.0000       0.532193        14.4817 
  54   0.0000       0.540669        14.7123 
  55   0.0000       0.545710        14.8495 
  56   0.0000       0.564801        15.3690 
  57   0.0000       0.566831        15.4243 
  58   0.0000       0.581462        15.8224 
  59   0.0000       0.592660        16.1271 
  60   0.0000       0.598318        16.2810 
  61   0.0000       0.612357        16.6631 
  62   0.0000       0.614031        16.7086 
  63   0.0000       0.624995        17.0070 
  64   0.0000       0.642491        17.4831 
  65   0.0000       0.675721        18.3873 
  66   0.0000       0.689965        18.7749 
  67   0.0000       0.713613        19.4184 
  68   0.0000       0.714753        19.4494 
  69   0.0000       0.739038        20.1102 
  70   0.0000       0.770059        20.9544 
  71   0.0000       0.825524        22.4636 
  72   0.0000       0.831471        22.6255 
  73   0.0000       0.837426        22.7875 
  74   0.0000       0.858970        23.3738 
  75   0.0000       0.870093        23.6764 
  76   0.0000       0.877673        23.8827 
  77   0.0000       0.907353        24.6903 
  78   0.0000       0.927179        25.2298 
  79   0.0000       0.945151        25.7189 
  80   0.0000       0.948463        25.8090 
  81   0.0000       0.975065        26.5329 
  82   0.0000       1.004701        27.3393 
  83   0.0000       1.009957        27.4823 
  84   0.0000       1.033912        28.1342 
  85   0.0000       1.074225        29.2312 
  86   0.0000       1.098255        29.8851 
  87   0.0000       1.128646        30.7120 
  88   0.0000       1.155278        31.4367 
  89   0.0000       1.193035        32.4641 
  90   0.0000       1.248448        33.9720 
  91   0.0000       1.278125        34.7795 
  92   0.0000       1.300279        35.3824 
  93   0.0000       1.324655        36.0457 
  94   0.0000       1.400768        38.1168 
  95   0.0000       1.425826        38.7987 
  96   0.0000       1.438431        39.1417 
  97   0.0000       1.446378        39.3579 
  98   0.0000       1.470426        40.0123 
  99   0.0000       1.486273        40.4435 
 100   0.0000       1.487796        40.4850 
 101   0.0000       1.506953        41.0063 
 102   0.0000       1.694797        46.1178 
 103   0.0000       1.736070        47.2409 
 104   0.0000       1.761495        47.9327 
 105   0.0000       1.764225        48.0070 
 106   0.0000       1.809092        49.2279 
 107   0.0000       1.831608        49.8406 
 108   0.0000       1.843253        50.1575 
 109   0.0000       1.891854        51.4800 
 110   0.0000       1.910080        51.9759 
 111   0.0000       1.937011        52.7088 
 112   0.0000       1.965711        53.4897 
 113   0.0000       1.997398        54.3520 
 114   0.0000       2.052440        55.8497 
 115   0.0000       2.065450        56.2037 
 116   0.0000       2.070013        56.3279 
 117   0.0000       2.138479        58.1910 
 118   0.0000       2.141183        58.2646 
 119   0.0000       2.162839        58.8538 
 120   0.0000       2.212598        60.2079 
 121   0.0000       2.226029        60.5733 
 122   0.0000       2.250744        61.2459 
 123   0.0000       2.283432        62.1353 
 124   0.0000       2.301011        62.6137 
 125   0.0000       2.303759        62.6885 
 126   0.0000       2.396457        65.2109 
 127   0.0000       2.415679        65.7340 
 128   0.0000       2.509428        68.2850 
 129   0.0000       2.586019        70.3692 
 130   0.0000       2.599671        70.7406 
 131   0.0000       2.606439        70.9248 
 132   0.0000       2.648679        72.0742 
 133   0.0000       2.671445        72.6937 
 134   0.0000       2.745043        74.6964 
 135   0.0000       2.751299        74.8667 
 136   0.0000       2.765284        75.2472 
 137   0.0000       2.873637        78.1956 
 138   0.0000       2.980407        81.1010 
 139   0.0000       2.992806        81.4384 
 140   0.0000       3.151048        85.7444 
 141   0.0000       3.417581        92.9971 
------------------
MOLECULAR ORBITALS
------------------
                      0         1         2         3         4         5   
                 -19.12391 -10.26776 -10.19506 -10.19405 -10.19326 -10.19072
                   2.00000   2.00000   2.00000   2.00000   2.00000   2.00000
                  --------  --------  --------  --------  --------  --------
  0C   1s         0.000043  0.000074  0.002497  0.000821 -0.029537  0.002074
  0C   2s         0.000317  0.000399 -0.000162 -0.000014  0.000705  0.000565
  0C   1pz        0.000007  0.000002  0.000024 -0.000000 -0.000077 -0.000007
  0C   1px       -0.000074 -0.000058 -0.000373 -0.000054  0.001116  0.000121
  0C   1py       -0.000080  0.000092 -0.000031  0.000282  0.000461 -0.000063
  0C   3s        -0.007585 -0.004223 -0.004152 -0.005467 -0.009886 -0.004754
  0C   2pz        0.000343  0.000187  0.000088  0.000120  0.000288  0.000121
  0C   2px       -0.005142 -0.002296 -0.001764 -0.002328 -0.004446 -0.002385
  0C   2py       -0.001792 -0.003399  0.001937  0.002238 -0.000536  0.002380
  0C   1dz2       0.000082  0.000128  0.000014 -0.000029 -0.000643  0.000076
  0C   1dxz       0.000020  0.000018  0.000014 -0.000010 -0.000130  0.000007
  0C   1dyz       0.000005 -0.000001  0.000003 -0.000002 -0.000052  0.000002
  0C   1dx2y2    -0.000162 -0.000080 -0.000176  0.000094  0.000780  0.000024
  0C   1dxy      -0.000072  0.000039 -0.000086  0.000040  0.000755 -0.000008
  1C   1s        -0.000050 -0.001064  0.113058 -0.011946 -0.988156 -0.004252
  1C   2s        -0.000140  0.001273  0.002183 -0.000847 -0.036714 -0.000383
  1C   1pz       -0.000027 -0.000042  0.000052 -0.000006 -0.000000  0.000002
  1C   1px        0.000386  0.000491 -0.000990  0.000039 -0.000078  0.000004
  1C   1py        0.000190  0.000789  0.000893  0.000253  0.000400 -0.000146
  1C   3s         0.002423 -0.008817  0.008421  0.003704  0.033243  0.007230
  1C   2pz        0.000751  0.000702 -0.000011  0.000089  0.000100 -0.000001
  1C   2px       -0.011470 -0.010693  0.001549 -0.000393 -0.001307  0.000573
  1C   2py       -0.000754 -0.000989 -0.006903 -0.005089 -0.001020 -0.002827
  1C   1dz2      -0.000048 -0.000514  0.000562 -0.000076  0.000688  0.000051
  1C   1dxz       0.000004 -0.000000  0.000065 -0.000012  0.000088  0.000013
  1C   1dyz       0.000008 -0.000036 -0.000059  0.000001 -0.000009  0.000001
  1C   1dx2y2    -0.000105 -0.000932 -0.000268  0.000066 -0.000261 -0.000107
  1C   1dxy      -0.000140  0.000224  0.001071 -0.000027  0.000326 -0.000020
  2C   1s        -0.000004  0.000042 -0.000859  0.038647 -0.002144  0.006742
  2C   2s        -0.000004  0.000205 -0.000598 -0.000697 -0.000008  0.000061
  2C   1pz        0.000002  0.000001  0.000011  0.000054 -0.000008 -0.000010
  2C   1px       -0.000058 -0.000028 -0.000161 -0.001010  0.000086  0.000161
  2C   1py        0.000127  0.000086 -0.000059  0.000824  0.000168 -0.000020
  2C   3s         0.000469 -0.002754  0.004484  0.012331  0.002742  0.006525
  2C   2pz       -0.000099  0.000052 -0.000187 -0.000386 -0.000123 -0.000219
  2C   2px        0.001830 -0.000509  0.002750  0.006096  0.001895  0.003240
  2C   2py       -0.001153 -0.001581  0.001069 -0.000003  0.000294  0.001093
  2C   1dz2       0.000015  0.000057 -0.000097  0.000585  0.000024  0.000081
  2C   1dxz       0.000000  0.000005 -0.000010  0.000060  0.000005  0.000006
  2C   1dyz       0.000001  0.000001 -0.000001 -0.000061 -0.000004  0.000000
  2C   1dx2y2     0.000027  0.000018 -0.000007 -0.000151 -0.000052  0.000043
  2C   1dxy      -0.000005  0.000006 -0.000011  0.001132  0.000054  0.000034
  3C   1s         0.000004 -0.000016  0.009758  0.992117 -0.010975  0.065364
  3C   2s         0.000031 -0.000088  0.000231  0.036170 -0.000023  0.004516
  3C   1pz       -0.000004 -0.000006  0.000017 -0.000017 -0.000001 -0.000084
  3C   1px        0.000079  0.000094 -0.000229  0.000113 -0.000004  0.001222
  3C   1py       -0.000030  0.000013 -0.000191  0.000798  0.000085  0.000560
  3C   3s        -0.000876  0.002364 -0.004906 -0.031707 -0.002931 -0.015715
  3C   2pz       -0.000061 -0.000081  0.000053  0.000154  0.000038  0.000292
  3C   2px        0.000966  0.000951 -0.000335 -0.001060 -0.000214 -0.003394
  3C   2py       -0.000119  0.001604 -0.002522 -0.006880 -0.001989 -0.006135
  3C   1dz2       0.000011 -0.000014 -0.000030 -0.000534  0.000071 -0.000650
  3C   1dxz       0.000000 -0.000004  0.000001 -0.000079  0.000009 -0.000140
  3C   1dyz      -0.000003 -0.000002  0.000005  0.000001  0.000002 -0.000046
  3C   1dx2y2     0.000005  0.000026 -0.000051  0.000348 -0.000016  0.000945
  3C   1dxy       0.000046  0.000033 -0.000102 -0.000129 -0.000009  0.000682
  4C   1s         0.000030  0.000104  0.050406  0.064941  0.009157 -0.991690
  4C   2s         0.000189  0.000482 -0.000317  0.000261  0.000229 -0.036671
  4C   1pz        0.000005  0.000008  0.000027 -0.000083  0.000006 -0.000041
  4C   1px       -0.000062 -0.000104 -0.000177  0.001217 -0.000099  0.000769
  4C   1py       -0.000062 -0.000092 -0.001282  0.000516 -0.000005 -0.000605
  4C   3s        -0.001319 -0.004862  0.011709  0.011563  0.003168  0.034430
  4C   2pz       -0.000046 -0.000129  0.000103  0.000347  0.000073  0.000339
  4C   2px        0.000817  0.002514 -0.002689 -0.005821 -0.001368 -0.006371
  4C   2py       -0.000456 -0.002213  0.005306  0.001720  0.001122  0.005093
  4C   1dz2       0.000070  0.000140  0.000578  0.000560  0.000131  0.000673
  4C   1dxz       0.000004  0.000010  0.000003  0.000123  0.000010  0.000075
  4C   1dyz       0.000004  0.000007  0.000053  0.000054  0.000008  0.000050
  4C   1dx2y2     0.000060  0.000092  0.001046 -0.000799  0.000088  0.000092
  4C   1dxy      -0.000032 -0.000042 -0.000428 -0.000815 -0.000068 -0.000530
  5C   1s        -0.000017  0.000031  0.987349 -0.011714  0.112965  0.050645
  5C   2s         0.000030 -0.000078  0.035959 -0.000502  0.005930  0.004040
  5C   1pz        0.000001  0.000002  0.000044 -0.000013  0.000061  0.000034
  5C   1px       -0.000086 -0.000116 -0.000608  0.000155 -0.001124 -0.000270
  5C   1py        0.000283  0.000501 -0.000351  0.000276  0.000859 -0.001329
  5C   3s         0.005768  0.009755 -0.031590 -0.005342 -0.011861 -0.015983
  5C   2pz        0.000055  0.000233 -0.000415 -0.000206 -0.000219 -0.000383
  5C   2px       -0.001196 -0.003811  0.005981  0.003041  0.003710  0.005196
  5C   2py        0.001411  0.000302  0.002695  0.001093 -0.001398  0.004228
  5C   1dz2      -0.000022 -0.000040 -0.000481  0.000002 -0.000753 -0.000644
  5C   1dxz       0.000013  0.000017 -0.000030 -0.000004 -0.000079 -0.000003
  5C   1dyz      -0.000003  0.000003 -0.000003  0.000007  0.000060 -0.000043
  5C   1dx2y2    -0.000226 -0.000307 -0.000314  0.000091  0.000177 -0.001120
  5C   1dxy      -0.000011 -0.000127 -0.000186 -0.000085 -0.001168  0.000231
  6C   1s        -0.000292 -0.995241 -0.000057 -0.000007  0.001057  0.000000
  6C   2s        -0.001154 -0.037140 -0.000497 -0.000121  0.001299  0.000187
  6C   1pz        0.000013 -0.000084 -0.000000  0.000001  0.000015  0.000001
  6C   1px       -0.000193  0.001460 -0.000029 -0.000012 -0.000066 -0.000008
  6C   1py        0.000022 -0.001069  0.000137 -0.000052 -0.000875 -0.000022
  6C   3s        -0.007778  0.018139  0.002270  0.002514 -0.006912  0.000058
  6C   2pz       -0.000845 -0.000760  0.000016  0.000041 -0.000163 -0.000008
  6C   2px        0.013955  0.012680  0.000102 -0.000317  0.001700 -0.000023
  6C   2py       -0.006560 -0.006638 -0.001699 -0.001656  0.003971  0.000793
  6C   1dz2      -0.000155  0.001211  0.000026 -0.000053 -0.000557  0.000024
  6C   1dxz      -0.000019  0.000154 -0.000008 -0.000004  0.000002 -0.000000
  6C   1dyz       0.000049 -0.000068 -0.000002 -0.000002 -0.000041  0.000001
  6C   1dx2y2     0.000159 -0.000438  0.000157 -0.000035 -0.001025  0.000046
  6C   1dxy      -0.000762  0.001308  0.000072  0.000010  0.000248  0.000002
  7C   1s         0.000065 -0.000776 -0.000511 -0.000036  0.000514  0.000133
  7C   2s         0.000787  0.001067 -0.000351 -0.000041  0.000344  0.000113
  7C   1pz        0.000000  0.000032 -0.000003 -0.000001  0.000007  0.000002
  7C   1px       -0.000047 -0.000460  0.000038  0.000015 -0.000095 -0.000012
  7C   1py        0.000232 -0.000257  0.000117 -0.000003 -0.000119 -0.000030
  7C   3s        -0.005924 -0.009219  0.000923  0.000244 -0.001044 -0.000329
  7C   2pz       -0.000055 -0.000206 -0.000010  0.000014 -0.000036 -0.000021
  7C   2px        0.000349  0.002367  0.000091 -0.000237  0.000607  0.000291
  7C   2py        0.002562  0.004551 -0.000186  0.000199 -0.000076  0.000009
  7C   1dz2       0.000101 -0.000491 -0.000033  0.000004  0.000063  0.000020
  7C   1dxz      -0.000015 -0.000117 -0.000005 -0.000000  0.000009  0.000003
  7C   1dyz       0.000019 -0.000037  0.000005  0.000002 -0.000007 -0.000000
  7C   1dx2y2     0.000443  0.000819  0.000037  0.000018 -0.000047 -0.000016
  7C   1dxy      -0.000181  0.000545 -0.000072 -0.000019  0.000118  0.000006
  8H   1s         0.000187  0.000253 -0.000100 -0.000101  0.000307 -0.000110
  8H   2s        -0.000790  0.000674 -0.000450 -0.000568 -0.000397 -0.000947
  9H   1s         0.000127  0.000039  0.000084 -0.000193  0.000083  0.000045
  9H   2s         0.000355 -0.000314  0.000850  0.001320  0.000317  0.000582
 10H   1s         0.000051  0.000086 -0.000082 -0.001361 -0.000038  0.000037
 10H   2s         0.000053  0.000383 -0.000306  0.002734 -0.000602 -0.001074
 11H   1s        -0.000008  0.000161 -0.001411 -0.000084  0.000109  0.000067
 11H   2s        -0.000431  0.000448  0.003234 -0.000636  0.000289 -0.000889
 12H   1s        -0.000023 -0.000100 -0.000209 -0.000218  0.000017  0.001324
 12H   2s        -0.000248 -0.000917  0.001283  0.001419  0.000269 -0.002481
 13O   1s        -0.995182 -0.000037 -0.000013 -0.000000 -0.000005  0.000002
 13O   2s        -0.030513 -0.001508 -0.000227 -0.000011  0.000039  0.000038
 13O   1pz        0.000099 -0.000050  0.000001  0.000001 -0.000004 -0.000001
 13O   1px       -0.001723  0.000872 -0.000009 -0.000020  0.000076  0.000009
 13O   1py        0.001323 -0.000609  0.000009 -0.000018 -0.000065  0.000013
 13O   3s         0.025513  0.011235  0.000794 -0.000008  0.000926 -0.000255
 13O   2pz       -0.000326 -0.000265 -0.000019 -0.000009  0.000014  0.000011
 13O   2px        0.005721  0.004606  0.000295  0.000103 -0.000101 -0.000146
 13O   2py       -0.004729 -0.003615 -0.000109  0.000208 -0.000653 -0.000116
 13O   1dz2      -0.000113 -0.001135 -0.000058 -0.000008  0.000150  0.000001
 13O   1dxz      -0.000012 -0.000147 -0.000009 -0.000003  0.000027  0.000002
 13O   1dyz       0.000021  0.000093  0.000000 -0.000001  0.000011  0.000000
 13O   1dx2y2     0.000035  0.000521  0.000034  0.000022 -0.000110 -0.000031
 13O   1dxy      -0.000341 -0.001651 -0.000013  0.000018 -0.000134 -0.000008
 14H   1s         0.000332  0.000583 -0.000048  0.000019  0.000098  0.000009
 14H   2s         0.001145  0.001337 -0.000797  0.000109 -0.000220 -0.000161
 15H   1s         0.000103  0.000428 -0.000035 -0.000017  0.000018  0.000011
 15H   2s         0.000316 -0.000945 -0.000003 -0.000037  0.000067  0.000008
 16H   1s         0.000104  0.000427 -0.000036 -0.000017  0.000018  0.000011
 16H   2s         0.000313 -0.000939 -0.000007 -0.000037  0.000070  0.000006
                      6         7         8         9        10        11   
                 -10.18862 -10.18646 -10.17709  -1.02785  -0.85810  -0.76714
                   2.00000   2.00000   2.00000   2.00000   2.00000   2.00000
                  --------  --------  --------  --------  --------  --------
  0C   1s        -0.106028 -0.989035  0.000164  0.008671  0.090178 -0.012563
  0C   2s        -0.001704 -0.036674 -0.000296 -0.016348 -0.170648  0.024943
  0C   1pz        0.000034  0.000040  0.000002  0.000504  0.002640 -0.004401
  0C   1px       -0.000280 -0.000767 -0.000025 -0.006557 -0.048497  0.054956
  0C   1py       -0.001314  0.000730 -0.000036 -0.007447  0.035172  0.072443
  0C   3s        -0.011079  0.034662  0.001307  0.007699 -0.109155  0.020621
  0C   2pz        0.000116 -0.000340 -0.000124 -0.000186  0.000234 -0.000242
  0C   2px       -0.002811  0.006490  0.001734  0.003727 -0.004493  0.003010
  0C   2py        0.004940 -0.005801  0.001247 -0.002940  0.005475  0.002779
  0C   1dz2      -0.000540  0.000678 -0.000098  0.001203  0.008703 -0.000995
  0C   1dxz      -0.000000  0.000062 -0.000018  0.000129  0.000959 -0.000623
  0C   1dyz      -0.000048  0.000053 -0.000002  0.000073  0.000200 -0.000092
  0C   1dx2y2    -0.001005  0.000303  0.000103  0.000221  0.000065  0.007533
  0C   1dxy       0.000369 -0.000548  0.000017 -0.000712 -0.000140  0.002569
  1C   1s         0.004675  0.029379  0.000529  0.022483  0.097379 -0.109656
  1C   2s         0.000264  0.003021 -0.000280 -0.043493 -0.185881  0.214571
  1C   1pz        0.000016  0.000080  0.000017 -0.000019 -0.000929 -0.002771
  1C   1px       -0.000200 -0.001135 -0.000206  0.005436  0.003860  0.039269
  1C   1py       -0.000259 -0.000614 -0.000236 -0.027613  0.054311  0.020487
  1C   3s         0.004726 -0.013891 -0.000154 -0.012153 -0.108934  0.153791
  1C   2pz        0.000121 -0.000258 -0.000109 -0.001649 -0.000257 -0.000181
  1C   2px       -0.001697  0.002295  0.001521  0.026823 -0.000136 -0.000324
  1C   2py       -0.000937  0.009008  0.000900 -0.009038  0.020568  0.016158
  1C   1dz2      -0.000056 -0.000660 -0.000047  0.003352  0.008339 -0.007100
  1C   1dxz      -0.000012 -0.000136  0.000002  0.000080  0.000982 -0.000739
  1C   1dyz      -0.000012 -0.000048  0.000015  0.000075  0.000152 -0.000117
  1C   1dx2y2     0.000057  0.000857 -0.000077  0.004394 -0.001066 -0.000505
  1C   1dxy       0.000183  0.000699 -0.000254  0.000703  0.000314 -0.000784
  2C   1s        -0.988677  0.106282  0.000043  0.001697  0.089089  0.080883
  2C   2s        -0.036196  0.006056 -0.000083 -0.002836 -0.168939 -0.156372
  2C   1pz        0.000057 -0.000038 -0.000000  0.000079  0.003761  0.002050
  2C   1px       -0.000867  0.000333  0.000014 -0.000838 -0.055142 -0.041043
  2C   1py       -0.000138  0.001368 -0.000039 -0.002068 -0.020905  0.043701
  2C   3s         0.032135 -0.017381  0.001106 -0.004644 -0.104140 -0.120669
  2C   2pz       -0.000463  0.000412  0.000002  0.000131  0.000362  0.000019
  2C   2px        0.006867 -0.005553 -0.000205 -0.001583 -0.005767 -0.000794
  2C   2py        0.002277 -0.004731  0.000760 -0.002695 -0.000223  0.003287
  2C   1dz2       0.000552 -0.000707 -0.000030  0.000246  0.008460  0.006397
  2C   1dxz       0.000042 -0.000006 -0.000002  0.000017  0.000939  0.000849
  2C   1dyz      -0.000009 -0.000044 -0.000000  0.000017  0.000184 -0.000160
  2C   1dx2y2     0.000218 -0.001182 -0.000024  0.000190 -0.000127 -0.003110
  2C   1dxy       0.000371  0.000224 -0.000009 -0.000153 -0.000002  0.004128
  3C   1s         0.039095 -0.002916  0.000034  0.000857  0.090655  0.106488
  3C   2s         0.003539 -0.000375 -0.000008 -0.001520 -0.171922 -0.207378
  3C   1pz        0.000050 -0.000002  0.000004  0.000034  0.001407 -0.000396
  3C   1px       -0.000969  0.000013 -0.000054 -0.000383 -0.010611  0.012312
  3C   1py        0.000906  0.000107 -0.000009 -0.000842 -0.058195 -0.030160
  3C   3s        -0.013932  0.007577 -0.000500 -0.002491 -0.110111 -0.150338
  3C   2pz       -0.000017 -0.000073  0.000026 -0.000012  0.000252 -0.000460
  3C   2px        0.001493  0.000389 -0.000286  0.000708 -0.002418  0.006431
  3C   2py       -0.006231  0.003811 -0.000580 -0.002334 -0.007370  0.003675
  3C   1dz2      -0.000637  0.000110 -0.000008  0.000101  0.008709  0.008276
  3C   1dxz      -0.000080  0.000015 -0.000001  0.000013  0.000952  0.000888
  3C   1dyz       0.000060 -0.000003  0.000001  0.000006  0.000202  0.000067
  3C   1dx2y2     0.000368 -0.000057  0.000003 -0.000010  0.000137  0.000002
  3C   1dxy      -0.001098  0.000068 -0.000017 -0.000067 -0.000167  0.001770
  4C   1s        -0.004485 -0.001578  0.000109  0.000973  0.092749  0.043654
  4C   2s        -0.000189  0.000499 -0.000253 -0.003117 -0.175597 -0.084863
  4C   1pz        0.000013  0.000005 -0.000002 -0.000033 -0.002360 -0.004518
  4C   1px       -0.000210 -0.000097  0.000041  0.000691  0.045206  0.060643
  4C   1py        0.000016  0.000057 -0.000008 -0.000861 -0.039439  0.053744
  4C   3s         0.005454 -0.006037  0.002124  0.013161 -0.113828 -0.055694
  4C   2pz        0.000107 -0.000178  0.000044  0.000032 -0.000199 -0.000831
  4C   2px       -0.002020  0.003288 -0.001009 -0.002385  0.004396  0.010210
  4C   2py        0.001619 -0.002358  0.001384  0.008939 -0.006699  0.015332
  4C   1dz2       0.000089  0.000088 -0.000082 -0.000117  0.008889  0.003282
  4C   1dxz       0.000008  0.000010 -0.000004  0.000001  0.000961  0.000844
  4C   1dyz       0.000005  0.000003 -0.000002 -0.000009  0.000196  0.000069
  4C   1dx2y2     0.000038 -0.000002 -0.000068 -0.000234  0.000265 -0.007325
  4C   1dxy      -0.000038 -0.000012 -0.000013  0.000048  0.000044 -0.001405
  5C   1s        -0.001185 -0.000694  0.000440  0.004348  0.096476 -0.063018
  5C   2s         0.000418 -0.000194 -0.000086 -0.008248 -0.183030  0.122800
  5C   1pz        0.000011  0.000011  0.000009 -0.000174 -0.003797  0.000837
  5C   1px       -0.000164 -0.000183 -0.000122  0.003793  0.056019 -0.028654
  5C   1py       -0.000022  0.000060 -0.000188 -0.005463  0.018469  0.077799
  5C   3s        -0.002905  0.007986 -0.001221 -0.029810 -0.111818  0.091897
  5C   2pz       -0.000145  0.000301 -0.000117 -0.000740 -0.000117 -0.000273
  5C   2px        0.001997 -0.004580  0.001701  0.010574  0.002373 -0.001206
  5C   2py        0.001475 -0.000940  0.001098  0.007074 -0.002108  0.026249
  5C   1dz2       0.000074  0.000034  0.000043  0.000659  0.009224 -0.004887
  5C   1dxz       0.000007 -0.000001 -0.000006  0.000031  0.001010 -0.000673
  5C   1dyz       0.000003  0.000004  0.000003 -0.000012  0.000195  0.000290
  5C   1dx2y2     0.000020  0.000076  0.000167  0.000521  0.000035  0.003290
  5C   1dxy      -0.000010 -0.000034  0.000009  0.000528  0.000153 -0.005618
  6C   1s         0.000001 -0.000029 -0.000764  0.119035  0.013927 -0.061583
  6C   2s         0.000179  0.000294 -0.001006 -0.225556 -0.026896  0.125101
  6C   1pz        0.000005  0.000012  0.000037 -0.008421  0.000903 -0.005412
  6C   1px       -0.000065 -0.000163 -0.000485  0.144843 -0.023695  0.098442
  6C   1py       -0.000027 -0.000075 -0.000382 -0.101837  0.055525 -0.093219
  6C   3s        -0.000394 -0.002472  0.006187 -0.078978 -0.028467  0.080573
  6C   2pz       -0.000092 -0.000147 -0.000338  0.002570 -0.000262 -0.001355
  6C   2px        0.001220  0.001757  0.004599 -0.041853  0.001003  0.022751
  6C   2py        0.000993  0.002636  0.002509  0.017522  0.017466 -0.013808
  6C   1dz2       0.000042  0.000106  0.000520  0.014833  0.001309 -0.003509
  6C   1dxz       0.000002  0.000013  0.000108  0.001940 -0.000095 -0.000199
  6C   1dyz       0.000003  0.000001  0.000047 -0.001217  0.000368 -0.000826
  6C   1dx2y2     0.000045 -0.000022 -0.000588 -0.007245  0.004455 -0.004957
  6C   1dxy      -0.000025  0.000011 -0.000653  0.021634 -0.004288  0.010346
  7C   1s         0.000083  0.000212  0.995297  0.019771  0.008059 -0.078815
  7C   2s         0.000084  0.000241  0.037675 -0.039313 -0.014804  0.150021
  7C   1pz       -0.000002 -0.000001  0.000013 -0.001832 -0.000219  0.001528
  7C   1px        0.000024  0.000022 -0.000186  0.026716  0.001872 -0.018431
  7C   1py        0.000011  0.000015 -0.000055  0.004581  0.007996 -0.024848
  7C   3s        -0.000939 -0.001718 -0.034014 -0.001149 -0.014209  0.131530
  7C   2pz       -0.000033 -0.000068 -0.000114 -0.000082 -0.000242  0.000106
  7C   2px        0.000470  0.000940  0.001648  0.003241  0.003041  0.000701
  7C   2py        0.000036  0.000152  0.000458 -0.013004  0.000620 -0.008051
  7C   1dz2       0.000003  0.000026 -0.000002  0.001892  0.000374 -0.001120
  7C   1dxz       0.000003  0.000005 -0.000002  0.000517  0.000030 -0.000105
  7C   1dyz      -0.000000  0.000001  0.000002  0.000119  0.000047 -0.000123
  7C   1dx2y2    -0.000032 -0.000028  0.000022 -0.004132  0.000316 -0.000681
  7C   1dxy      -0.000002 -0.000012 -0.000028 -0.001909 -0.000545  0.001463
  8H   1s         0.000264  0.001338 -0.000087 -0.005909 -0.032291  0.008587
  8H   2s        -0.001363 -0.002286  0.000375 -0.002609 -0.001530 -0.000671
  9H   1s         0.001351 -0.000010 -0.000050 -0.000484 -0.032851 -0.043760
  9H   2s        -0.002639 -0.000928 -0.000002 -0.000515 -0.003259 -0.007982
 10H   1s         0.000085  0.000055 -0.000050 -0.000295 -0.033957 -0.058861
 10H   2s        -0.001073  0.000614 -0.000140 -0.000574 -0.004252 -0.010287
 11H   1s        -0.000098  0.000077 -0.000106 -0.002380 -0.037751  0.042573
 11H   2s        -0.000701  0.001128 -0.001687 -0.002433 -0.002587  0.010828
 12H   1s         0.000037 -0.000124  0.000028 -0.000206 -0.034774 -0.023409
 12H   2s         0.000317 -0.001074  0.000620  0.001897 -0.004194 -0.004480
 13O   1s         0.000001 -0.000003 -0.000023  0.191232 -0.024105  0.050164
 13O   2s         0.000030  0.000026 -0.000529 -0.416876  0.054493 -0.115185
 13O   1pz       -0.000000 -0.000004  0.000012  0.007440 -0.000866  0.000325
 13O   1px        0.000005  0.000070 -0.000182 -0.128734  0.013104 -0.004581
 13O   1py       -0.000020 -0.000026 -0.000009  0.094329 -0.000344 -0.001356
 13O   3s         0.000207  0.000332  0.001140 -0.394058  0.052180 -0.114829
 13O   2pz        0.000006  0.000028 -0.000014  0.002505 -0.000167 -0.000145
 13O   2px       -0.000075 -0.000384  0.000338 -0.043780  0.002543  0.003176
 13O   2py       -0.000094 -0.000360 -0.000567  0.034814 -0.000449 -0.005412
 13O   1dz2       0.000046  0.000049 -0.000259  0.003928  0.000209 -0.001255
 13O   1dxz       0.000006  0.000009 -0.000024  0.000536 -0.000024 -0.000112
 13O   1dyz       0.000002  0.000001 -0.000006 -0.000690  0.000036  0.000027
 13O   1dx2y2    -0.000012 -0.000045 -0.000086 -0.003232  0.000769 -0.000340
 13O   1dxy      -0.000012  0.000005 -0.000012  0.010928 -0.000335 -0.000887
 14H   1s         0.000015  0.000065 -0.000641 -0.006260 -0.006895  0.052166
 14H   2s        -0.000076 -0.000292  0.006160 -0.005153 -0.004338  0.010655
 15H   1s         0.000031  0.000059 -0.000452 -0.008237 -0.002769  0.043220
 15H   2s         0.000037  0.000056  0.005911  0.000241  0.000442  0.007128
 16H   1s         0.000031  0.000059 -0.000451 -0.008250 -0.002761  0.043199
 16H   2s         0.000037  0.000052  0.005912  0.000217  0.000418  0.007168
                     12        13        14        15        16        17   
                  -0.74988  -0.72650  -0.62708  -0.60671  -0.54977  -0.50968
                   2.00000   2.00000   2.00000   2.00000   2.00000   2.00000
                  --------  --------  --------  --------  --------  --------
  0C   1s        -0.125087 -0.023551 -0.050850  0.092867 -0.003477  0.029583
  0C   2s         0.244134  0.045384  0.102319 -0.188238  0.010242 -0.058138
  0C   1pz        0.000227 -0.003269  0.006793  0.001952  0.010950 -0.001597
  0C   1px        0.003333  0.042416 -0.084869 -0.010561 -0.172821  0.056336
  0C   1py       -0.035509  0.046761 -0.112299 -0.101580  0.000611 -0.159006
  0C   3s         0.183984  0.037457  0.081940 -0.157580 -0.005827 -0.109211
  0C   2pz        0.000614 -0.000796  0.001966 -0.000692  0.004623  0.000510
  0C   2px       -0.010060  0.009119 -0.026478  0.021420 -0.076300 -0.000019
  0C   2py       -0.000171  0.017293 -0.022834 -0.050013  0.014825 -0.041137
  0C   1dz2      -0.009314 -0.001814 -0.002327  0.004336 -0.000372  0.002315
  0C   1dxz      -0.000837 -0.000541  0.000068  0.000693  0.000419  0.000548
  0C   1dyz      -0.000263 -0.000009  0.000165 -0.000183 -0.000275 -0.000211
  0C   1dx2y2    -0.003075  0.005248 -0.004262 -0.004059 -0.007755 -0.005214
  0C   1dxy       0.000355  0.000560 -0.004208  0.003598  0.002677  0.003076
  1C   1s        -0.037982 -0.053865  0.077136 -0.008473  0.034417  0.008838
  1C   2s         0.073987  0.104987 -0.157153  0.017435 -0.072065 -0.020050
  1C   1pz        0.006860  0.001382  0.001313 -0.012787 -0.004439 -0.001832
  1C   1px       -0.110658 -0.010451  0.007417  0.205500  0.024008  0.025977
  1C   1py        0.012614 -0.052727 -0.141909 -0.017730  0.230364  0.011711
  1C   3s         0.061177  0.091022 -0.124940  0.005203 -0.027178 -0.012108
  1C   2pz        0.001078 -0.000603  0.000817 -0.002294  0.000043  0.001640
  1C   2px       -0.018824  0.011482 -0.001008  0.035591 -0.007049 -0.014368
  1C   2py        0.007842 -0.008546 -0.058648  0.004187  0.033056 -0.057987
  1C   1dz2      -0.002435 -0.003198  0.002319 -0.000111 -0.000002 -0.000511
  1C   1dxz      -0.000603 -0.000461 -0.000100  0.000271  0.000231  0.000666
  1C   1dyz      -0.000564  0.000301  0.000263  0.000443 -0.000188 -0.000459
  1C   1dx2y2     0.003485  0.002769  0.005992 -0.002898 -0.004019 -0.012238
  1C   1dxy       0.008729 -0.005194 -0.002178 -0.007532  0.002148  0.004608
  2C   1s        -0.091766  0.052402 -0.047861 -0.080236 -0.045563 -0.031172
  2C   2s         0.179426 -0.103129  0.096341  0.162843  0.094504  0.062620
  2C   1pz       -0.000276  0.000691  0.002490  0.002243  0.010309 -0.005445
  2C   1px       -0.011639 -0.019949 -0.065901 -0.008791 -0.164971  0.071239
  2C   1py        0.079874  0.045773  0.133550 -0.134459  0.010405  0.073827
  2C   3s         0.130462 -0.078162  0.067038  0.127204  0.103476  0.068924
  2C   2pz        0.000598 -0.000209  0.001794  0.002296  0.003682 -0.002067
  2C   2px       -0.010516  0.000349 -0.033127 -0.027409 -0.057053  0.027083
  2C   2py        0.007235  0.015005  0.025381 -0.045804 -0.002906  0.027880
  2C   1dz2      -0.006688  0.003662 -0.002194 -0.003730 -0.002303 -0.000336
  2C   1dxz      -0.000475  0.000521 -0.000138 -0.000805 -0.000308 -0.000411
  2C   1dyz      -0.000523 -0.000158 -0.000558  0.000077 -0.000189 -0.000219
  2C   1dx2y2    -0.005057 -0.002515 -0.003075  0.006465  0.000472  0.005025
  2C   1dxy       0.004945  0.003265  0.007425 -0.001227  0.002300  0.004304
  3C   1s         0.031651  0.065221  0.097565 -0.014663  0.034240  0.039738
  3C   2s        -0.062041 -0.129053 -0.198733  0.030155 -0.068938 -0.081577
  3C   1pz        0.006760 -0.001862  0.000584  0.012379  0.001197 -0.005780
  3C   1px       -0.109118  0.030859 -0.022105 -0.199390 -0.008055  0.047314
  3C   1py        0.012295 -0.007048  0.065647  0.019443 -0.054258  0.222533
  3C   3s        -0.047027 -0.097735 -0.150046  0.023116 -0.050560 -0.095784
  3C   2pz        0.000986 -0.000321 -0.000713  0.003330 -0.000107 -0.002054
  3C   2px       -0.017020  0.002897  0.000860 -0.052185  0.003578  0.016443
  3C   2py        0.006160  0.010930  0.050919 -0.001547 -0.010026  0.078453
  3C   1dz2       0.002296  0.004472  0.004683 -0.000691  0.000782  0.002582
  3C   1dxz       0.000576  0.000423  0.000362  0.000230 -0.000299 -0.000082
  3C   1dyz       0.000595 -0.000058  0.000299  0.000439  0.000239  0.000217
  3C   1dx2y2    -0.003219  0.000568  0.002923 -0.003251  0.006521  0.006037
  3C   1dxy      -0.009251  0.002553 -0.002575 -0.007798 -0.002216 -0.001401
  4C   1s         0.123824 -0.004149 -0.016680  0.091631 -0.045653 -0.034136
  4C   2s        -0.241863  0.008755  0.033378 -0.186485  0.094478  0.069287
  4C   1pz        0.000727 -0.003425 -0.008620 -0.001250 -0.009872  0.002914
  4C   1px       -0.004009  0.042616  0.109460  0.000510  0.166040 -0.062055
  4C   1py       -0.037004  0.057806  0.133814  0.096630 -0.050101  0.079906
  4C   3s        -0.182528 -0.006335  0.020008 -0.137385  0.103766  0.075079
  4C   2pz        0.000697 -0.000237 -0.002538  0.000868 -0.003889  0.000707
  4C   2px       -0.011289  0.003454  0.034326 -0.023727  0.064832 -0.017143
  4C   2py        0.001030  0.001232  0.029651  0.049381 -0.016073  0.030155
  4C   1dz2       0.009179 -0.000153 -0.000807  0.004058 -0.002468 -0.000299
  4C   1dxz       0.000835  0.000362  0.000451  0.000651 -0.000215 -0.000056
  4C   1dyz       0.000250  0.000036  0.000080 -0.000247  0.000075  0.000446
  4C   1dx2y2     0.002789 -0.005619 -0.007897 -0.004128 -0.000457  0.001717
  4C   1dxy      -0.000206 -0.001734 -0.003117  0.004502 -0.002133 -0.006830
  5C   1s         0.091462 -0.059453 -0.070818 -0.079286  0.002746  0.029798
  5C   2s        -0.178981  0.117077  0.142694  0.160413 -0.002185 -0.059301
  5C   1pz        0.000134  0.001603 -0.002436 -0.002641 -0.010657  0.009896
  5C   1px       -0.018811 -0.025933  0.057624  0.015007  0.180023 -0.133805
  5C   1py        0.081761  0.004878 -0.094131  0.135783 -0.056791 -0.114466
  5C   3s        -0.134003  0.091184  0.111605  0.139117 -0.018001 -0.094604
  5C   2pz        0.000719 -0.000344 -0.001825 -0.002467 -0.004420  0.002279
  5C   2px       -0.012527  0.008664  0.031527  0.027401  0.069788 -0.030297
  5C   2py        0.007424 -0.014760 -0.014832  0.057469 -0.001675 -0.027072
  5C   1dz2       0.006792 -0.004097 -0.003449 -0.003763 -0.000396  0.002151
  5C   1dxz       0.000478 -0.000573 -0.000527 -0.000808  0.000373  0.000744
  5C   1dyz       0.000533  0.000042 -0.000410  0.000067 -0.000230 -0.000019
  5C   1dx2y2     0.005168  0.002279  0.001301  0.006483 -0.006868 -0.007944
  5C   1dxy      -0.005002 -0.001606  0.005503 -0.001032  0.002137 -0.000546
  6C   1s        -0.002766  0.046611  0.066812 -0.007463 -0.081756 -0.078629
  6C   2s         0.005636 -0.094392 -0.140937  0.015471  0.176044  0.170021
  6C   1pz        0.001474  0.010373 -0.002334 -0.000635 -0.000530 -0.005306
  6C   1px       -0.015504 -0.145888  0.005221  0.013652  0.026307  0.068862
  6C   1py       -0.040446 -0.054312  0.165159 -0.009412 -0.101568  0.063181
  6C   3s         0.002279 -0.075146 -0.104750  0.006898  0.163467  0.192059
  6C   2pz        0.000026  0.002106  0.000486 -0.001152 -0.001289 -0.002733
  6C   2px       -0.000256 -0.030761 -0.013385  0.019774  0.026834  0.045890
  6C   2py       -0.000759 -0.006127  0.032990 -0.008474 -0.041481 -0.023939
  6C   1dz2      -0.000046  0.002378  0.001675 -0.000069 -0.000500 -0.000876
  6C   1dxz       0.000100  0.000750 -0.000245  0.000231  0.000024  0.000091
  6C   1dyz      -0.000225  0.000661  0.000409  0.000436 -0.000209 -0.000110
  6C   1dx2y2    -0.002097 -0.005220  0.007321 -0.002344 -0.001679 -0.003140
  6C   1dxy       0.003063 -0.010119 -0.004301 -0.007220  0.002681  0.000823
  7C   1s         0.016024  0.162821 -0.046738  0.028617  0.034513  0.023359
  7C   2s        -0.030288 -0.312836  0.090966 -0.056518 -0.068725 -0.044014
  7C   1pz       -0.000135 -0.001299 -0.003151  0.001433  0.006209  0.011991
  7C   1px        0.001931  0.018905  0.039056 -0.015670 -0.078815 -0.174049
  7C   1py        0.000171  0.002781  0.045955 -0.029714 -0.079256 -0.031355
  7C   3s        -0.029538 -0.292664  0.100639 -0.070499 -0.082499 -0.060203
  7C   2pz       -0.000263  0.000296 -0.000571  0.000836  0.002059  0.004151
  7C   2px        0.003443 -0.004767  0.006078 -0.009668 -0.024834 -0.063401
  7C   2py        0.000421  0.001337  0.014968 -0.009498 -0.030159  0.001299
  7C   1dz2       0.000035 -0.000922  0.003177 -0.002206 -0.004914 -0.002526
  7C   1dxz       0.000004 -0.000145  0.000509 -0.000313 -0.000838 -0.000789
  7C   1dyz      -0.000026 -0.000110  0.000390 -0.000130 -0.000478 -0.000590
  7C   1dx2y2    -0.000060  0.000358 -0.001145  0.000561  0.002836  0.005941
  7C   1dxy       0.000397  0.001360 -0.005125  0.001392  0.006231  0.008893
  8H   1s         0.071322  0.015433  0.036375 -0.097335  0.063212 -0.104096
  8H   2s         0.009324  0.003624  0.014203 -0.023963  0.018016 -0.074981
  9H   1s         0.053778 -0.034604  0.043181  0.089580  0.113142 -0.016846
  9H   2s         0.009566 -0.007346  0.011752  0.030617  0.058598 -0.013751
 10H   1s        -0.019066 -0.043425 -0.103031  0.017077 -0.005174 -0.157594
 10H   2s        -0.003187 -0.007960 -0.031556  0.005549  0.001711 -0.098358
 11H   1s        -0.057631  0.028891  0.067966  0.091962  0.069329 -0.122891
 11H   2s        -0.010980 -0.003634  0.024199  0.028384  0.035731 -0.089051
 12H   1s        -0.074205  0.001974  0.013830 -0.101223  0.119021 -0.016954
 12H   2s        -0.013954  0.000651  0.003518 -0.034585  0.061936 -0.016459
 13O   1s         0.010202 -0.033450 -0.036253 -0.009506  0.042820  0.045504
 13O   2s        -0.023944  0.076422  0.084992  0.021390 -0.101177 -0.104687
 13O   1pz        0.000859  0.002065 -0.000543 -0.000587 -0.002101 -0.009625
 13O   1px       -0.011172 -0.026356 -0.002396  0.007782  0.045064  0.150425
 13O   1py       -0.011104 -0.026013  0.057910  0.012616 -0.075574 -0.027369
 13O   3s        -0.024019  0.082841  0.095510  0.038329 -0.123013 -0.146698
 13O   2pz        0.000419  0.001023 -0.000015 -0.000566 -0.001258 -0.005361
 13O   2px       -0.005200 -0.013561 -0.005660  0.007961  0.026717  0.082824
 13O   2py       -0.006951 -0.009103  0.032170  0.006298 -0.043800 -0.010574
 13O   1dz2      -0.000450  0.000924  0.002264  0.000874 -0.003578 -0.004123
 13O   1dxz       0.000068  0.000391 -0.000049  0.000034 -0.000235 -0.000900
 13O   1dyz      -0.000014 -0.000004 -0.000198  0.000053  0.000272  0.000345
 13O   1dx2y2    -0.001769 -0.004140  0.003858  0.001159 -0.001686  0.007263
 13O   1dxy      -0.000207 -0.000369  0.004385 -0.000425 -0.005498 -0.005262
 14H   1s        -0.011652 -0.102649  0.039271 -0.013754 -0.032698 -0.091743
 14H   2s        -0.006083 -0.017067  0.019479  0.006508 -0.016102 -0.062568
 15H   1s        -0.009965 -0.105524  0.048093 -0.030768 -0.055365 -0.037527
 15H   2s        -0.002506 -0.023805  0.019115 -0.010817 -0.028702 -0.024517
 16H   1s        -0.009966 -0.105529  0.048137 -0.030823 -0.055440 -0.037427
 16H   2s        -0.002528 -0.023802  0.019133 -0.010772 -0.028698 -0.024502
                     18        19        20        21        22        23   
                  -0.46282  -0.45412  -0.44702  -0.43682  -0.42553  -0.40712
                   2.00000   2.00000   2.00000   2.00000   2.00000   2.00000
                  --------  --------  --------  --------  --------  --------
  0C   1s         0.044032 -0.032277 -0.015766 -0.000061 -0.014042 -0.011685
  0C   2s        -0.092707  0.065064  0.031545  0.000146  0.031504  0.018577
  0C   1pz       -0.010427 -0.004453  0.007632  0.047901 -0.012730 -0.003764
  0C   1px        0.146307  0.037797 -0.111621  0.003198  0.235868  0.033209
  0C   1py        0.092692  0.158920 -0.042803  0.000637 -0.181288  0.114467
  0C   3s        -0.095375  0.110974  0.018226  0.000041  0.072562  0.149053
  0C   2pz       -0.005282 -0.000212  0.000717  0.028578 -0.005577 -0.006237
  0C   2px        0.070914 -0.007466 -0.016651  0.001678  0.096583  0.091100
  0C   2py        0.065098  0.046642  0.027642  0.000312 -0.044059  0.030301
  0C   1dz2       0.000752 -0.001487 -0.000802 -0.000356  0.002115 -0.001666
  0C   1dxz       0.000019 -0.000231  0.000650  0.003063  0.000389 -0.000325
  0C   1dyz      -0.000563  0.000420  0.000408  0.000928 -0.000511  0.000193
  0C   1dx2y2    -0.000764  0.002327 -0.009894  0.000177 -0.004079  0.002666
  0C   1dxy       0.008999 -0.006762 -0.008651  0.000091  0.007966 -0.003109
  1C   1s        -0.023465  0.034818  0.053496  0.000042 -0.013417 -0.000878
  1C   2s         0.050653 -0.071859 -0.110503 -0.000071  0.029032  0.001861
  1C   1pz        0.008692  0.011506 -0.002448  0.104413  0.007409  0.004135
  1C   1px       -0.159118 -0.179835  0.006805  0.006338 -0.109189 -0.075063
  1C   1py        0.114556 -0.017420  0.158516  0.001417 -0.043090  0.017631
  1C   3s         0.050816 -0.068715 -0.183058 -0.000191  0.036295 -0.010823
  1C   2pz        0.000176  0.002842 -0.000270  0.049372 -0.001546 -0.008859
  1C   2px       -0.002384 -0.037315  0.001319  0.002745  0.027678  0.132383
  1C   2py       -0.002370 -0.040866  0.013671  0.000613 -0.019967  0.009191
  1C   1dz2       0.000066 -0.000221  0.000035 -0.000163  0.000225  0.000471
  1C   1dxz       0.000482 -0.000350  0.000027  0.000561 -0.000342 -0.000154
  1C   1dyz      -0.000008  0.000091 -0.000229  0.004701 -0.000676 -0.000446
  1C   1dx2y2    -0.007249  0.005312 -0.001117 -0.000011  0.003523  0.001790
  1C   1dxy      -0.001261 -0.000644  0.003380  0.000328  0.011379  0.007228
  2C   1s        -0.033098  0.030285  0.007123  0.000019 -0.020110  0.005336
  2C   2s         0.067332 -0.058487 -0.013271 -0.000030  0.043852 -0.006254
  2C   1pz        0.001602 -0.006745 -0.015252  0.024967 -0.013465 -0.003962
  2C   1px        0.015066  0.127842  0.223431  0.001941  0.193728  0.083388
  2C   1py       -0.203533 -0.109631  0.089758  0.000306  0.094382 -0.116034
  2C   3s         0.102654 -0.101506  0.005706 -0.000075  0.074102 -0.055071
  2C   2pz        0.000839 -0.001809 -0.004784  0.009592 -0.004393  0.001329
  2C   2px       -0.004164  0.037779  0.063800  0.000754  0.068276 -0.013110
  2C   2py       -0.046280 -0.046162  0.059217  0.000044  0.003220 -0.046945
  2C   1dz2      -0.001253  0.001727  0.002047 -0.000135  0.001568  0.001152
  2C   1dxz      -0.000790  0.000604  0.000555  0.001032  0.000665  0.000219
  2C   1dyz      -0.000051  0.000455  0.000658  0.001154 -0.000246  0.000300
  2C   1dx2y2     0.009814 -0.005054 -0.003157  0.000038 -0.008341 -0.000663
  2C   1dxy       0.002310 -0.007581 -0.010308  0.000077  0.002744 -0.004549
  3C   1s         0.025808 -0.030971 -0.031487 -0.000034  0.008967 -0.000517
  3C   2s        -0.051142  0.062195  0.066355  0.000070 -0.018746  0.000578
  3C   1pz        0.008107  0.011596 -0.005548  0.018745  0.007502  0.008807
  3C   1px       -0.156820 -0.173510  0.048320  0.000932 -0.114164 -0.147038
  3C   1py        0.145674 -0.050876  0.198748  0.000244 -0.021373  0.030235
  3C   3s        -0.071406  0.085438  0.105013  0.000156 -0.032072  0.017495
  3C   2pz        0.003549  0.003750 -0.002338  0.011314 -0.000030  0.003762
  3C   2px       -0.064629 -0.057680  0.024922  0.000724  0.003454 -0.064259
  3C   2py        0.042325 -0.008163  0.059398  0.000158 -0.014472  0.019712
[...]
      2       0.002720  -0.000188  -0.001921  -0.007287  -0.013163  -0.009599
      3       0.148231   0.001563   0.037213  -0.036486  -0.268640   0.012921
      4      -0.005786  -0.000951  -0.031493  -0.122985   0.043663  -0.191509
      5      -0.009351  -0.002964  -0.001837   0.003856   0.016538   0.001564
      6      -0.013919  -0.001017  -0.029072  -0.087581  -0.177168   0.043452
      7      -0.136414  -0.000668  -0.004698   0.112291   0.043567  -0.305647
      8       0.002579   0.000381   0.001889   0.004149   0.010674   0.001064
      9       0.113377   0.001012   0.018869   0.009361   0.361914  -0.003860
     10      -0.014909  -0.000964  -0.028136  -0.090162  -0.031431   0.145415
     11      -0.006975  -0.000289  -0.000831   0.000535  -0.022525  -0.001572
     12       0.016565   0.001128   0.032066   0.094529  -0.232358  -0.094499
     13       0.134336   0.001867   0.043963   0.074162  -0.055265  -0.251586
     14      -0.002745   0.000403  -0.002611  -0.006916   0.015398   0.009172
     15      -0.064329  -0.001362  -0.036718  -0.069425   0.168645  -0.049925
     16      -0.079780   0.000175   0.012879   0.077225  -0.122760   0.297952
     17       0.005070   0.001234   0.002123   0.003422  -0.009124  -0.000599
     18       0.001972   0.000352  -0.028072   0.017648  -0.035434  -0.028838
     19      -0.022484  -0.000993  -0.027073   0.047506   0.047862   0.041348
     20      -0.000020   0.024705   0.000976  -0.001628   0.001861   0.001415
     21      -0.015263   0.006172   0.062660  -0.033497   0.004271  -0.001088
     22       0.013777  -0.000340  -0.019234   0.001558   0.000797  -0.003494
     23       0.000808   0.052844  -0.006624   0.002534  -0.000383   0.000157
     24      -0.134021  -0.004712  -0.121448  -0.201607  -0.094492  -0.311367
     25       0.003948  -0.004287  -0.126270  -0.332353  -0.246994  -0.194646
     26       0.008514  -0.001857   0.009459   0.017060   0.009171   0.022234
     27      -0.223721  -0.001175  -0.013320   0.104183  -0.129202  -0.207587
     28       0.374781  -0.000888  -0.063105  -0.415742  -0.139586   0.325822
     29       0.009470   0.000819   0.001594  -0.001403   0.009976   0.009129
     30      -0.584849  -0.006162  -0.123613  -0.052888  -0.521165   0.051223
     31       0.095691  -0.000036  -0.010957  -0.099309   0.112026   0.154849
     32       0.035827  -0.001234   0.008037   0.004586   0.031612  -0.005229
     33      -0.153700  -0.002720  -0.028076   0.114952  -0.000170   0.195802
     34       0.124830  -0.000891  -0.032511  -0.444685   0.356899  -0.359540
     35       0.008362  -0.020031   0.002848  -0.001460  -0.004713  -0.007818
     36      -0.305792  -0.005203  -0.129297  -0.225862   0.019135   0.271133
     37      -0.244164  -0.005965  -0.156517  -0.340205   0.293225   0.189593
     38       0.022400   0.001603   0.010131   0.018616  -0.004918  -0.019566
     39      -0.021683   0.000151   0.009030  -0.004311   0.041835   0.015413
     40       0.021798   0.000039   0.002742  -0.001632  -0.041987  -0.010740
     41       0.001210  -0.004520  -0.000422   0.000285  -0.002303  -0.000900
     42       0.101604  -0.060114  -0.284063   0.159964  -0.018305   0.041295
     43       0.135823  -0.023820  -0.408571   0.221444  -0.019660   0.050419
     44      -0.006424  -0.711659   0.057580  -0.016624   0.002273  -0.003643
     45       0.063301  -0.471015  -0.188589   0.097066  -0.014455   0.004408
     46      -0.194678   0.185110   0.423967  -0.178565   0.013228  -0.031252
     47       0.142196  -0.035161  -0.294974   0.117451  -0.007143   0.021457
     48       0.041075   0.448622  -0.190717   0.084505  -0.014016   0.001587
     49      -0.196756  -0.148618   0.445918  -0.182623   0.013797  -0.031927
     50      -0.145250  -0.067836   0.317317  -0.126843   0.008923  -0.021357
                 42         43         44         45         46         47    
      0       0.072767  -0.000138   0.000002   0.000309   0.006037   0.010029
      1       0.037045   0.000003  -0.000001  -0.000048  -0.003841  -0.006334
      2      -0.005126   0.000009   0.000022  -0.000019  -0.000335  -0.000557
      3      -0.114747  -0.000410  -0.000016   0.000831  -0.000120   0.000395
      4       0.002007   0.000165  -0.000004  -0.000007  -0.000457   0.000182
      5       0.007378   0.000024  -0.000260  -0.000053   0.000014  -0.000027
      6      -0.027934  -0.000094   0.000001  -0.000491  -0.036469  -0.055500
      7      -0.014521  -0.000018   0.000001  -0.000176  -0.015241  -0.021462
      8       0.001936   0.000007   0.000011   0.000033   0.002496   0.003778
      9       0.036360  -0.000021   0.000001   0.000196   0.008630   0.004468
     10       0.008360  -0.000032  -0.000000   0.001272   0.056316   0.006157
     11      -0.002404   0.000002   0.000002  -0.000028  -0.001248  -0.000360
     12      -0.038541  -0.000099   0.000003   0.004206   0.034626  -0.045531
     13      -0.044187  -0.000063  -0.000001  -0.002831  -0.029355   0.036173
     14       0.002992   0.000007   0.000000  -0.000229  -0.001817   0.002421
     15       0.026435   0.002496  -0.000029  -0.015664  -0.009179   0.015378
     16       0.042662   0.001282  -0.000013  -0.006180  -0.002130   0.003621
     17      -0.002188  -0.000175   0.000020   0.001067   0.000603  -0.001013
     18       0.638340   0.001116  -0.000070  -0.000504   0.000059   0.000142
     19      -0.431420   0.000263  -0.000011  -0.002145   0.000201  -0.000175
     20      -0.037294  -0.000081  -0.000918   0.000061  -0.000007  -0.000007
     21      -0.042193  -0.032004  -0.006014   0.053999  -0.004101   0.004285
     22       0.023676  -0.041504  -0.000887  -0.071894   0.005010  -0.005035
     23       0.002533   0.002321  -0.091399  -0.002806   0.000223  -0.000238
     24      -0.036210   0.002139  -0.000025  -0.004026  -0.071437  -0.116576
     25      -0.125878  -0.001405   0.000010   0.002053   0.058374   0.094997
     26       0.004121  -0.000118  -0.000146   0.000228   0.003799   0.006205
     27      -0.012853   0.000653  -0.000004   0.005897   0.437181   0.640284
     28      -0.054181   0.000080  -0.000001   0.002320   0.168888   0.245702
     29       0.001483  -0.000042  -0.000024  -0.000402  -0.029756  -0.043562
     30      -0.032327   0.000138  -0.000000  -0.002744  -0.103524  -0.016375
     31       0.020978   0.000394   0.000001  -0.016112  -0.666547  -0.075558
     32       0.001808  -0.000013  -0.000002   0.000372   0.014859   0.001979
     33       0.053950  -0.026249   0.000313   0.176266   0.113449  -0.184787
     34      -0.021202  -0.007246   0.000099   0.063062   0.041155  -0.066537
     35      -0.003185   0.001721  -0.000293  -0.011872  -0.007663   0.012480
     36       0.034965   0.001431  -0.000037  -0.050380  -0.417864   0.521313
     37       0.048303  -0.001133   0.000026   0.039854   0.337177  -0.418131
     38      -0.002778  -0.000076  -0.000040   0.002679   0.022145  -0.027661
     39      -0.411577   0.000155   0.000019  -0.000259  -0.000011  -0.000148
     40       0.292388  -0.000004   0.000001   0.000558  -0.000088  -0.000042
     41       0.023930  -0.000010   0.000282   0.000009   0.000002   0.000010
     42      -0.189907   0.302410  -0.003266  -0.683528   0.051859  -0.054101
     43      -0.163374  -0.265771   0.001642   0.577936  -0.044367   0.046375
     44       0.013898  -0.017979  -0.017032   0.040761  -0.003079   0.003208
     45       0.073250   0.067872   0.078879   0.041120  -0.002613   0.002403
     46       0.069135   0.381621   0.430427   0.151082  -0.009314   0.008805
     47      -0.057660   0.519009   0.549645   0.222146  -0.013836   0.013174
     48       0.082263  -0.003464  -0.003203   0.010535  -0.000704   0.000584
     49       0.070221   0.369008  -0.421304   0.148128  -0.009103   0.008592
     50       0.045874  -0.527526   0.565861  -0.230521   0.014323  -0.013604
                  48         49         50    
      0       0.012956   0.009671   0.063151
      1      -0.008325  -0.008823  -0.054046
      2      -0.000717  -0.000504  -0.003328
      3       0.000160  -0.001911  -0.001573
      4      -0.000710   0.001965  -0.001225
      5      -0.000001   0.000096   0.000116
      6      -0.041464  -0.002535   0.021078
      7      -0.012900   0.000129   0.011062
      8       0.002784   0.000159  -0.001473
      9      -0.009521  -0.003305   0.000293
     10      -0.063186  -0.010992   0.008058
     11       0.001391   0.000346  -0.000119
     12       0.027918   0.022633  -0.005398
     13      -0.018589  -0.020427   0.004182
     14      -0.001530  -0.001172   0.000289
     15      -0.021377   0.073586  -0.009530
     16      -0.005994   0.027611  -0.003175
     17       0.001420  -0.004979   0.000640
     18       0.000035   0.000710   0.001129
     19       0.000036   0.000241  -0.000840
     20      -0.000003  -0.000048  -0.000064
     21      -0.003886   0.008953  -0.001292
     22       0.004410  -0.009702   0.001337
     23       0.000220  -0.000514   0.000075
     24      -0.145763  -0.117159  -0.729626
     25       0.118284   0.098647   0.608702
     26       0.007764   0.006201   0.038665
     27       0.452795   0.024344  -0.232930
     28       0.169435   0.008077  -0.092131
     29      -0.030751  -0.001643   0.015888
     30       0.108950   0.020773  -0.011552
     31       0.704485   0.119843  -0.080922
     32      -0.015676  -0.002811   0.001740
     33       0.249751  -0.847528   0.104617
     34       0.090832  -0.317190   0.038995
     35      -0.016876   0.057384  -0.007082
     36      -0.292152  -0.253248   0.056610
     37       0.229413   0.206080  -0.045262
     38       0.015566   0.013404  -0.003004
     39      -0.000072  -0.000161  -0.000732
     40      -0.000086  -0.000292  -0.000059
     41       0.000006   0.000014   0.000049
     42       0.049290  -0.114056   0.015902
     43      -0.042557   0.100097  -0.014154
     44      -0.002916   0.006712  -0.000934
     45      -0.002024   0.003947  -0.000112
     46      -0.007239   0.013876  -0.000744
     47      -0.010895   0.021615  -0.001808
     48      -0.000514   0.000950   0.000143
     49      -0.007051   0.013495  -0.000705
     50       0.011237  -0.022253   0.001817


-----------
IR SPECTRUM
-----------

 Mode    freq (cm**-1)   T**2         TX         TY         TZ
-------------------------------------------------------------------
   7:        43.02    3.705932  ( -0.128221  -0.024535  -1.920648)
   8:       156.00    0.101271  ( -0.021964   0.003460  -0.317453)
   9:       238.10    5.639581  ( -0.452815  -2.330511   0.057096)
  10:       375.55    0.783459  (  0.881389  -0.059536  -0.055388)
  11:       414.03    0.000041  (  0.002297  -0.004494   0.003884)
  12:       435.72    0.003667  (  0.002320  -0.017720  -0.057858)
  13:       470.94    1.064988  ( -0.568320   0.861196   0.018495)
  14:       581.04   25.529401  (  2.084650   4.598765  -0.187081)
  15:       620.04    9.901368  ( -0.187138  -0.012695  -3.141049)
  16:       631.33    0.892410  (  0.491639   0.805330  -0.046306)
  17:       703.44   26.639633  ( -0.320680  -0.061116  -5.151025)
  18:       737.20    0.116285  (  0.017489  -0.340482   0.007189)
  19:       781.06   26.926960  (  0.325821   0.064472   5.178479)
  20:       862.20    0.449887  ( -0.050052  -0.017609  -0.668634)
  21:       940.09    1.376608  (  0.066557   0.015584   1.171296)
  22:       983.27    1.309003  ( -0.204344  -0.519772   0.998541)
  23:       983.52   23.755581  (  2.228576   4.334016  -0.073007)
  24:      1010.59    0.676510  ( -0.061807  -0.021453  -0.819896)
  25:      1017.12    0.589740  ( -0.158756  -0.751005   0.022984)
  26:      1051.48    5.367618  ( -1.070831  -2.052268   0.095574)
  27:      1052.35    4.578739  ( -0.153406  -0.023721  -2.134161)
  28:      1092.67    2.783626  (  1.405309   0.892588  -0.109628)
  29:      1118.89    5.354245  ( -2.278787  -0.370317   0.155687)
  30:      1192.99    1.079480  (  0.052913  -1.037580   0.010458)
  31:      1212.90   19.365259  ( -1.577154  -4.105270   0.156862)
  32:      1281.52  220.813831  ( -5.112458 -13.943198   0.513651)
  33:      1346.43    5.033989  ( -0.496267  -2.187342   0.056948)
  34:      1366.54    2.841301  ( -1.599928   0.522383   0.092991)
  35:      1416.52   28.327100  ( -3.510126  -3.991233   0.275991)
  36:      1491.45   10.528156  ( -2.389385  -2.187839   0.179872)
  37:      1504.72    5.479624  ( -0.328147  -0.055942  -2.317070)
  38:      1508.11   14.950749  ( -3.776840  -0.742309   0.367703)
  39:      1541.16    2.663053  (  1.380371   0.863296  -0.111119)
  40:      1636.02    8.884213  ( -1.132519   2.756792   0.041384)
  41:      1655.86   22.080810  ( -0.251364   4.692119  -0.040519)
  42:      1768.45  160.055996  (  8.435997  -9.417418  -0.449661)
  43:      3067.79    2.833694  ( -1.236100  -1.139514   0.085193)
  44:      3126.80    5.863019  ( -0.153049  -0.024500  -2.416401)
  45:      3166.88   15.223988  (  2.733884  -2.779408  -0.157349)
  46:      3183.81    0.166025  ( -0.297173   0.278209   0.017692)
  47:      3194.78   12.363901  ( -3.329194   1.114725   0.194318)
  48:      3206.30   26.606412  ( -1.974075  -4.761667   0.189649)
  49:      3221.80   18.224291  (  4.221731  -0.575131  -0.265526)
  50:      3226.87    4.168138  (  1.322259   1.552351  -0.099872)

The first frequency considered to be a vibration is 7
The total number of vibrations considered is 44


--------------------------
THERMOCHEMISTRY AT 298.15K
--------------------------

Temperature         ... 298.15 K
Pressure            ... 1.00 atm
Total Mass          ... 120.15 AMU

Throughout the following assumptions are being made:
  (1) The electronic state is orbitally nondegenerate
  (2) There are no thermally accessible electronically excited states
  (3) Hindered rotations indicated by low frequency modes are not
      treated as such but are treated as vibrations and this may
      cause some error
  (4) All equations used are the standard statistical mechanics
      equations for an ideal gas
  (5) All vibrations are strictly harmonic

freq.      43.02  E(vib)   ...       0.53 
freq.     156.00  E(vib)   ...       0.40 
freq.     238.10  E(vib)   ...       0.32 
freq.     375.55  E(vib)   ...       0.21 
freq.     414.03  E(vib)   ...       0.19 
freq.     435.72  E(vib)   ...       0.17 
freq.     470.94  E(vib)   ...       0.15 
freq.     581.04  E(vib)   ...       0.11 
freq.     620.04  E(vib)   ...       0.09 
freq.     631.33  E(vib)   ...       0.09 
freq.     703.44  E(vib)   ...       0.07 
freq.     737.20  E(vib)   ...       0.06 
freq.     781.06  E(vib)   ...       0.05 
freq.     862.20  E(vib)   ...       0.04 
freq.     940.09  E(vib)   ...       0.03 
freq.     983.27  E(vib)   ...       0.02 
freq.     983.52  E(vib)   ...       0.02 
freq.    1010.59  E(vib)   ...       0.02 
freq.    1017.12  E(vib)   ...       0.02 
freq.    1051.48  E(vib)   ...       0.02 
freq.    1052.35  E(vib)   ...       0.02 
freq.    1092.67  E(vib)   ...       0.02 
freq.    1118.89  E(vib)   ...       0.01 
freq.    1192.99  E(vib)   ...       0.01 
freq.    1212.90  E(vib)   ...       0.01 
freq.    1281.52  E(vib)   ...       0.01 
freq.    1346.43  E(vib)   ...       0.01 
freq.    1366.54  E(vib)   ...       0.01 
freq.    1416.52  E(vib)   ...       0.00 
freq.    1491.45  E(vib)   ...       0.00 
freq.    1504.72  E(vib)   ...       0.00 
freq.    1508.11  E(vib)   ...       0.00 
freq.    1541.16  E(vib)   ...       0.00 
freq.    1636.02  E(vib)   ...       0.00 
freq.    1655.86  E(vib)   ...       0.00 
freq.    1768.45  E(vib)   ...       0.00 
freq.    3067.79  E(vib)   ...       0.00 
freq.    3126.80  E(vib)   ...       0.00 
freq.    3166.88  E(vib)   ...       0.00 
freq.    3183.81  E(vib)   ...       0.00 
freq.    3194.78  E(vib)   ...       0.00 
freq.    3206.30  E(vib)   ...       0.00 
freq.    3221.80  E(vib)   ...       0.00 
freq.    3226.87  E(vib)   ...       0.00 

------------
INNER ENERGY
------------

The inner energy is: U= E(el) + E(ZPE) + E(vib) + E(rot) + E(trans)
    E(el)   - is the total energy from the electronic structure calculation
              = E(kin-el) + E(nuc-el) + E(el-el) + E(nuc-nuc)
    E(ZPE)  - the the zero temperature vibrational energy from the frequency calculation
    E(vib)  - the the finite temperature correction to E(ZPE) due to population
              of excited vibrational states
    E(rot)  - is the rotational thermal energy
    E(trans)- is the translational thermal energy

Summary of contributions to the inner energy U:
Electronic energy                ...   -384.64997390 Eh
Zero point energy                ...      0.13809653 Eh      86.66 kcal/mol
Thermal vibrational correction   ...      0.00435788 Eh       2.73 kcal/mol
Thermal rotational correction    ...      0.00141627 Eh       0.89 kcal/mol
Thermal translational correction ...      0.00141627 Eh       0.89 kcal/mol
-----------------------------------------------------------------------
Total thermal energy                   -384.50468695 Eh


Summary of corrections to the electronic energy:
(perhaps to be used in another calculation)
Total thermal correction                  0.00719043 Eh       4.51 kcal/mol
Non-thermal (ZPE) correction              0.13809653 Eh      86.66 kcal/mol
-----------------------------------------------------------------------
Total correction                          0.14528696 Eh      91.17 kcal/mol


--------
ENTHALPY
--------

The enthalpy is H = U + kB*T
                kB is Boltzmann's constant
Total free energy                 ...   -384.50468695 Eh 
Thermal Enthalpy correction       ...      0.00094421 Eh       0.59 kcal/mol
-----------------------------------------------------------------------
Total Enthalpy                    ...   -384.50374274 Eh


Note: Rotational entropy computed according to Herzberg 
Infrared and Raman Spectra, Chapter V,1, Van Nostrand Reinhold, 1945 
Point Group:  C1, Symmetry Number:   1  
Rotational constants in cm-1:     0.123670     0.039849     0.030307 

Vibrational entropy computed according to the QRRHO of S. Grimme
Chem.Eur.J. 2012 18 9955


-------
ENTROPY
-------

The entropy contributions are T*S = T*(S(el)+S(vib)+S(rot)+S(trans))
     S(el)   - electronic entropy
     S(vib)  - vibrational entropy
     S(rot)  - rotational entropy
     S(trans)- translational entropy
The entropies will be listed as mutliplied by the temperature to get
units of energy

Electronic entropy                ...      0.00000000 Eh      0.00 kcal/mol
Vibrational entropy               ...      0.00709921 Eh      4.45 kcal/mol
Rotational entropy                ...      0.01366953 Eh      8.58 kcal/mol
Translational entropy             ...      0.01913124 Eh     12.01 kcal/mol
-----------------------------------------------------------------------
Final entropy term                ...      0.03989998 Eh     25.04 kcal/mol


-------------------
GIBBS FREE ENTHALPY
-------------------

The Gibbs free enthalpy is G = H - T*S

Total enthalpy                    ...   -384.50374274 Eh 
Total entropy correction          ...     -0.03989998 Eh    -25.04 kcal/mol
-----------------------------------------------------------------------
Final Gibbs free enthalpy         ...   -384.54364272 Eh

For completeness - the Gibbs free enthalpy minus the electronic energy
G-E(el)                           ...      0.10633118 Eh     66.72 kcal/mol


Timings for individual modules:

Sum of individual times         ...     1074.480 sec (=  17.908 min)
GTO integral calculation        ...        0.326 sec (=   0.005 min)   0.0 %
SCF iterations                  ...       45.302 sec (=   0.755 min)   4.2 %
Analytical frequency calculation...     1028.852 sec (=  17.148 min)  95.8 %
                             ****ORCA TERMINATED NORMALLY****
TOTAL RUN TIME: 0 days 0 hours 17 minutes 55 seconds 59 msec
