
                                 *****************
                                 * O   R   C   A *
                                 *****************

           --- An Ab Initio, DFT and Semiempirical electronic structure package ---

                  #######################################################
                  #                        -***-                        #
                  #          Department of theory and spectroscopy      #
                  #               Directorship: Frank Neese             #
                  #        Max Planck Institute fuer Kohlenforschung    #
                  #                Kaiser Wilhelm Platz 1               #
                  #                 D-45470 Muelheim/Ruhr               #
                  #                      Germany                        #
                  #                                                     #
                  #                  All rights reserved                #
                  #                        -***-                        #
                  #######################################################


                         Program Version 4.1.0  - RELEASE  -


 With contributions from (in alphabetic order):
   Daniel Aravena         : Magnetic Properties
   Michael Atanasov       : Ab Initio Ligand Field Theory
   Alexander A. Auer      : GIAO ZORA
   Ute Becker             : Parallelization
   Giovanni Bistoni       : ED, Open-shell LED
   Martin Brehm           : Molecular dynamics
   Dmytro Bykov           : SCF Hessian
   Vijay G. Chilkuri      : MRCI spin determinant printing
   Dipayan Datta          : RHF DLPNO-CCSD density
   Achintya Kumar Dutta   : EOM-CC, STEOM-CC
   Dmitry Ganyushin       : Spin-Orbit,Spin-Spin,Magnetic field MRCI
   Miquel Garcia          : C-PCM Hessian
   Yang Guo               : DLPNO-NEVPT2, CIM, IAO-localization
   Andreas Hansen         : Spin unrestricted coupled pair/coupled cluster methods
   Benjamin Helmich-Paris : CASSCF linear response (MC-RPA)
   Lee Huntington         : MR-EOM, pCC
   Robert Izsak           : Overlap fitted RIJCOSX, COSX-SCS-MP3, EOM
   Christian Kollmar      : KDIIS, OOCD, Brueckner-CCSD(T), CCSD density
   Simone Kossmann        : Meta GGA functionals, TD-DFT gradient, OOMP2, MP2 Hessian
   Martin Krupicka        : AUTO-CI
   Lucas Lang             : DCDCAS
   Dagmar Lenk            : GEPOL surface, SMD
   Dimitrios Liakos       : Extrapolation schemes; parallel MDCI
   Dimitrios Manganas     : ROCIS; embedding schemes
   Dimitrios Pantazis     : SARC Basis sets
   Taras Petrenko         : DFT Hessian,TD-DFT gradient, ASA, ECA, R-Raman, ABS, FL, XAS/XES, NRVS
   Peter Pinski           : DLPNO-MP2, DLPNO-MP2 Gradient
   Christoph Reimann      : Effective Core Potentials
   Marius Retegan         : Local ZFS, SOC
   Christoph Riplinger    : Optimizer, TS searches, QM/MM, DLPNO-CCSD(T), (RO)-DLPNO pert. Triples
   Tobias Risthaus        : Range-separated hybrids, TD-DFT gradient, RPA, STAB
   Michael Roemelt        : Restricted open shell CIS
   Masaaki Saitow         : Open-shell DLPNO
   Barbara Sandhoefer     : DKH picture change effects
   Avijit Sen             : IP-ROCIS
   Kantharuban Sivalingam : CASSCF convergence, NEVPT2, FIC-MRCI
   Bernardo de Souza      : ESD, SOC TD-DFT
   Georgi Stoychev        : AutoAux, RI-MP2 NMR
   Willem Van den Heuvel  : Paramagnetic NMR
   Boris Wezisla          : Elementary symmetry handling
   Frank Wennmohs         : Technical directorship


 We gratefully acknowledge several colleagues who have allowed us to
 interface, adapt or use parts of their codes:
   Stefan Grimme, W. Hujo, H. Kruse,             : VdW corrections, initial TS optimization,
                  C. Bannwarth                     DFT functionals, gCP, sTDA/sTD-DF
   Ed Valeev                                     : LibInt (2-el integral package), F12 methods
   Garnet Chan, S. Sharma, J. Yang, R. Olivares  : DMRG
   Ulf Ekstrom                                   : XCFun DFT Library
   Mihaly Kallay                                 : mrcc  (arbitrary order and MRCC methods)
   Andreas Klamt, Michael Diedenhofen            : otool_cosmo (COSMO solvation model)
   Jiri Pittner, Ondrej Demel                    : Mk-CCSD
   Frank Weinhold                                : gennbo (NPA and NBO analysis)
   Christopher J. Cramer and Donald G. Truhlar   : smd solvation model
   Lars Goerigk                                  : TD-DFT with DH, B97 family of functionals
   V. Asgeirsson, H. Jonsson                     : NEB implementation
   FAccTs GmbH                                   : IRC, NEB, NEB-TS, Multilevel


 Your calculation uses the libint2 library for the computation of 2-el integrals
 For citations please refer to: http://libint.valeyev.net

 This ORCA versions uses:
   CBLAS   interface :  Fast vector & matrix operations
   LAPACKE interface :  Fast linear algebra routines
   SCALAPACK package :  Parallel linear algebra routines




***************************************
The coordinates will be read from file: /Users/lailaal-madhagi/Desktop/Testing_XAS_Analysis_code/PhenylMethylKetone/PhenylMethylKetone_geom.xyz
***************************************


----- Orbital basis set information -----
Your calculation utilizes the basis: 6-31G*
   H-He, Li-Ne : W. J. Hehre, R. Ditchfield and J.A. Pople, J. Chem. Phys. 56, 2257 (1972).
                 Note: He and Ne are unpublished basis sets taken from the Gaussian program.
                 Note: Li and B from J. D. Dill and J. A. Pople, J. Chem. Phys. 62, 2921 (1975).
   Na - Ar     : M. M. Francl, W. J. Pietro, W. J. Hehre, J. S. Binkley, M. S. Gordon, 
                 D. J. DeFrees and J. A. Pople, J. Chem. Phys. 77, 3654 (1982).
   K - Zn      : V. A. Rassolov, J. A. Pople, M. A. Ratner, and T. L. Windus, J. Chem. Phys. 109, 1223 (1998).

================================================================================
                                        WARNINGS
                       Please study these warnings very carefully!
================================================================================


WARNING: Geometry Optimization
  ===> : Switching off AutoStart
         For restart on a previous wavefunction, please use MOREAD

INFO   : the flag for use of LIBINT has been found!

================================================================================
                                       INPUT FILE
================================================================================
NAME = /Users/lailaal-madhagi/Desktop/Testing_XAS_Analysis_code/PhenylMethylKetone//Results_dir_PhenylMethylKetone_geom_element_C_2019-11-19_00-49-16//GTE1_PhenylMethylKetone_geom_2019-11-19_00-49-24//opt.inp
|  1> ! B3LYP 6-31G* TIGHTSCF Grid3 FinalGrid5 Opt 
|  2> !NormalPrint 
|  3> %output 
|  4> Print[P_Basis] 2 
|  5> Print[P_MOS] 1 
|  6> end 
|  7> *xyzfile 0 1 /Users/lailaal-madhagi/Desktop/Testing_XAS_Analysis_code/PhenylMethylKetone/PhenylMethylKetone_geom.xyz                           ****END OF INPUT****
================================================================================

                       *****************************
                       * Geometry Optimization Run *
                       *****************************

Geometry optimization settings:
Update method            Update   .... BFGS
Choice of coordinates    CoordSys .... Z-matrix Internals
Initial Hessian          InHess   .... Almoef's Model

Convergence Tolerances:
Energy Change            TolE     ....  5.0000e-06 Eh
Max. Gradient            TolMAXG  ....  3.0000e-04 Eh/bohr
RMS Gradient             TolRMSG  ....  1.0000e-04 Eh/bohr
Max. Displacement        TolMAXD  ....  4.0000e-03 bohr
RMS Displacement         TolRMSD  ....  2.0000e-03 bohr

------------------------------------------------------------------------------
                        ORCA OPTIMIZATION COORDINATE SETUP
------------------------------------------------------------------------------

The optimization will be done in new redundant internal coordinates
Making redundant internal coordinates   ...  (new redundants) done
Evaluating the initial hessian          ...  (Almloef) done
Evaluating the coordinates              ...  done
Calculating the B-matrix                .... done
Calculating the G-matrix                .... done
Diagonalizing the G-matrix              .... done
Small eigenvalue found = 2.305e-02
The first mode is                       ....   33
The number of degrees of freedom        ....   45

    -----------------------------------------------------------------
                    Redundant Internal Coordinates


    -----------------------------------------------------------------
         Definition                    Initial Value    Approx d2E/dq
    -----------------------------------------------------------------
      1. B(C   1,C   0)                  1.4120         0.576191   
      2. B(C   2,C   0)                  1.3976         0.607499   
      3. B(C   3,C   2)                  1.3941         0.615472   
      4. B(C   4,C   3)                  1.3945         0.614455   
      5. B(C   5,C   4)                  1.3988         0.604824   
      6. B(C   5,C   1)                  1.4131         0.573943   
      7. B(C   6,C   1)                  1.4991         0.418408   
      8. B(C   7,C   6)                  1.5069         0.406607   
      9. B(H   8,C   0)                  1.0828         0.369703   
     10. B(H   9,C   2)                  1.0825         0.370221   
     11. B(H  10,C   3)                  1.0824         0.370327   
     12. B(H  11,C   5)                  1.0769         0.377850   
     13. B(H  12,C   4)                  1.0826         0.370075   
     14. B(O  13,C   6)                  1.2226         1.034866   
     15. B(H  14,C   7)                  1.1023         0.344203   
     16. B(H  15,C   7)                  1.1103         0.334258   
     17. B(H  16,C   7)                  1.1103         0.334240   
     18. A(C   1,C   0,C   2)          120.9395         0.426829   
     19. A(C   2,C   0,H   8)          118.1868         0.353264   
     20. A(C   1,C   0,H   8)          120.8737         0.350119   
     21. A(C   0,C   1,C   6)          119.1034         0.399486   
     22. A(C   5,C   1,C   6)          122.8475         0.399212   
     23. A(C   0,C   1,C   5)          118.0491         0.422512   
     24. A(C   0,C   2,H   9)          119.9638         0.353348   
     25. A(C   3,C   2,H   9)          119.8970         0.354130   
     26. A(C   0,C   2,C   3)          120.1391         0.431909   
     27. A(C   2,C   3,H  10)          120.0549         0.354147   
     28. A(C   2,C   3,C   4)          119.8863         0.432794   
     29. A(C   4,C   3,H  10)          120.0588         0.354048   
     30. A(C   3,C   4,C   5)          120.3272         0.431439   
     31. A(C   3,C   4,H  12)          119.7661         0.354007   
     32. A(C   5,C   4,H  12)          119.9067         0.353061   
     33. A(C   1,C   5,C   4)          120.6587         0.426193   
     34. A(C   4,C   5,H  11)          116.9013         0.354306   
     35. A(C   1,C   5,H  11)          122.4400         0.351178   
     36. A(C   7,C   6,O  13)          116.6411         0.438304   
     37. A(C   1,C   6,O  13)          118.8567         0.440573   
     38. A(C   1,C   6,C   7)          124.5022         0.375931   
     39. A(H  14,C   7,H  16)          107.5700         0.285446   
     40. A(C   6,C   7,H  16)          109.1315         0.324863   
     41. A(H  14,C   7,H  15)          107.5724         0.285448   
     42. A(C   6,C   7,H  15)          109.1333         0.324866   
     43. A(H  15,C   7,H  16)          108.6588         0.284146   
     44. A(C   6,C   7,H  14)          114.6225         0.326436   
     45. D(C   6,C   1,C   0,H   8)     -0.0008         0.022796   
     46. D(C   6,C   1,C   0,C   2)    179.9993         0.022796   
     47. D(C   5,C   1,C   0,H   8)   -180.0000         0.022796   
     48. D(C   5,C   1,C   0,C   2)      0.0002         0.022796   
     49. D(C   3,C   2,C   0,C   1)     -0.0001         0.025477   
     50. D(H   9,C   2,C   0,H   8)      0.0000         0.025477   
     51. D(C   3,C   2,C   0,H   8)   -180.0000         0.025477   
     52. D(H   9,C   2,C   0,C   1)    179.9999         0.025477   
     53. D(H  10,C   3,C   2,H   9)      0.0000         0.026189   
     54. D(H  10,C   3,C   2,C   0)   -180.0000         0.026189   
     55. D(C   4,C   3,C   2,H   9)   -179.9997         0.026189   
     56. D(C   4,C   3,C   2,C   0)      0.0003         0.026189   
     57. D(H  12,C   4,C   3,C   2)    179.9990         0.026098   
     58. D(C   5,C   4,C   3,H  10)    179.9998         0.026098   
     59. D(C   5,C   4,C   3,C   2)     -0.0005         0.026098   
     60. D(H  12,C   4,C   3,H  10)     -0.0007         0.026098   
     61. D(H  11,C   5,C   4,H  12)     -0.0006         0.025240   
     62. D(C   1,C   5,C   4,H  12)   -179.9989         0.025240   
     63. D(C   1,C   5,C   4,C   3)      0.0006         0.025240   
     64. D(H  11,C   5,C   1,C   6)      0.0022         0.022610   
     65. D(H  11,C   5,C   1,C   0)   -179.9986         0.022610   
     66. D(H  11,C   5,C   4,C   3)    179.9989         0.025240   
     67. D(C   4,C   5,C   1,C   6)   -179.9995         0.022610   
     68. D(C   4,C   5,C   1,C   0)     -0.0004         0.022610   
     69. D(O  13,C   6,C   1,C   5)   -179.9899         0.011985   
     70. D(O  13,C   6,C   1,C   0)      0.0110         0.011985   
     71. D(C   7,C   6,C   1,C   5)      0.0105         0.011985   
     72. D(C   7,C   6,C   1,C   0)   -179.9886         0.011985   
     73. D(H  15,C   7,C   6,C   1)   -120.6950         0.012253   
     74. D(H  14,C   7,C   6,O  13)   -179.9954         0.012253   
     75. D(H  14,C   7,C   6,C   1)      0.0042         0.012253   
     76. D(H  16,C   7,C   6,O  13)    -59.3007         0.012253   
     77. D(H  16,C   7,C   6,C   1)    120.6989         0.012253   
     78. D(H  15,C   7,C   6,O  13)     59.3054         0.012253   
    -----------------------------------------------------------------

Number of atoms                         .... 17
Number of degrees of freedom            .... 78

         *************************************************************
         *                GEOMETRY OPTIMIZATION CYCLE   1            *
         *************************************************************
---------------------------------
CARTESIAN COORDINATES (ANGSTROEM)
---------------------------------
  C     -1.730850    1.143670    0.041720
  C     -0.425210    1.673710   -0.049020
  C     -1.945280   -0.237070    0.073050
  C     -0.863840   -1.114890    0.014610
  C      0.434250   -0.613260   -0.075280
  C      0.657350    0.767310   -0.107170
  C     -0.242690    3.161390   -0.079670
  C      1.091270    3.855940   -0.174570
  H     -2.593510    1.796450    0.088940
  H     -2.952940   -0.626250    0.142830
  H     -1.031470   -2.183930    0.038970
  H      1.681130    1.093950   -0.177170
  H      1.272600   -1.296680   -0.120530
  O     -1.231470    3.878450   -0.024960
  H      1.959460    3.178420   -0.222080
  H      1.224810    4.510220    0.712440
  H      1.108580    4.487440   -1.087610

----------------------------
CARTESIAN COORDINATES (A.U.)
----------------------------
  NO LB      ZA    FRAG     MASS         X           Y           Z
   0 C     6.0000    0    12.011   -3.270832    2.161223    0.078839
   1 C     6.0000    0    12.011   -0.803530    3.162854   -0.092634
   2 C     6.0000    0    12.011   -3.676046   -0.447997    0.138044
   3 C     6.0000    0    12.011   -1.632421   -2.106837    0.027609
   4 C     6.0000    0    12.011    0.820614   -1.158893   -0.142259
   5 C     6.0000    0    12.011    1.242211    1.450006   -0.202522
   6 C     6.0000    0    12.011   -0.458618    5.974161   -0.150554
   7 C     6.0000    0    12.011    2.062201    7.286671   -0.329889
   8 H     1.0000    0     1.008   -4.901024    3.394799    0.168072
   9 H     1.0000    0     1.008   -5.580248   -1.183441    0.269910
  10 H     1.0000    0     1.008   -1.949196   -4.127030    0.073643
  11 H     1.0000    0     1.008    3.176875    2.067266   -0.334803
  12 H     1.0000    0     1.008    2.404865   -2.450370   -0.227769
  13 O     8.0000    0    15.999   -2.327141    7.329208   -0.047168
  14 H     1.0000    0     1.008    3.702843    6.006343   -0.419670
  15 H     1.0000    0     1.008    2.314555    8.523081    1.346316
  16 H     1.0000    0     1.008    2.094913    8.480033   -2.055285

--------------------------------
INTERNAL COORDINATES (ANGSTROEM)
--------------------------------
 C      0   0   0     0.000000000000     0.00000000     0.00000000
 C      1   0   0     1.412045310463     0.00000000     0.00000000
 C      1   2   0     1.397642565680   120.93950142     0.00000000
 C      3   1   2     1.394093131609   120.13914800     0.00000000
 C      4   3   1     1.394543121277   119.88631067     0.00000000
 C      5   4   3     1.398843846539   120.32720185     0.00000000
 C      2   1   3     1.499148009804   119.10341354   179.99933377
 C      7   2   1     1.506935630377   124.50220977   180.01137912
 H      1   2   3     1.082835967448   120.87367679   179.99984627
 H      3   1   2     1.082455078237   119.96381895   179.99989374
 H      4   3   1     1.082376897435   120.05491847   180.00004391
 H      6   5   4     1.076902585195   116.90132051   179.99890759
 H      5   4   3     1.082562322178   119.76614252   179.99899094
 O      7   2   1     1.222642268245   118.85673541     0.00000000
 H      8   7   2     1.102290536383   114.62245458     0.00000000
 H      8   7   2     1.110271133598   109.13332054   239.30502736
 H      8   7   2     1.110285516297   109.13149447   120.69890003

---------------------------
INTERNAL COORDINATES (A.U.)
---------------------------
 C      0   0   0     0.000000000000     0.00000000     0.00000000
 C      1   0   0     2.668378925463     0.00000000     0.00000000
 C      1   2   0     2.641161682246   120.93950142     0.00000000
 C      3   1   2     2.634454223922   120.13914800     0.00000000
 C      4   3   1     2.635304581157   119.88631067     0.00000000
 C      5   4   3     2.643431774080   120.32720185     0.00000000
 C      2   1   3     2.832979172743   119.10341354   179.99933377
 C      7   2   1     2.847695642861   124.50220977   180.01137912
 H      1   2   3     2.046263426437   120.87367679   179.99984627
 H      3   1   2     2.045543650139   119.96381895   179.99989374
 H      4   3   1     2.045395909835   120.05491847   180.00004391
 H      6   5   4     2.035050958931   116.90132051   179.99890759
 H      5   4   3     2.045746311819   119.76614252   179.99899094
 O      7   2   1     2.310459046740   118.85673541     0.00000000
 H      8   7   2     2.083027233777   114.62245458     0.00000000
 H      8   7   2     2.098108376898   109.13332054   239.30502736
 H      8   7   2     2.098135556262   109.13149447   120.69890003

---------------------
BASIS SET INFORMATION
---------------------
There are 3 groups of distinct atoms

 Group   1 Type C   : 10s4p1d contracted to 3s2p1d pattern {631/31/1}
 Group   2 Type H   : 4s contracted to 2s pattern {31}
 Group   3 Type O   : 10s4p1d contracted to 3s2p1d pattern {631/31/1}

Atom   0C    basis set group =>   1
Atom   1C    basis set group =>   1
Atom   2C    basis set group =>   1
Atom   3C    basis set group =>   1
Atom   4C    basis set group =>   1
Atom   5C    basis set group =>   1
Atom   6C    basis set group =>   1
Atom   7C    basis set group =>   1
Atom   8H    basis set group =>   2
Atom   9H    basis set group =>   2
Atom  10H    basis set group =>   2
Atom  11H    basis set group =>   2
Atom  12H    basis set group =>   2
Atom  13O    basis set group =>   3
Atom  14H    basis set group =>   2
Atom  15H    basis set group =>   2
Atom  16H    basis set group =>   2

-------------------------
BASIS SET IN INPUT FORMAT
-------------------------

 # Basis set for element : H 
 NewGTO H 
 S 3 
   1      18.7311370000      0.0334945995
   2       2.8253937000      0.2347269467
   3       0.6401217000      0.8137573184
 S 1 
   1       0.1612778000      1.0000000000
  end;

 # Basis set for element : C 
 NewGTO C 
 S 6 
   1    3047.5249000000      0.0018347002
   2     457.3695100000      0.0140373012
   3     103.9486900000      0.0688426061
   4      29.2101550000      0.2321844206
   5       9.2866630000      0.4679413416
   6       3.1639270000      0.3623120322
 S 3 
   1       7.8682724000     -0.1193324086
   2       1.8812885000     -0.1608542116
   3       0.5442493000      1.1434564826
 P 3 
   1       7.8682724000      0.0689990956
   2       1.8812885000      0.3164239798
   3       0.5442493000      0.7443082524
 S 1 
   1       0.1687144000      1.0000000000
 P 1 
   1       0.1687144000      1.0000000000
 D 1 
   1       0.8000000000      1.0000000000
  end;

 # Basis set for element : O 
 NewGTO O 
 S 6 
   1    5484.6717000000      0.0018310998
   2     825.2349500000      0.0139500985
   3     188.0469600000      0.0684450927
   4      52.9645000000      0.2327142753
   5      16.8975700000      0.4701929501
   6       5.7996353000      0.3585208619
 S 3 
   1      15.5396160000     -0.1107775038
   2       3.5999336000     -0.1480263051
   3       1.0137618000      1.1307670390
 P 3 
   1      15.5396160000      0.0708742995
   2       3.5999336000      0.3397527978
   3       1.0137618000      0.7271585953
 S 1 
   1       0.2700058000      1.0000000000
 P 1 
   1       0.2700058000      1.0000000000
 D 1 
   1       0.8000000000      1.0000000000
  end;

------------------------------------------------------------------------------
                           ORCA GTO INTEGRAL CALCULATION
------------------------------------------------------------------------------

                         BASIS SET STATISTICS AND STARTUP INFO

 # of primitive gaussian shells          ...  167
 # of primitive gaussian functions       ...  275
 # of contracted shells                  ...   70
 # of contracted basis functions         ...  142
 Highest angular momentum                ...    2
 Maximum contraction depth               ...    6
 Integral package used                   ... LIBINT
 Integral threshhold            Thresh   ...  2.500e-11
 Primitive cut-off              TCut     ...  2.500e-12


------------------------------ INTEGRAL EVALUATION ----------------------------


 * One electron integrals 
 Pre-screening matrix                    ... done
 Shell pair data                         ... done (   0.003 sec)

-------------------------------------------------------------------------------
                                 ORCA SCF
-------------------------------------------------------------------------------

------------
SCF SETTINGS
------------
Hamiltonian:
 Density Functional     Method          .... DFT(GTOs)
 Exchange Functional    Exchange        .... B88
   X-Alpha parameter    XAlpha          ....  0.666667
   Becke's b parameter  XBeta           ....  0.004200
 Correlation Functional Correlation     .... LYP
 LDA part of GGA corr.  LDAOpt          .... VWN-5
 Gradients option       PostSCFGGA      .... off
 Hybrid DFT is turned on
   Fraction HF Exchange ScalHFX         ....  0.200000
   Scaling of DF-GGA-X  ScalDFX         ....  0.720000
   Scaling of DF-GGA-C  ScalDFC         ....  0.810000
   Scaling of DF-LDA-C  ScalLDAC        ....  1.000000
   Perturbative correction              ....  0.000000
   Density functional embedding theory  .... OFF
   NL short-range parameter             ....  4.800000


General Settings:
 Integral files         IntName         .... /Users/lailaal-madhagi/Desktop/Testing_XAS_Analysis_code/PhenylMethylKetone//Results_dir_PhenylMethylKetone_geom_element_C_2019-11-19_00-49-16//GTE1_PhenylMethylKetone_geom_2019-11-19_00-49-24//opt
 Hartree-Fock type      HFTyp           .... RHF
 Total Charge           Charge          ....    0
 Multiplicity           Mult            ....    1
 Number of Electrons    NEL             ....   64
 Basis Dimension        Dim             ....  142
 Nuclear Repulsion      ENuc            ....    399.1064688313 Eh

Convergence Acceleration:
 DIIS                   CNVDIIS         .... on
   Start iteration      DIISMaxIt       ....    12
   Startup error        DIISStart       ....  0.200000
   # of expansion vecs  DIISMaxEq       ....     5
   Bias factor          DIISBfac        ....   1.050
   Max. coefficient     DIISMaxC        ....  10.000
 Newton-Raphson         CNVNR           .... off
 SOSCF                  CNVSOSCF        .... on
   Start iteration      SOSCFMaxIt      ....   150
   Startup grad/error   SOSCFStart      ....  0.003300
 Level Shifting         CNVShift        .... on
   Level shift para.    LevelShift      ....    0.2500
   Turn off err/grad.   ShiftErr        ....    0.0010
 Zerner damping         CNVZerner       .... off
 Static damping         CNVDamp         .... on
   Fraction old density DampFac         ....    0.7000
   Max. Damping (<1)    DampMax         ....    0.9800
   Min. Damping (>=0)   DampMin         ....    0.0000
   Turn off err/grad.   DampErr         ....    0.1000
 Fernandez-Rico         CNVRico         .... off

SCF Procedure:
 Maximum # iterations   MaxIter         ....   125
 SCF integral mode      SCFMode         .... Direct
   Integral package                     .... LIBINT
 Reset frequency        DirectResetFreq ....    20
 Integral Threshold     Thresh          ....  2.500e-11 Eh
 Primitive CutOff       TCut            ....  2.500e-12 Eh

Convergence Tolerance:
 Convergence Check Mode ConvCheckMode   .... Total+1el-Energy
 Convergence forced     ConvForced      .... 0
 Energy Change          TolE            ....  1.000e-08 Eh
 1-El. energy change                    ....  1.000e-05 Eh
 Orbital Gradient       TolG            ....  1.000e-05
 Orbital Rotation angle TolX            ....  1.000e-05
 DIIS Error             TolErr          ....  5.000e-07


Diagonalization of the overlap matrix:
Smallest eigenvalue                        ... 4.823e-04
Time for diagonalization                   ...    0.004 sec
Threshold for overlap eigenvalues          ... 1.000e-08
Number of eigenvalues below threshold      ... 0
Time for construction of square roots      ...    0.002 sec
Total time needed                          ...    0.007 sec

-------------------
DFT GRID GENERATION
-------------------

General Integration Accuracy     IntAcc      ...  4.340
Radial Grid Type                 RadialGrid  ... Gauss-Chebyshev
Angular Grid (max. acc.)         AngularGrid ... Lebedev-194
Angular grid pruning method      GridPruning ... 3 (G Style)
Weight generation scheme         WeightScheme... Becke
Basis function cutoff            BFCut       ...    1.0000e-11
Integration weight cutoff        WCut        ...    1.0000e-14
Grids for H and He will be reduced by one unit

# of grid points (after initial pruning)     ...  41790 (   0.0 sec)
# of grid points (after weights+screening)   ...  38423 (   0.1 sec)
nearest neighbour list constructed           ...    0.0 sec
Grid point re-assignment to atoms done       ...    0.0 sec
Grid point division into batches done        ...    0.1 sec
Reduced shell lists constructed in    0.2 sec

Total number of grid points                  ...    38423
Total number of batches                      ...      609
Average number of points per batch           ...       63
Average number of grid points per atom       ...     2260
Average number of shells per batch           ...    46.28 (66.12%)
Average number of basis functions per batch  ...    95.82 (67.48%)
Average number of large shells per batch     ...    34.98 (75.57%)
Average number of large basis fcns per batch ...    72.98 (76.16%)
Maximum spatial batch extension              ...  19.38, 18.24, 22.17 au
Average spatial batch extension              ...   3.09,  2.90,  3.46 au

Time for grid setup =    0.354 sec

------------------------------
INITIAL GUESS: MODEL POTENTIAL
------------------------------
Loading Hartree-Fock densities                     ... done
Calculating cut-offs                               ... done
Setting up the integral package                    ... done
Initializing the effective Hamiltonian             ... done
Starting the Coulomb interaction                   ... done (   0.1 sec)
Reading the grid                                   ... done
Mapping shells                                     ... done
Starting the XC term evaluation                    ... done (   0.3 sec)
  promolecular density results
     # of electrons  =     63.996067767
     EX              =    -51.657159385
     EC              =     -2.139726177
     EX+EC           =    -53.796885562
Transforming the Hamiltonian                       ... done (   0.0 sec)
Diagonalizing the Hamiltonian                      ... done (   0.0 sec)
Back transforming the eigenvectors                 ... done (   0.0 sec)
Now organizing SCF variables                       ... done
                      ------------------
                      INITIAL GUESS DONE (   0.8 sec)
                      ------------------
--------------
SCF ITERATIONS
--------------
               ***  Starting incremental Fock matrix formation  ***

                         ----------------------------
                         !        ITERATION     0   !
                         ----------------------------
   Total Energy        :    -384.405429650387 Eh
   Energy Change       :    -384.405429650387 Eh
   MAX-DP              :       0.102258789226
   RMS-DP              :       0.002865992424
   Actual Damping      :       0.7000
   Actual Level Shift  :       0.2500 Eh
   Int. Num. El.       :    63.99973378 (UP=   31.99986689 DN=   31.99986689)
   Exchange            :   -42.36894512
   Correlation         :    -2.55712274


                         ----------------------------
                         !        ITERATION     1   !
                         ----------------------------
   Total Energy        :    -384.517936822330 Eh
   Energy Change       :      -0.112507171943 Eh
   MAX-DP              :       0.060626550207
   RMS-DP              :       0.001910657559
   Actual Damping      :       0.7000
   Actual Level Shift  :       0.2500 Eh
   Int. Num. El.       :    63.99969629 (UP=   31.99984814 DN=   31.99984814)
   Exchange            :   -42.06701526
   Correlation         :    -2.54560755

                               ***Turning on DIIS***

                         ----------------------------
                         !        ITERATION     2   !
                         ----------------------------
   Total Energy        :    -384.561685912465 Eh
   Energy Change       :      -0.043749090136 Eh
   MAX-DP              :       0.065461544852
   RMS-DP              :       0.002957901979
   Actual Damping      :       0.0000
   Actual Level Shift  :       0.2500 Eh
   Int. Num. El.       :    63.99967194 (UP=   31.99983597 DN=   31.99983597)
   Exchange            :   -41.87211585
   Correlation         :    -2.53753305
   DIIS-Error          :       0.039934211388


                         ----------------------------
                         !        ITERATION     3   !
                         ----------------------------
   Total Energy        :    -384.632299553104 Eh
   Energy Change       :      -0.070613640638 Eh
   MAX-DP              :       0.040009429479
   RMS-DP              :       0.001348986582
   Actual Damping      :       0.0000
   Actual Level Shift  :       0.2500 Eh
   Int. Num. El.       :    63.99963768 (UP=   31.99981884 DN=   31.99981884)
   Exchange            :   -41.58697744
   Correlation         :    -2.52451634
   DIIS-Error          :       0.047768062735
   DIIS coefficients:
      0.56121   0.43879


                         ----------------------------
                         !        ITERATION     4   !
                         ----------------------------
   Total Energy        :    -384.646258762125 Eh
   Energy Change       :      -0.013959209021 Eh
   MAX-DP              :       0.010010112930
   RMS-DP              :       0.000451276798
   Actual Damping      :       0.0000
   Actual Level Shift  :       0.2500 Eh
   Int. Num. El.       :    63.99965179 (UP=   31.99982590 DN=   31.99982590)
   Exchange            :   -41.70493153
   Correlation         :    -2.52979772
   DIIS-Error          :       0.020153983865
   DIIS coefficients:
      0.28087   0.12225   0.59688


                         ----------------------------
                         !        ITERATION     5   !
                         ----------------------------
   Total Energy        :    -384.647603176843 Eh
   Energy Change       :      -0.001344414718 Eh
   MAX-DP              :       0.002905547631
   RMS-DP              :       0.000130543416
   Actual Damping      :       0.0000
   Actual Level Shift  :       0.2500 Eh
   Int. Num. El.       :    63.99965308 (UP=   31.99982654 DN=   31.99982654)
   Exchange            :   -41.72174314
   Correlation         :    -2.53099874
   DIIS-Error          :       0.004596557753
   DIIS coefficients:
      0.06311   0.00476   0.14480   0.78732

                      *** Initiating the SOSCF procedure ***
                           *** Shutting down DIIS ***
                      *** Re-Reading the Fockian *** 
                      *** Removing any level shift *** 

                         ----------------------------
                         !        ITERATION     6   !
                         ----------------------------
   Total Energy        :    -384.647660493664 Eh
   Energy Change       :      -0.000057316821 Eh
   MAX-DP              :       0.001101433177
   RMS-DP              :       0.000052959613
   Orbital gradient    :       0.000281089346
   Orbital Rotation    :       0.000281089346
   Actual Damping      :       0.0000
   Int. Num. El.       :    63.99965703 (UP=   31.99982852 DN=   31.99982852)
   Exchange            :   -41.73016227
   Correlation         :    -2.53130120

               *** Restarting incremental Fock matrix formation ***

                         ----------------------------
                         !        ITERATION     7   !
                         ----------------------------
   Total Energy        :    -384.647662245063 Eh
   Energy Change       :      -0.000001751399 Eh
   MAX-DP              :       0.000813104525
   RMS-DP              :       0.000034499733
   Orbital gradient    :       0.000240373403
   Orbital Rotation    :       0.001199602125
   Actual Damping      :       0.0000
   Int. Num. El.       :    63.99965731 (UP=   31.99982866 DN=   31.99982866)
   Exchange            :   -41.73029310
   Correlation         :    -2.53131756


                         ----------------------------
                         !        ITERATION     8   !
                         ----------------------------
   Total Energy        :    -384.647659863464 Eh
   Energy Change       :       0.000002381598 Eh
   MAX-DP              :       0.000578832140
   RMS-DP              :       0.000021936481
   Orbital gradient    :       0.000453289458
   Orbital Rotation    :       0.000800952031
   Actual Damping      :       0.0000
   Int. Num. El.       :    63.99965761 (UP=   31.99982881 DN=   31.99982881)
   Exchange            :   -41.73052138
   Correlation         :    -2.53131499


                         ----------------------------
                         !        ITERATION     9   !
                         ----------------------------
   Total Energy        :    -384.647663400124 Eh
   Energy Change       :      -0.000003536660 Eh
   MAX-DP              :       0.000153467034
   RMS-DP              :       0.000004855342
   Orbital gradient    :       0.000028250466
   Orbital Rotation    :       0.000088854649
   Actual Damping      :       0.0000
   Int. Num. El.       :    63.99965754 (UP=   31.99982877 DN=   31.99982877)
   Exchange            :   -41.73035073
   Correlation         :    -2.53131536


                         ----------------------------
                         !        ITERATION    10   !
                         ----------------------------
   Total Energy        :    -384.647663366036 Eh
   Energy Change       :       0.000000034089 Eh
   MAX-DP              :       0.000083797508
   RMS-DP              :       0.000002944493
   Orbital gradient    :       0.000037841769
   Orbital Rotation    :       0.000059958965
   Actual Damping      :       0.0000
   Int. Num. El.       :    63.99965745 (UP=   31.99982873 DN=   31.99982873)
   Exchange            :   -41.73036416
   Correlation         :    -2.53131690


                         ----------------------------
                         !        ITERATION    11   !
                         ----------------------------
   Total Energy        :    -384.647663439060 Eh
   Energy Change       :      -0.000000073024 Eh
   MAX-DP              :       0.000022958865
   RMS-DP              :       0.000000690267
   Orbital gradient    :       0.000004819398
   Orbital Rotation    :       0.000016687338
   Actual Damping      :       0.0000
   Int. Num. El.       :    63.99965750 (UP=   31.99982875 DN=   31.99982875)
   Exchange            :   -41.73035950
   Correlation         :    -2.53131583


                         ----------------------------
                         !        ITERATION    12   !
                         ----------------------------
   Total Energy        :    -384.647663438655 Eh
   Energy Change       :       0.000000000404 Eh
   MAX-DP              :       0.000015042811
   RMS-DP              :       0.000000434383
   Orbital gradient    :       0.000007496500
   Orbital Rotation    :       0.000010136863
   Actual Damping      :       0.0000
   Int. Num. El.       :    63.99965751 (UP=   31.99982876 DN=   31.99982876)
   Exchange            :   -41.73035294
   Correlation         :    -2.53131592

                  ***Gradient check signals convergence***
              ***Rediagonalizing the Fockian in SOSCF/NRSCF***

               *****************************************************
               *                     SUCCESS                       *
               *           SCF CONVERGED AFTER  13 CYCLES          *
               *****************************************************

Setting up the final grid:

General Integration Accuracy     IntAcc      ...  5.010
Radial Grid Type                 RadialGrid  ... Gauss-Chebyshev
Angular Grid (max. acc.)         AngularGrid ... Lebedev-434
Angular grid pruning method      GridPruning ... 3 (G Style)
Weight generation scheme         WeightScheme... Becke
Basis function cutoff            BFCut       ...    1.0000e-11
Integration weight cutoff        WCut        ...    1.0000e-14
Grids for H and He will be reduced by one unit

# of grid points (after initial pruning)     ... 149962 (   0.1 sec)
# of grid points (after weights+screening)   ... 136545 (   0.3 sec)
nearest neighbour list constructed           ...    0.0 sec
Grid point re-assignment to atoms done       ...    0.0 sec
Grid point division into batches done        ...    0.7 sec
Reduced shell lists constructed in    1.3 sec

Total number of grid points                  ...   136545
Total number of batches                      ...     2143
Average number of points per batch           ...       63
Average number of grid points per atom       ...     8032
Average number of shells per batch           ...    42.69 (60.98%)
Average number of basis functions per batch  ...    88.10 (62.04%)
Average number of large shells per batch     ...    31.68 (74.22%)
Average number of large basis fcns per batch ...    65.81 (74.70%)
Maximum spatial batch extension              ...  18.28, 19.66, 22.56 au
Average spatial batch extension              ...   2.06,  2.00,  2.19 au

Final grid set up in    1.7 sec
Final integration                            ... done (   1.1 sec)
Change in XC energy                          ...    -0.000102781
Integrated number of electrons               ...    63.999960201
Previous integrated no of electrons          ...    63.999657508

----------------
TOTAL SCF ENERGY
----------------

Total Energy       :         -384.64776622 Eh          -10466.79784 eV

Components:
Nuclear Repulsion  :          399.10646883 Eh           10860.23914 eV
Electronic Energy  :         -783.75423505 Eh          -21327.03698 eV
One Electron Energy:        -1311.10526176 Eh          -35676.98796 eV
Two Electron Energy:          527.35102670 Eh           14349.95097 eV

Virial components:
Potential Energy   :         -766.97484487 Eh          -20870.44656 eV
Kinetic Energy     :          382.32707865 Eh           10403.64872 eV
Virial Ratio       :            2.00606990


DFT components:
N(Alpha)           :       31.999980100741 electrons
N(Beta)            :       31.999980100741 electrons
N(Total)           :       63.999960201482 electrons
E(X)               :      -41.730496597422 Eh       
E(C)               :       -2.531284058838 Eh       
E(XC)              :      -44.261780656260 Eh       
DFET-embed. en.    :        0.000000000000 Eh       

---------------
SCF CONVERGENCE
---------------

  Last Energy change         ...   -1.0360e-09  Tolerance :   1.0000e-08
  Last MAX-Density change    ...    6.9567e-06  Tolerance :   1.0000e-07
  Last RMS-Density change    ...    1.9085e-07  Tolerance :   5.0000e-09
  Last Orbital Gradient      ...    1.3841e-06  Tolerance :   1.0000e-05
  Last Orbital Rotation      ...    3.8128e-06  Tolerance :   1.0000e-05

             **** THE GBW FILE WAS UPDATED (/Users/lailaal-madhagi/Desktop/Testing_XAS_Analysis_code/PhenylMethylKetone//Results_dir_PhenylMethylKetone_geom_element_C_2019-11-19_00-49-16//GTE1_PhenylMethylKetone_geom_2019-11-19_00-49-24//opt.gbw) ****
             **** DENSITY FILE WAS UPDATED (/Users/lailaal-madhagi/Desktop/Testing_XAS_Analysis_code/PhenylMethylKetone//Results_dir_PhenylMethylKetone_geom_element_C_2019-11-19_00-49-16//GTE1_PhenylMethylKetone_geom_2019-11-19_00-49-24//opt.scfp.tmp) ****
             **** ENERGY FILE WAS UPDATED (/Users/lailaal-madhagi/Desktop/Testing_XAS_Analysis_code/PhenylMethylKetone//Results_dir_PhenylMethylKetone_geom_element_C_2019-11-19_00-49-16//GTE1_PhenylMethylKetone_geom_2019-11-19_00-49-24//opt.en.tmp) ****
----------------
ORBITAL ENERGIES
----------------

  NO   OCC          E(Eh)            E(eV) 
   0   2.0000     -19.120152      -520.2858 
   1   2.0000     -10.265596      -279.3411 
   2   2.0000     -10.196661      -277.4653 
   3   2.0000     -10.194905      -277.4175 
   4   2.0000     -10.192286      -277.3462 
   5   2.0000     -10.189559      -277.2720 
   6   2.0000     -10.188838      -277.2524 
   7   2.0000     -10.187842      -277.2253 
   8   2.0000     -10.180779      -277.0331 
   9   2.0000      -1.026749       -27.9393 
  10   2.0000      -0.856557       -23.3081 
  11   2.0000      -0.765973       -20.8432 
  12   2.0000      -0.749126       -20.3848 
  13   2.0000      -0.726497       -19.7690 
  14   2.0000      -0.627821       -17.0839 
  15   2.0000      -0.605979       -16.4895 
  16   2.0000      -0.550147       -14.9703 
  17   2.0000      -0.508548       -13.8383 
  18   2.0000      -0.464738       -12.6462 
  19   2.0000      -0.453976       -12.3533 
  20   2.0000      -0.446544       -12.1511 
  21   2.0000      -0.437891       -11.9156 
  22   2.0000      -0.424886       -11.5617 
  23   2.0000      -0.405743       -11.0408 
  24   2.0000      -0.384593       -10.4653 
  25   2.0000      -0.374379       -10.1874 
  26   2.0000      -0.356988        -9.7141 
  27   2.0000      -0.345646        -9.4055 
  28   2.0000      -0.340766        -9.2727 
  29   2.0000      -0.256720        -6.9857 
  30   2.0000      -0.252709        -6.8766 
  31   2.0000      -0.240161        -6.5351 
  32   0.0000      -0.052444        -1.4271 
  33   0.0000      -0.005571        -0.1516 
  34   0.0000       0.044845         1.2203 
  35   0.0000       0.087570         2.3829 
  36   0.0000       0.116002         3.1566 
  37   0.0000       0.132544         3.6067 
  38   0.0000       0.152235         4.1425 
  39   0.0000       0.156090         4.2474 
  40   0.0000       0.167060         4.5459 
  41   0.0000       0.192053         5.2260 
  42   0.0000       0.192182         5.2295 
  43   0.0000       0.216081         5.8799 
  44   0.0000       0.229791         6.2529 
  45   0.0000       0.273674         7.4470 
  46   0.0000       0.283378         7.7111 
  47   0.0000       0.305044         8.3007 
  48   0.0000       0.338055         9.1990 
  49   0.0000       0.351788         9.5726 
  50   0.0000       0.389489        10.5985 
  51   0.0000       0.486458        13.2372 
  52   0.0000       0.506067        13.7708 
  53   0.0000       0.528717        14.3871 
  54   0.0000       0.541256        14.7283 
  55   0.0000       0.543294        14.7838 
  56   0.0000       0.560600        15.2547 
  57   0.0000       0.566162        15.4061 
  58   0.0000       0.584411        15.9026 
  59   0.0000       0.595876        16.2146 
  60   0.0000       0.604617        16.4525 
  61   0.0000       0.614554        16.7229 
  62   0.0000       0.614626        16.7248 
  63   0.0000       0.625880        17.0311 
  64   0.0000       0.643992        17.5239 
  65   0.0000       0.666037        18.1238 
  66   0.0000       0.689641        18.7661 
  67   0.0000       0.715626        19.4732 
  68   0.0000       0.716319        19.4920 
  69   0.0000       0.737259        20.0618 
  70   0.0000       0.769776        20.9467 
  71   0.0000       0.825836        22.4721 
  72   0.0000       0.834941        22.7199 
  73   0.0000       0.840636        22.8749 
  74   0.0000       0.855643        23.2832 
  75   0.0000       0.865376        23.5481 
  76   0.0000       0.869957        23.6727 
  77   0.0000       0.908283        24.7156 
  78   0.0000       0.923036        25.1171 
  79   0.0000       0.938865        25.5478 
  80   0.0000       0.946901        25.7665 
  81   0.0000       0.969861        26.3913 
  82   0.0000       1.001460        27.2511 
  83   0.0000       1.009418        27.4677 
  84   0.0000       1.034962        28.1627 
  85   0.0000       1.073338        29.2070 
  86   0.0000       1.097152        29.8550 
  87   0.0000       1.119930        30.4748 
  88   0.0000       1.156176        31.4611 
  89   0.0000       1.193930        32.4885 
  90   0.0000       1.249015        33.9874 
  91   0.0000       1.271368        34.5957 
  92   0.0000       1.298985        35.3472 
  93   0.0000       1.314307        35.7641 
  94   0.0000       1.407036        38.2874 
  95   0.0000       1.424739        38.7691 
  96   0.0000       1.442891        39.2631 
  97   0.0000       1.450390        39.4671 
  98   0.0000       1.467143        39.9230 
  99   0.0000       1.486833        40.4588 
 100   0.0000       1.490946        40.5707 
 101   0.0000       1.508021        41.0353 
 102   0.0000       1.687625        45.9226 
 103   0.0000       1.753629        47.7187 
 104   0.0000       1.760453        47.9044 
 105   0.0000       1.761275        47.9267 
 106   0.0000       1.807064        49.1727 
 107   0.0000       1.831649        49.8417 
 108   0.0000       1.840402        50.0799 
 109   0.0000       1.890824        51.4519 
 110   0.0000       1.912447        52.0403 
 111   0.0000       1.944167        52.9035 
 112   0.0000       1.972584        53.6767 
 113   0.0000       1.998851        54.3915 
 114   0.0000       2.044830        55.6427 
 115   0.0000       2.058799        56.0228 
 116   0.0000       2.073211        56.4149 
 117   0.0000       2.133627        58.0589 
 118   0.0000       2.137121        58.1540 
 119   0.0000       2.166542        58.9546 
 120   0.0000       2.198556        59.8257 
 121   0.0000       2.228603        60.6434 
 122   0.0000       2.253407        61.3183 
 123   0.0000       2.279157        62.0190 
 124   0.0000       2.293754        62.4162 
 125   0.0000       2.300570        62.6017 
 126   0.0000       2.393110        65.1198 
 127   0.0000       2.427359        66.0518 
 128   0.0000       2.509392        68.2840 
 129   0.0000       2.580733        70.2253 
 130   0.0000       2.593804        70.5810 
 131   0.0000       2.607101        70.9428 
 132   0.0000       2.651171        72.1420 
 133   0.0000       2.668296        72.6080 
 134   0.0000       2.740075        74.5612 
 135   0.0000       2.752176        74.8905 
 136   0.0000       2.761698        75.1496 
 137   0.0000       2.882526        78.4375 
 138   0.0000       2.971088        80.8474 
 139   0.0000       2.995943        81.5237 
 140   0.0000       3.161348        86.0246 
 141   0.0000       3.409368        92.7736 
------------------
MOLECULAR ORBITALS
------------------
                      0         1         2         3         4         5   
                 -19.12015 -10.26560 -10.19666 -10.19490 -10.19229 -10.18956
                   2.00000   2.00000   2.00000   2.00000   2.00000   2.00000
                  --------  --------  --------  --------  --------  --------
  0C   1s         0.000042 -0.000081 -0.024049  0.003644  0.003054 -0.013601
  0C   2s         0.000331 -0.000398  0.000899 -0.000019  0.000009 -0.000970
  0C   1pz        0.000004 -0.000002 -0.000080 -0.000007  0.000001  0.000008
  0C   1px       -0.000055  0.000042  0.001154  0.000124 -0.000070 -0.000130
  0C   1py       -0.000060 -0.000089  0.000459 -0.000061  0.000292  0.000056
  0C   3s        -0.007070  0.003958 -0.008829  0.006453 -0.005022  0.004918
  0C   2pz        0.000346 -0.000186  0.000269 -0.000161  0.000114 -0.000131
  0C   2px       -0.005014  0.002281 -0.003990  0.002870 -0.002155  0.002475
  0C   2py       -0.001855  0.003126 -0.000948 -0.001829  0.001973 -0.002224
  0C   1dz2       0.000077 -0.000123 -0.000627  0.000119 -0.000016 -0.000074
  0C   1dxz       0.000020 -0.000020 -0.000131  0.000014 -0.000008 -0.000007
  0C   1dyz       0.000004  0.000001 -0.000052  0.000007 -0.000001 -0.000002
  0C   1dx2y2    -0.000170  0.000099  0.000796  0.000002  0.000093 -0.000024
  0C   1dxy      -0.000076 -0.000036  0.000748 -0.000068  0.000023  0.000008
  1C   1s        -0.000054  0.001170 -0.989005  0.107573  0.001722  0.001483
  1C   2s        -0.000146 -0.001260 -0.036226  0.005911 -0.000340  0.000308
  1C   1pz       -0.000026  0.000042 -0.000012 -0.000048 -0.000006 -0.000000
  1C   1px        0.000359 -0.000493  0.000150  0.000934  0.000037 -0.000028
  1C   1py        0.000224 -0.000817  0.000176 -0.000940  0.000254  0.000145
  1C   3s         0.003350  0.007710  0.030786 -0.015477  0.002939 -0.007231
  1C   2pz        0.000684 -0.000650  0.000086 -0.000023  0.000092 -0.000003
  1C   2px       -0.010488  0.009928 -0.001410 -0.001082 -0.000464 -0.000528
  1C   2py       -0.000631  0.000811  0.000392  0.007293 -0.004873  0.002899
  1C   1dz2      -0.000052  0.000531  0.000518 -0.000684 -0.000076 -0.000036
  1C   1dxz       0.000004  0.000002  0.000069 -0.000081 -0.000013 -0.000012
  1C   1dyz       0.000005  0.000041  0.000008  0.000060  0.000001 -0.000002
  1C   1dx2y2    -0.000127  0.000941 -0.000165  0.000285  0.000073  0.000114
  1C   1dxy      -0.000120 -0.000264  0.000017 -0.001106 -0.000027  0.000043
  2C   1s        -0.000003 -0.000040 -0.000425  0.001187  0.050299 -0.012552
  2C   2s         0.000001 -0.000192  0.000128  0.000587 -0.000291 -0.000239
  2C   1pz        0.000002 -0.000001 -0.000009 -0.000009  0.000056  0.000009
  2C   1px       -0.000061  0.000037  0.000103  0.000134 -0.001029 -0.000148
  2C   1py        0.000120 -0.000088  0.000182  0.000027  0.000833  0.000022
  2C   3s         0.000268  0.002630  0.001928 -0.005121  0.011670 -0.006428
  2C   2pz       -0.000100 -0.000045 -0.000091  0.000223 -0.000377  0.000221
  2C   2px        0.001789  0.000409  0.001407 -0.003236  0.005878 -0.003242
  2C   2py       -0.001163  0.001472  0.000056 -0.001177 -0.000113 -0.001007
  2C   1dz2       0.000017 -0.000055  0.000050  0.000094  0.000585 -0.000102
  2C   1dxz      -0.000000 -0.000005  0.000008  0.000009  0.000061 -0.000007
  2C   1dyz       0.000001 -0.000001 -0.000004  0.000002 -0.000062  0.000000
  2C   1dx2y2     0.000030 -0.000021 -0.000048  0.000019 -0.000148 -0.000055
  2C   1dxy      -0.000003 -0.000007  0.000071  0.000004  0.001131 -0.000050
  3C   1s         0.000004  0.000016  0.001434 -0.003535  0.990541 -0.080431
  3C   2s         0.000028  0.000085  0.000451 -0.000124  0.036096 -0.005057
  3C   1pz       -0.000005  0.000006 -0.000005 -0.000016 -0.000016  0.000087
  3C   1px        0.000078 -0.000100  0.000050  0.000211  0.000090 -0.001238
  3C   1py       -0.000036 -0.000005  0.000135  0.000172  0.000775 -0.000570
  3C   3s        -0.000960 -0.002165 -0.002398  0.005729 -0.031219  0.016056
  3C   2pz       -0.000054  0.000073  0.000031 -0.000070  0.000148 -0.000295
  3C   2px        0.000846 -0.000808 -0.000171  0.000485 -0.000990  0.003375
  3C   2py       -0.000039 -0.001640 -0.001563  0.003058 -0.006606  0.006160
  3C   1dz2       0.000011  0.000012  0.000067  0.000016 -0.000541  0.000661
  3C   1dxz       0.000000  0.000003  0.000007 -0.000002 -0.000080  0.000144
  3C   1dyz      -0.000002  0.000002  0.000001 -0.000005  0.000001  0.000047
  3C   1dx2y2     0.000005 -0.000024 -0.000001  0.000042  0.000329 -0.000955
  3C   1dxy       0.000042 -0.000032  0.000015  0.000097 -0.000139 -0.000686
  4C   1s         0.000032 -0.000108 -0.003065 -0.039783  0.080650  0.990941
  4C   2s         0.000203 -0.000499  0.000209  0.000653  0.000836  0.036662
  4C   1pz        0.000004 -0.000007 -0.000001 -0.000028 -0.000084  0.000044
  4C   1px       -0.000054  0.000097 -0.000035  0.000187  0.001211 -0.000788
  4C   1py       -0.000062  0.000093  0.000287  0.001241  0.000507  0.000550
  4C   3s        -0.001674  0.005218  0.000888 -0.012528  0.010782 -0.034342
  4C   2pz       -0.000030  0.000114  0.000060 -0.000134  0.000340 -0.000346
  4C   2px        0.000616 -0.002277 -0.000942  0.003160 -0.005588  0.006373
  4C   2py       -0.000743  0.002556  0.000033 -0.005471  0.001577 -0.005025
  4C   1dz2       0.000075 -0.000146  0.000003 -0.000591  0.000556 -0.000679
  4C   1dxz       0.000004 -0.000010  0.000011 -0.000005  0.000124 -0.000079
  4C   1dyz       0.000005 -0.000007 -0.000003 -0.000055  0.000054 -0.000050
  4C   1dx2y2     0.000068 -0.000103 -0.000161 -0.001037 -0.000794 -0.000053
  4C   1dxy      -0.000033  0.000042  0.000015  0.000445 -0.000811  0.000534
  5C   1s        -0.000011 -0.000046 -0.107511 -0.988509 -0.006507 -0.039676
  5C   2s         0.000081  0.000031 -0.002189 -0.036371 -0.000380 -0.003609
  5C   1pz        0.000001  0.000001  0.000047 -0.000053 -0.000015 -0.000033
  5C   1px       -0.000069  0.000094 -0.000910  0.000784  0.000173  0.000257
  5C   1py        0.000302 -0.000529  0.000879  0.000183  0.000287  0.001306
  5C   3s         0.005160 -0.009243 -0.004886  0.033437 -0.004834  0.015586
  5C   2pz        0.000057 -0.000242 -0.000134  0.000471 -0.000189  0.000387
  5C   2px       -0.001000  0.003661  0.002462 -0.006864  0.002751 -0.005193
  5C   2py        0.000590  0.000548 -0.001948 -0.002339  0.000956 -0.004122
  5C   1dz2      -0.000011  0.000031 -0.000613  0.000627  0.000015  0.000632
  5C   1dxz       0.000013 -0.000018 -0.000069  0.000049 -0.000004  0.000002
  5C   1dyz      -0.000004 -0.000002  0.000059 -0.000010  0.000007  0.000044
  5C   1dx2y2    -0.000229  0.000310  0.000225  0.000251  0.000101  0.001112
  5C   1dxy       0.000010  0.000101 -0.001078  0.000412 -0.000077 -0.000250
  6C   1s        -0.000280  0.995217  0.001143 -0.000193 -0.000021  0.000004
  6C   2s        -0.001021  0.037067  0.001414  0.000236 -0.000144 -0.000183
  6C   1pz        0.000012  0.000076  0.000017 -0.000003  0.000001 -0.000000
  6C   1px       -0.000189 -0.001397 -0.000084  0.000042 -0.000004  0.000001
  6C   1py        0.000021  0.001088 -0.000913  0.000053 -0.000034  0.000021
  6C   3s        -0.007849 -0.018222 -0.007280 -0.000930  0.002529 -0.000081
  6C   2pz       -0.000794  0.000715 -0.000166  0.000020  0.000050  0.000003
  6C   2px        0.013498 -0.012249  0.001725 -0.000516 -0.000432  0.000103
  6C   2py       -0.006088  0.005921  0.004333  0.001008 -0.001746 -0.000787
  6C   1dz2      -0.000135 -0.001248 -0.000548  0.000103 -0.000046 -0.000024
  6C   1dxz      -0.000016 -0.000151  0.000001  0.000009 -0.000004  0.000000
  6C   1dyz       0.000048  0.000056 -0.000043  0.000011 -0.000002 -0.000001
  6C   1dx2y2     0.000168  0.000415 -0.001024  0.000068 -0.000022 -0.000049
  6C   1dxy      -0.000764 -0.001209  0.000279 -0.000129  0.000009  0.000002
  7C   1s         0.000078  0.000932  0.000579  0.000464 -0.000061 -0.000181
  7C   2s         0.000938 -0.001245  0.000358  0.000242 -0.000047 -0.000097
  7C   1pz        0.000005 -0.000041  0.000006  0.000002 -0.000001 -0.000001
  7C   1px       -0.000122  0.000568 -0.000071 -0.000018  0.000008  0.000011
  7C   1py        0.000218  0.000319 -0.000147 -0.000086 -0.000000  0.000031
  7C   3s        -0.005917  0.009424 -0.001206 -0.000553  0.000353  0.000267
  7C   2pz       -0.000058  0.000211 -0.000036  0.000009  0.000015  0.000018
  7C   2px        0.000411 -0.002364  0.000579 -0.000160 -0.000262 -0.000275
  7C   2py        0.002479 -0.004617 -0.000067  0.000096  0.000172  0.000011
  7C   1dz2       0.000122  0.000503  0.000066  0.000008  0.000004 -0.000017
  7C   1dxz      -0.000013  0.000117  0.000012  0.000002 -0.000001 -0.000003
  7C   1dyz       0.000016  0.000041 -0.000008 -0.000003  0.000002  0.000000
  7C   1dx2y2     0.000436 -0.000815 -0.000097 -0.000033  0.000024  0.000020
  7C   1dxy      -0.000123 -0.000628  0.000131  0.000047 -0.000020 -0.000006
  8H   1s         0.000138 -0.000212  0.000296  0.000046 -0.000098  0.000124
  8H   2s        -0.000773 -0.000526 -0.000278  0.000577 -0.000468  0.000881
  9H   1s         0.000131 -0.000047  0.000061 -0.000108 -0.000213 -0.000029
  9H   2s         0.000369  0.000262  0.000173 -0.000954  0.001328 -0.000598
 10H   1s         0.000062 -0.000096 -0.000040  0.000082 -0.001381 -0.000015
 10H   2s         0.000077 -0.000405 -0.000500  0.000490  0.002822  0.001019
 11H   1s         0.000029 -0.000206  0.000405  0.001399 -0.000088 -0.000087
 11H   2s        -0.000334 -0.000532 -0.000466 -0.003088 -0.000526  0.000947
 12H   1s        -0.000008  0.000083  0.000067  0.000172 -0.000248 -0.001344
 12H   2s        -0.000247  0.000926  0.000035 -0.001336  0.001435  0.002502
 13O   1s        -0.995175  0.000029 -0.000001  0.000015 -0.000001 -0.000002
 13O   2s        -0.030425  0.001416  0.000107  0.000230 -0.000014 -0.000040
 13O   1pz        0.000094  0.000048 -0.000004  0.000000  0.000002  0.000000
 13O   1px       -0.001722 -0.000859  0.000077 -0.000006 -0.000021 -0.000005
 13O   1py        0.001324  0.000599 -0.000069  0.000005 -0.000016 -0.000013
 13O   3s         0.025017 -0.010621  0.000699 -0.001069 -0.000018  0.000289
 13O   2pz       -0.000304  0.000241  0.000017  0.000016 -0.000010 -0.000010
 13O   2px        0.005621 -0.004431 -0.000146 -0.000292  0.000116  0.000138
 13O   2py       -0.004665  0.003554 -0.000579  0.000251  0.000211  0.000108
 13O   1dz2      -0.000113  0.001132  0.000162  0.000025 -0.000013  0.000002
 13O   1dxz      -0.000011  0.000139  0.000026  0.000003 -0.000003 -0.000002
 13O   1dyz       0.000020 -0.000086  0.000011 -0.000002 -0.000001 -0.000000
 13O   1dx2y2     0.000037 -0.000500 -0.000095 -0.000012  0.000024  0.000032
 13O   1dxy      -0.000337  0.001627 -0.000134  0.000041  0.000018  0.000009
 14H   1s         0.000336 -0.000577  0.000092  0.000011  0.000018 -0.000010
 14H   2s         0.000962 -0.001244 -0.000058  0.000677  0.000076  0.000167
 15H   1s         0.000121 -0.000442  0.000016  0.000030 -0.000018 -0.000008
 15H   2s         0.000358  0.000910  0.000073 -0.000003 -0.000036 -0.000007
 16H   1s         0.000121 -0.000442  0.000016  0.000030 -0.000018 -0.000008
 16H   2s         0.000358  0.000910  0.000074 -0.000003 -0.000036 -0.000007
                      6         7         8         9        10        11   
                 -10.18884 -10.18784 -10.18078  -1.02675  -0.85656  -0.76597
                   2.00000   2.00000   2.00000   2.00000   2.00000   2.00000
                  --------  --------  --------  --------  --------  --------
  0C   1s         0.969793  0.221455 -0.000192 -0.008351 -0.089462  0.013117
  0C   2s         0.035138  0.010256  0.000265  0.015818  0.169621 -0.026241
  0C   1pz       -0.000047  0.000019 -0.000002 -0.000515 -0.002546  0.004539
  0C   1px        0.000780 -0.000008  0.000029  0.006595  0.046668 -0.056482
  0C   1py       -0.000258 -0.001429  0.000042  0.007127 -0.035907 -0.071394
  0C   3s        -0.028963 -0.021577 -0.001039 -0.006141  0.109793 -0.020938
  0C   2pz        0.000290  0.000233  0.000120  0.000210 -0.000256  0.000238
  0C   2px       -0.005242 -0.004873 -0.001636 -0.003684  0.005139 -0.003062
  0C   2py        0.003781  0.006362 -0.001183  0.002068 -0.006571 -0.002699
  0C   1dz2      -0.000443 -0.000718  0.000091 -0.001156 -0.008675  0.000927
  0C   1dxz      -0.000061 -0.000020  0.000017 -0.000128 -0.000983  0.000633
  0C   1dyz      -0.000033 -0.000062  0.000002 -0.000074 -0.000202  0.000093
  0C   1dx2y2     0.000096 -0.001040 -0.000108 -0.000171  0.000139 -0.007681
  0C   1dxy       0.000377  0.000519 -0.000026  0.000724  0.000200 -0.002635
  1C   1s        -0.023906 -0.004849 -0.000497 -0.023025 -0.095050  0.111347
  1C   2s        -0.002721 -0.000745  0.000198  0.044517  0.182156 -0.218441
  1C   1pz       -0.000081 -0.000011 -0.000015 -0.000061  0.000937  0.002848
  1C   1px        0.001125  0.000177  0.000184 -0.004716 -0.003922 -0.040919
  1C   1py        0.000660 -0.000042  0.000205  0.028717 -0.054047 -0.016638
  1C   3s         0.011056  0.009084  0.000577  0.016043  0.105824 -0.158478
  1C   2pz        0.000226  0.000205  0.000080  0.001444  0.000237  0.000252
  1C   2px       -0.001911 -0.002421 -0.001107 -0.024291  0.000382 -0.001367
  1C   2py       -0.008099 -0.003896 -0.000671  0.009928 -0.019771 -0.013308
  1C   1dz2       0.000632  0.000149  0.000033 -0.003410 -0.008131  0.007281
  1C   1dxz       0.000132  0.000032 -0.000006 -0.000086 -0.000974  0.000779
  1C   1dyz       0.000052  0.000004 -0.000016 -0.000106 -0.000156  0.000127
  1C   1dx2y2    -0.000806 -0.000222  0.000095 -0.004498  0.001027  0.000435
  1C   1dxy      -0.000747 -0.000053  0.000273 -0.000398 -0.000165  0.000613
  2C   1s         0.220741 -0.968968 -0.000058 -0.001636 -0.090401 -0.081814
  2C   2s         0.006089 -0.036192  0.000067  0.002813  0.171495  0.158122
  2C   1pz        0.000017  0.000066  0.000001 -0.000077 -0.003815 -0.002023
  2C   1px       -0.000029 -0.000929 -0.000017  0.000800  0.055471  0.040469
  2C   1py       -0.001213 -0.000506  0.000029  0.001980  0.019062 -0.045825
  2C   3s         0.005820  0.035949 -0.000999  0.003287  0.105219  0.122297
  2C   2pz       -0.000246 -0.000581 -0.000009 -0.000120 -0.000314  0.000003
  2C   2px        0.003105  0.008322  0.000280  0.001429  0.004938  0.000571
  2C   2py        0.003623  0.003562 -0.000734  0.002152  0.000126 -0.003424
  2C   1dz2       0.000470  0.000763  0.000026 -0.000229 -0.008571 -0.006448
  2C   1dxz      -0.000011  0.000045  0.000001 -0.000016 -0.000968 -0.000869
  2C   1dyz       0.000045  0.000004  0.000001 -0.000017 -0.000179  0.000165
  2C   1dx2y2     0.001046  0.000559  0.000025 -0.000175  0.000168  0.003123
  2C   1dxy      -0.000332  0.000317  0.000006  0.000152 -0.000133 -0.004173
  3C   1s        -0.015378  0.049126 -0.000040 -0.000847 -0.092718 -0.106644
  3C   2s        -0.001027  0.003907  0.000011  0.001504  0.175732  0.207540
  3C   1pz       -0.000014  0.000050 -0.000003 -0.000035 -0.001398  0.000610
  3C   1px        0.000294 -0.000939  0.000045  0.000381  0.010148 -0.015269
  3C   1py       -0.000420  0.000853  0.000004  0.000814  0.058592  0.029109
  3C   3s        -0.002408 -0.016019  0.000287  0.002326  0.113635  0.149869
  3C   2pz        0.000066  0.000009 -0.000023  0.000023 -0.000246  0.000523
  3C   2px       -0.000727  0.001279  0.000257 -0.000884  0.002343 -0.007151
  3C   2py       -0.001543 -0.007188  0.000469  0.002683  0.007251 -0.004657
  3C   1dz2       0.000115 -0.000654  0.000008 -0.000098 -0.008833 -0.008220
  3C   1dxz       0.000014 -0.000084  0.000001 -0.000012 -0.000984 -0.000890
  3C   1dyz      -0.000017  0.000059 -0.000001 -0.000006 -0.000205 -0.000056
  3C   1dx2y2    -0.000071  0.000375 -0.000004  0.000004 -0.000102 -0.000067
  3C   1dxy       0.000290 -0.001066  0.000015  0.000064  0.000131 -0.001946
  4C   1s         0.014822 -0.005344 -0.000170 -0.000964 -0.093604 -0.040239
  4C   2s         0.000029 -0.000414  0.000211  0.003181  0.177265  0.078095
  4C   1pz       -0.000008  0.000010  0.000002  0.000031  0.002452  0.004658
  4C   1px        0.000144 -0.000152 -0.000030 -0.000651 -0.045621 -0.061223
  4C   1py       -0.000064  0.000001  0.000014  0.000880  0.038049 -0.056706
  4C   3s         0.003440  0.007179 -0.001711 -0.014205  0.114033  0.052171
  4C   2pz        0.000127  0.000164 -0.000038 -0.000004  0.000169  0.000894
  4C   2px       -0.002318 -0.002992  0.000822  0.001998 -0.003765 -0.010905
  4C   2py        0.001705  0.002264 -0.001180 -0.009774  0.006141 -0.015193
  4C   1dz2      -0.000126  0.000068  0.000069  0.000128 -0.008952 -0.003034
  4C   1dxz      -0.000014  0.000007  0.000004 -0.000001 -0.000994 -0.000841
  4C   1dyz      -0.000005  0.000005  0.000001  0.000009 -0.000202 -0.000063
  4C   1dx2y2    -0.000007  0.000024  0.000060  0.000241 -0.000144  0.007487
  4C   1dxy       0.000035 -0.000043  0.000015 -0.000045  0.000048  0.001409
  5C   1s         0.000716 -0.000716 -0.000517 -0.004399 -0.095458  0.066964
  5C   2s        -0.000021  0.000465  0.000076  0.008511  0.181201 -0.130725
  5C   1pz       -0.000015  0.000007 -0.000010  0.000170  0.003721 -0.000909
  5C   1px        0.000237 -0.000094  0.000118 -0.003741 -0.053912  0.028912
  5C   1py       -0.000043 -0.000040  0.000155  0.005629 -0.019516 -0.074922
  5C   3s        -0.006097 -0.005315  0.000810  0.028186  0.112076 -0.096273
  5C   2pz       -0.000228 -0.000239  0.000107  0.000780  0.000199  0.000290
  5C   2px        0.003461  0.003398 -0.001490 -0.010347 -0.003415  0.000350
  5C   2py        0.000418  0.001613 -0.000921 -0.009177  0.001057 -0.024599
  5C   1dz2      -0.000043  0.000057 -0.000044 -0.000666 -0.009184  0.005201
  5C   1dxz      -0.000002  0.000007  0.000004 -0.000035 -0.001024  0.000722
  5C   1dyz      -0.000005  0.000001 -0.000003  0.000012 -0.000188 -0.000295
  5C   1dx2y2    -0.000056 -0.000007 -0.000139 -0.000498  0.000014 -0.003324
  5C   1dxy       0.000049  0.000005 -0.000003 -0.000523 -0.000244  0.005725
  6C   1s         0.000035  0.000012  0.000935 -0.119842 -0.013208  0.061011
  6C   2s        -0.000340  0.000069  0.001166  0.227379  0.025628 -0.124091
  6C   1pz       -0.000013  0.000001 -0.000041  0.007942 -0.000742  0.005084
  6C   1px        0.000190 -0.000008  0.000557 -0.143246  0.022197 -0.097221
  6C   1py        0.000093 -0.000007  0.000437  0.102665 -0.054418  0.093754
  6C   3s         0.002431  0.000510 -0.006505  0.079284  0.026878 -0.079993
  6C   2pz        0.000172 -0.000041  0.000332 -0.002404  0.000325  0.001236
  6C   2px       -0.002087  0.000623 -0.004733  0.040325 -0.001749 -0.021967
  6C   2py       -0.002915  0.000084 -0.002064 -0.015702 -0.017299  0.014757
  6C   1dz2      -0.000111  0.000006 -0.000554 -0.014873 -0.001198  0.003332
  6C   1dxz      -0.000012 -0.000002 -0.000107 -0.001848  0.000090  0.000171
  6C   1dyz      -0.000000  0.000003 -0.000052  0.001136 -0.000361  0.000841
  6C   1dx2y2    -0.000004  0.000049  0.000544  0.006965 -0.004327  0.005284
  6C   1dxy      -0.000037 -0.000032  0.000727 -0.021327  0.004330 -0.010845
  7C   1s        -0.000261  0.000017 -0.995299 -0.021436 -0.006914  0.075153
  7C   2s        -0.000257  0.000000 -0.037531  0.042825  0.012754 -0.143239
  7C   1pz        0.000003 -0.000001 -0.000017  0.001957  0.000177 -0.001497
  7C   1px       -0.000039  0.000018  0.000234 -0.029139 -0.001258  0.017904
  7C   1py       -0.000017  0.000010  0.000127 -0.006071 -0.007717  0.027408
  7C   3s         0.002043 -0.000374  0.033562  0.003575  0.013166 -0.126159
  7C   2pz        0.000070 -0.000010  0.000104  0.000058  0.000213 -0.000063
  7C   2px       -0.001038  0.000158 -0.001442 -0.003300 -0.002950 -0.001063
  7C   2py       -0.000218  0.000008 -0.000865  0.012548 -0.000770  0.008343
  7C   1dz2      -0.000028 -0.000006  0.000033 -0.001915 -0.000327  0.000986
  7C   1dxz      -0.000006  0.000001  0.000009 -0.000510 -0.000021  0.000088
  7C   1dyz      -0.000001 -0.000000  0.000002 -0.000142 -0.000045  0.000139
  7C   1dx2y2     0.000044 -0.000018 -0.000077  0.004092 -0.000349  0.000694
  7C   1dxy       0.000017 -0.000001 -0.000036  0.002352  0.000532 -0.001724
  8H   1s        -0.001366 -0.000171  0.000073  0.005063  0.032526 -0.007147
  8H   2s         0.002596 -0.000555 -0.000384  0.002213  0.002275  0.000929
  9H   1s        -0.000424  0.001302  0.000052  0.000498  0.033955  0.045149
  9H   2s         0.001775 -0.002211  0.000038  0.000509  0.003240  0.008352
 10H   1s        -0.000072  0.000047  0.000046  0.000328  0.035255  0.059802
 10H   2s        -0.000247 -0.001181  0.000123  0.000700  0.004247  0.010258
 11H   1s        -0.000055 -0.000119  0.000075  0.002428  0.038112 -0.043827
 11H   2s        -0.000784 -0.001022  0.001553  0.002888  0.003307 -0.010689
 12H   1s         0.000090  0.000072 -0.000021  0.000239  0.035653  0.021980
 12H   2s         0.000962  0.000637 -0.000543 -0.001987  0.004154  0.004440
 13O   1s         0.000002  0.000001  0.000030 -0.190477  0.023638 -0.051185
 13O   2s        -0.000058  0.000013  0.000628  0.415091 -0.053325  0.117383
 13O   1pz        0.000003  0.000001 -0.000012 -0.007110  0.000834 -0.000342
 13O   1px       -0.000061 -0.000020  0.000188  0.128755 -0.012993  0.005072
 13O   1py        0.000040 -0.000011  0.000014 -0.094202  0.000285  0.001256
 13O   3s        -0.000307  0.000111 -0.001521  0.390729 -0.051425  0.117438
 13O   2pz       -0.000027 -0.000004  0.000028 -0.002378  0.000162  0.000131
 13O   2px        0.000352  0.000059 -0.000527  0.043641 -0.002560 -0.003060
 13O   2py        0.000330  0.000017  0.000490 -0.034446  0.000514  0.005199
 13O   1dz2      -0.000062  0.000026  0.000273 -0.003904 -0.000205  0.001312
 13O   1dxz      -0.000009  0.000003  0.000029 -0.000507  0.000022  0.000114
 13O   1dyz      -0.000001  0.000001  0.000008  0.000664 -0.000035 -0.000022
 13O   1dx2y2     0.000037  0.000001  0.000032  0.003256 -0.000756  0.000351
 13O   1dxy       0.000007 -0.000014 -0.000022 -0.010952  0.000316  0.000870
 14H   1s        -0.000068 -0.000004  0.000542  0.006540  0.005995 -0.049121
 14H   2s         0.000243  0.000009 -0.006087  0.004196  0.003859 -0.010102
 15H   1s        -0.000064  0.000011  0.000422  0.008584  0.002203 -0.039920
 15H   2s        -0.000057  0.000016 -0.005684 -0.000104 -0.000451 -0.006587
 16H   1s        -0.000064  0.000011  0.000422  0.008583  0.002205 -0.039925
 16H   2s        -0.000057  0.000016 -0.005684 -0.000092 -0.000439 -0.006614
                     12        13        14        15        16        17   
                  -0.74913  -0.72650  -0.62782  -0.60598  -0.55015  -0.50855
                   2.00000   2.00000   2.00000   2.00000   2.00000   2.00000
                  --------  --------  --------  --------  --------  --------
  0C   1s         0.124886 -0.023450  0.056010 -0.090970  0.004824  0.029267
  0C   2s        -0.244334  0.045292 -0.112561  0.184778 -0.013061 -0.057760
  0C   1pz       -0.000337 -0.003200 -0.006960 -0.002226 -0.011319 -0.001402
  0C   1px       -0.001776  0.041050  0.087787  0.014364  0.176649  0.052618
  0C   1py        0.035395  0.044143  0.103295  0.102843 -0.003708 -0.156735
  0C   3s        -0.183851  0.035762 -0.094730  0.155852  0.003431 -0.105532
  0C   2pz       -0.000684 -0.000773 -0.001936  0.000623 -0.004875  0.000489
  0C   2px        0.010246  0.008555  0.026160 -0.019113  0.078032  0.000790
  0C   2py        0.002693  0.017282  0.020483  0.046287 -0.010954 -0.042429
  0C   1dz2       0.009378 -0.001751  0.002825 -0.004192  0.000534  0.002156
  0C   1dxz       0.000911 -0.000539  0.000024 -0.000766 -0.000355  0.000615
  0C   1dyz       0.000264 -0.000014 -0.000179  0.000183  0.000248 -0.000202
  0C   1dx2y2     0.002236  0.005188  0.003638  0.005232  0.006893 -0.006311
  0C   1dxy      -0.000476  0.000631  0.004452 -0.003232 -0.002320  0.002631
  1C   1s         0.039801 -0.051695 -0.079552  0.002790 -0.032501  0.010831
  1C   2s        -0.077833  0.100936  0.162213 -0.005887  0.068583 -0.023921
  1C   1pz       -0.006720  0.001448 -0.002170  0.012707  0.004630 -0.002071
  1C   1px        0.106591 -0.012397  0.006527 -0.201463 -0.025965  0.029141
  1C   1py       -0.011127 -0.051057  0.137791  0.020123 -0.232853  0.015123
  1C   3s        -0.064639  0.087804  0.133026  0.004309  0.023127 -0.020846
  1C   2pz       -0.001138 -0.000471 -0.000825  0.002307 -0.000177  0.001535
  1C   2px        0.019552  0.008966  0.001639 -0.035807  0.010304 -0.012685
  1C   2py       -0.008086 -0.007742  0.055354  0.000118 -0.038270 -0.055956
  1C   1dz2       0.002513 -0.003100 -0.002491  0.000029 -0.000034 -0.000433
  1C   1dxz       0.000614 -0.000443  0.000085 -0.000272 -0.000221  0.000657
  1C   1dyz       0.000567  0.000292 -0.000276 -0.000463  0.000215 -0.000461
  1C   1dx2y2    -0.003425  0.002505 -0.006077  0.002718  0.003872 -0.011845
  1C   1dxy      -0.008624 -0.005104  0.002251  0.007734 -0.002578  0.004681
  2C   1s         0.090924  0.050364  0.042787  0.083421  0.042260 -0.032372
  2C   2s        -0.177874 -0.099177 -0.086307 -0.169151 -0.087970  0.065273
  2C   1pz        0.000148  0.000645 -0.002552 -0.002611 -0.010479 -0.005577
  2C   1px        0.013499 -0.018964  0.067026  0.014755  0.165287  0.071908
  2C   1py       -0.079500  0.045382 -0.138208  0.130930 -0.012011  0.074527
  2C   3s        -0.127039 -0.074157 -0.056291 -0.134660 -0.092381  0.069921
  2C   2pz       -0.000693 -0.000232 -0.001885 -0.002414 -0.003808 -0.002023
  2C   2px        0.011990  0.000665  0.034454  0.028879  0.058186  0.025935
  2C   2py       -0.007828  0.015045 -0.027858  0.044008  0.003144  0.028027
  2C   1dz2       0.006663  0.003490  0.001970  0.003845  0.002227 -0.000269
  2C   1dxz       0.000478  0.000509  0.000099  0.000838  0.000294 -0.000429
  2C   1dyz       0.000535 -0.000157  0.000561 -0.000042  0.000192 -0.000207
  2C   1dx2y2     0.005100 -0.002471  0.003311 -0.006457 -0.000286  0.005356
  2C   1dxy      -0.005002  0.003155 -0.007378  0.000716 -0.002270  0.004162
  3C   1s        -0.033051  0.062615 -0.097418  0.008606 -0.032447  0.039843
  3C   2s         0.064721 -0.123805  0.198489 -0.017789  0.065510 -0.081844
  3C   1pz       -0.006897 -0.001906  0.000086 -0.012782 -0.000917 -0.006138
  3C   1px        0.109606  0.030910  0.011144  0.203343  0.002505  0.050135
  3C   1py       -0.012587 -0.006375 -0.063669 -0.023881  0.059498  0.229712
  3C   3s         0.048707 -0.092483  0.144220 -0.013233  0.043264 -0.094300
  3C   2pz       -0.001090 -0.000368  0.000905 -0.003392  0.000233 -0.002176
  3C   2px        0.018516  0.003499 -0.003348  0.052908 -0.005481  0.017370
  3C   2py       -0.006648  0.010872 -0.052436 -0.001378  0.009786  0.080609
  3C   1dz2      -0.002404  0.004266 -0.004642  0.000396 -0.000616  0.002664
  3C   1dxz      -0.000596  0.000407 -0.000340 -0.000247  0.000320 -0.000098
  3C   1dyz      -0.000605 -0.000059 -0.000278 -0.000461 -0.000222  0.000240
  3C   1dx2y2     0.003216  0.000597 -0.003201  0.002925 -0.006427  0.006430
  3C   1dxy       0.009224  0.002488  0.002132  0.007876  0.001982 -0.001572
  4C   1s        -0.124478 -0.005169  0.022305 -0.089373  0.045325 -0.035508
  4C   2s         0.243105  0.010775 -0.044928  0.181818 -0.094027  0.072076
  4C   1pz       -0.000700 -0.003368  0.008709  0.002056  0.009698  0.003115
  4C   1px        0.004098  0.041358 -0.110178 -0.010662 -0.162164 -0.063769
  4C   1py        0.034328  0.055737 -0.127747 -0.108199  0.058132  0.077615
  4C   3s         0.182063 -0.005105 -0.025146  0.134108 -0.099105  0.077834
  4C   2pz       -0.000774 -0.000315  0.002762 -0.000587  0.003972  0.000728
  4C   2px        0.012318  0.004746 -0.038010  0.019459 -0.065651 -0.016965
  4C   2py       -0.001233  0.001226 -0.025548 -0.051368  0.019495  0.029958
  4C   1dz2      -0.009236 -0.000219  0.001058 -0.003952  0.002477 -0.000282
  4C   1dxz      -0.000863  0.000345 -0.000412 -0.000679  0.000227 -0.000075
  4C   1dyz      -0.000253  0.000032 -0.000087  0.000261 -0.000083  0.000467
  4C   1dx2y2    -0.002688 -0.005402  0.007602  0.004548  0.000349  0.002032
  4C   1dxy       0.000252 -0.001626  0.003197 -0.004507  0.002201 -0.006943
  5C   1s        -0.089654 -0.057829  0.067198  0.083711 -0.005305  0.030255
  5C   2s         0.175602  0.113802 -0.135261 -0.169706  0.007723 -0.060400
  5C   1pz       -0.000317  0.001462  0.002653  0.003187  0.010784  0.009912
  5C   1px        0.021564 -0.023275 -0.061659 -0.025379 -0.178280 -0.132174
  5C   1py       -0.083634  0.003122  0.102976 -0.122615  0.053802 -0.110911
  5C   3s         0.131072  0.090270 -0.108189 -0.145512  0.018546 -0.094515
  5C   2pz       -0.000692 -0.000289  0.001583  0.002640  0.004266  0.002313
  5C   2px        0.012232  0.007124 -0.028295 -0.030429 -0.066347 -0.030840
  5C   2py       -0.008987 -0.014190  0.019947 -0.053755  0.002013 -0.026072
  5C   1dz2      -0.006742 -0.004041  0.003404  0.003961  0.000422  0.002152
  5C   1dxz      -0.000501 -0.000577  0.000536  0.000865 -0.000349  0.000787
  5C   1dyz      -0.000527  0.000044  0.000413 -0.000051  0.000206 -0.000068
  5C   1dx2y2    -0.004866  0.002267 -0.001349 -0.006707  0.006460 -0.008499
  5C   1dxy       0.004905 -0.001626 -0.005506  0.000841 -0.001782  0.000136
  6C   1s         0.002990  0.049096 -0.065194  0.005247  0.081633 -0.078069
  6C   2s        -0.006138 -0.099924  0.137185 -0.010438 -0.175549  0.169123
  6C   1pz       -0.001482  0.010669  0.002749  0.000729  0.000147 -0.005269
  6C   1px        0.015087 -0.154272 -0.009639 -0.012578 -0.023090  0.069658
  6C   1py        0.040377 -0.056125 -0.167639  0.005667  0.105739  0.061128
  6C   3s        -0.002776 -0.076205  0.103543 -0.006066 -0.161177  0.188788
  6C   2pz        0.000065  0.001908 -0.000613  0.001054  0.001381 -0.002345
  6C   2px       -0.001205 -0.028765  0.016058 -0.018019 -0.029409  0.041411
  6C   2py        0.000286 -0.004552 -0.032762  0.008480  0.040368 -0.026636
  6C   1dz2       0.000063  0.002335 -0.001603  0.000070  0.000423 -0.000773
  6C   1dxz      -0.000081  0.000702  0.000235 -0.000220 -0.000025  0.000101
  6C   1dyz       0.000221  0.000710 -0.000396 -0.000426  0.000233 -0.000128
  6C   1dx2y2     0.001959 -0.004577 -0.007234  0.002137  0.001748 -0.003126
  6C   1dxy      -0.003019 -0.011093  0.004174  0.007054 -0.003121  0.001102
  7C   1s        -0.014776  0.163938  0.047636 -0.026203 -0.034995  0.024912
  7C   2s         0.027843 -0.314770 -0.092263  0.051614  0.068985 -0.046902
  7C   1pz        0.000170 -0.001580  0.002760 -0.001209 -0.005894  0.011776
  7C   1px       -0.002591  0.022472 -0.033917  0.013821  0.075735 -0.173357
  7C   1py       -0.000311  0.010841 -0.044957  0.024835  0.079218 -0.046407
[...]
 4 C  dz2             0.1       0.0       2.2      11.6       0.1       4.4
 4 C  dxz             0.0       0.2       0.1       0.1       3.6       0.1
 4 C  dyz             0.0       2.8       0.0       0.0       3.3       0.0
 4 C  dx2y2           2.1       0.0       0.4       0.0       0.0       1.1
 4 C  dxy             0.2       0.0       2.3       5.9       0.0       0.0
 5 C  s               1.0       0.0       1.0       4.0       0.0       0.2
 5 C  pz              0.0       0.6       0.0       0.0       0.0       0.0
 5 C  px              0.1       0.0       0.5       0.2       0.0       0.2
 5 C  py              0.1       0.0       1.1       0.4       0.0       0.2
 5 C  dz2             2.0       0.1       1.5      10.0       0.0       0.8
 5 C  dxz             0.1       9.8       0.1       0.1       2.2       0.0
 5 C  dyz             0.0       0.0       0.0       0.1       4.2       0.0
 5 C  dx2y2           0.8       0.0       6.5       0.2       0.0       1.8
 5 C  dxy             0.3       0.0       0.8       5.7       0.0       0.6
 6 C  s               8.4       0.0       0.4       0.3       0.0       1.9
 6 C  pz              0.0       0.2       0.0       0.0       0.8       0.0
 6 C  px              0.1       0.0       2.0       0.3       0.0       0.3
 6 C  py              0.7       0.0       1.0       0.0       0.0       0.0
 6 C  dz2            27.8       0.3       0.4       0.6       0.1       7.2
 6 C  dxz             0.3      12.2       0.0       0.0      11.7       0.0
 6 C  dyz             0.0      13.0       0.1       0.0      14.4       0.1
 6 C  dx2y2           0.3       0.0       0.2       0.5       0.1       1.3
 6 C  dxy             4.7       0.1      18.3       0.1       0.1       0.9
 7 C  s               0.3       0.0       1.0       0.3       0.0       0.3
 7 C  px              0.1       0.0       1.1       0.1       0.0       0.2
 7 C  py              0.2       0.0       0.5       0.1       0.0       0.1
 7 C  dz2             3.6       0.1       6.8       0.8       0.0       2.3
 7 C  dxz             0.0       6.2       0.3       0.0       0.0       0.1
 7 C  dyz             0.0       2.8       0.0       0.0       2.8       0.0
 7 C  dx2y2           0.0       0.0      15.9       0.0       0.0       1.5
 7 C  dxy             1.8       0.0       0.4       0.9       0.0       0.2
 8 H  s               1.5       0.0       0.2       1.6       0.0       0.1
 9 H  s               0.0       0.0       0.3       1.0       0.0       0.3
10 H  s               0.4       0.0       0.3       0.1       0.0       0.5
11 H  s               0.2       0.0       0.6       0.9       0.0       0.1
12 H  s               0.1       0.0       0.0       1.8       0.0       0.3
13 O  s               3.7       0.0       2.3       0.1       0.0       0.0
13 O  pz              0.0       0.1       0.0       0.0       1.4       0.0
13 O  px              1.7       0.0       1.1       0.1       0.0       0.0
13 O  py              1.1       0.0       0.4       0.0       0.0       0.0
13 O  dz2             0.0       0.0       1.2       0.1       0.2       0.3
13 O  dxz             0.0       0.0       0.0       0.0      18.7       0.0
13 O  dyz             0.0       6.1       0.0       0.0       7.8       0.0
13 O  dx2y2           0.5       0.0       1.2       0.0       0.1       0.3
13 O  dxy             1.0       0.0       0.1       0.0       0.0       0.8
14 H  s               0.0       0.0       0.3       0.0       0.0       0.1
15 H  s               0.1       0.2       0.5       0.0       0.3       0.1
16 H  s               0.1       0.2       0.5       0.0       0.3       0.1

                    132       133       134       135       136       137   
                   2.64868   2.67144   2.74504   2.75130   2.76528   2.87364
                   0.00000   0.00000   0.00000   0.00000   0.00000   0.00000
                  --------  --------  --------  --------  --------  --------
 0 C  s               0.5       0.0       0.1       4.1       3.6       0.7
 0 C  px              0.1       0.0       0.9       0.2       1.4       0.1
 0 C  py              0.4       0.0       1.8       1.3       0.1       0.4
 0 C  dz2             1.6       0.1       0.0       4.5       5.6       1.0
 0 C  dxz             0.0       6.3       0.1       0.0       0.1       0.0
 0 C  dyz             0.0       6.2       0.0       0.1       0.0       0.0
 0 C  dx2y2           3.9       0.0      19.0       2.0       0.7       2.3
 0 C  dxy             3.6       0.0       3.8      12.3       0.3       0.1
 1 C  s               0.6       0.0       2.0       0.3       5.9       4.9
 1 C  px              0.2       0.0       0.6       3.6       0.3       0.1
 1 C  py              0.7       0.0       1.3       0.5       0.4       0.0
 1 C  dz2             0.1       0.2       0.2       0.1       8.3       5.7
 1 C  dxz             0.1      14.5       0.0       0.0       0.2       0.0
 1 C  dx2y2          11.9       0.1       0.0       0.1       1.7       5.9
 1 C  dxy             5.8       0.0       0.7       1.2       3.9       1.5
 2 C  s               0.8       0.0       1.1       1.1       1.1       1.3
 2 C  px              0.1       0.0       0.1       0.1       0.1       1.1
 2 C  py              0.9       0.0       1.9       2.1       0.5       1.5
 2 C  dz2             0.9       0.0       0.4       2.5       2.1       1.5
 2 C  dxz             0.1       1.4       0.0       0.0       0.1       0.0
 2 C  dyz             0.0       8.2       0.1       0.0       0.0       0.0
 2 C  dx2y2           6.2       0.0       1.2      13.0       1.4       3.6
 2 C  dxy             0.0       0.0      11.6       1.2       5.5       7.5
 3 C  s               0.0       0.0       1.6       0.2       1.3       0.7
 3 C  px              0.6       0.0       0.1       1.2       1.0       3.3
 3 C  py              0.0       0.0       0.7       0.0       0.0       0.3
 3 C  dz2             0.0       0.1       0.1       0.0       1.9       0.9
 3 C  dxz             0.1       8.6       0.0       0.0       0.0       0.0
 3 C  dyz             0.0       0.3       0.0       0.0       0.1       0.0
 3 C  dx2y2          19.7       0.0       0.8       0.2       4.2       1.0
 3 C  dxy             0.2       0.0       0.9       2.1       8.5      13.0
 4 C  s               0.7       0.0       1.0       0.4       2.5       0.5
 4 C  px              0.9       0.0       0.7       0.3       0.4       0.7
 4 C  py              0.3       0.0       3.5       0.3       0.1       0.6
 4 C  dz2             0.7       0.1       1.1       1.5       3.7       0.7
 4 C  dxz             0.0       3.4       0.0       0.0       0.1       0.0
 4 C  dyz             0.0       6.3       0.0       0.1       0.0       0.0
 4 C  dx2y2           1.2       0.0      18.4       0.0       4.7       7.3
 4 C  dxy             3.7       0.0       0.2      12.8       1.7       2.0
 5 C  s               0.1       0.0       1.7       3.1       1.3       2.5
 5 C  px              0.5       0.0       0.1       0.8       0.0       0.5
 5 C  py              1.4       0.0       3.0       0.2       0.1       0.4
 5 C  dz2             0.2       0.0       1.1       4.3       2.9       2.9
 5 C  dxz             0.0       0.8       0.0       0.0       0.0       0.1
 5 C  dyz             0.0       9.6       0.0       0.0       0.0       0.0
 5 C  dx2y2           0.8       0.0      11.3       2.2       0.3       1.5
 5 C  dxy             3.4       0.0       4.5      15.0       0.1       1.2
 6 C  s               1.2       0.0       0.2       0.3       0.8       2.2
 6 C  pz              0.0       0.5       0.0       0.0       0.0       0.0
 6 C  px              0.1       0.0       0.1       0.1       0.1       0.0
 6 C  py              1.8       0.0       0.2       0.1       0.4       0.4
 6 C  dz2             1.8       0.1       0.0       0.0       1.3       2.8
 6 C  dxz             0.1      11.6       0.0       0.0       0.1       0.0
 6 C  dyz             0.0       4.0       0.0       0.0       0.0       0.0
 6 C  dx2y2           4.0       0.1       0.2       0.0       4.2       0.1
 6 C  dxy             0.0       0.0       0.0       0.8       1.9       7.5
 7 C  s               0.0       0.0       0.1       0.0       0.1       0.1
 7 C  px              0.1       0.0       0.0       0.1       0.0       0.3
 7 C  dz2             0.1       0.0       0.2       0.3       0.1       0.7
 7 C  dxz             0.0       0.3       0.0       0.0       0.0       0.0
 7 C  dyz             0.0       1.7       0.0       0.0       0.0       0.0
 7 C  dx2y2           0.6       0.0       0.0       0.2       1.3       1.3
 7 C  dxy             4.1       0.0       0.0       0.1       2.4       0.4
 8 H  s               0.3       0.0       0.1       0.5       0.4       0.0
 9 H  s               0.5       0.0       0.3       0.5       0.7       0.0
10 H  s               1.4       0.0       0.0       0.0       1.0       0.0
11 H  s               0.3       0.0       0.0       0.4       0.1       0.5
12 H  s               0.2       0.0       0.0       0.7       0.6       0.1
13 O  s               0.4       0.0       0.1       0.3       1.5       1.2
13 O  pz              0.0       0.8       0.0       0.0       0.0       0.0
13 O  px              0.7       0.0       0.0       0.1       0.9       0.1
13 O  py              0.2       0.0       0.0       0.0       0.1       0.3
13 O  dz2             0.1       0.1       0.0       0.0       0.4       0.9
13 O  dxz             0.0       8.8       0.0       0.0       0.0       0.0
13 O  dyz             0.0       5.3       0.0       0.0       0.0       0.0
13 O  dx2y2           8.9       0.0       0.0       0.1       3.2       0.7
13 O  dxy             0.0       0.0       0.3       0.7       0.1       0.5
14 H  s               0.3       0.0       0.0       0.0       0.1       0.0
15 H  s               0.0       0.1       0.0       0.0       0.0       0.0
16 H  s               0.0       0.1       0.0       0.0       0.0       0.0

                    138       139       140       141   
                   2.98041   2.99280   3.15105   3.41758
                   0.00000   0.00000   0.00000   0.00000
                  --------  --------  --------  --------
 0 C  s               1.0       0.5       0.2       1.5
 0 C  px              0.2       0.1       1.3       0.0
 0 C  py              1.5       0.1       0.5       0.0
 0 C  dz2             1.2       0.4       0.1       1.0
 0 C  dx2y2           1.6       0.0       7.9       0.8
 0 C  dxy             1.1       0.0       0.2      12.5
 1 C  s               1.7       0.1       0.1       1.0
 1 C  px              1.1       0.2       1.3       0.0
 1 C  py              0.3       0.3       0.1       0.3
 1 C  dz2             2.8       0.4       0.0       0.6
 1 C  dx2y2           7.6       1.3       1.8      13.6
 1 C  dxy             0.0       0.0      25.8       2.1
 2 C  s               1.0       0.6       0.1       1.5
 2 C  px              0.0       0.1       0.1       0.1
 2 C  py              0.9       0.0       1.0       0.0
 2 C  dz2             1.0       0.5       0.0       1.0
 2 C  dx2y2           4.5       0.4       0.7       6.9
 2 C  dxy             1.6       0.0       2.1       5.6
 3 C  s               0.7       0.2       0.1       1.6
 3 C  px              1.3       0.0       0.6       0.0
 3 C  py              0.0       0.0       0.0       0.1
 3 C  dz2             0.9       0.2       0.1       1.0
 3 C  dx2y2           4.5       0.4       0.0      10.6
 3 C  dxy             2.1       0.1       2.8       1.1
 4 C  s               1.1       0.2       0.3       1.4
 4 C  px              1.0       0.0       0.2       0.1
 4 C  py              0.3       0.0       0.9       0.0
 4 C  dz2             1.2       0.2       0.1       1.0
 4 C  dx2y2           1.8       0.2       4.1       0.5
 4 C  dxy             2.2       0.0       0.2      11.3
 5 C  s               1.1       0.0       0.1       1.5
 5 C  px              0.2       0.0       0.8       0.1
 5 C  py              0.2       0.1       2.1       0.0
 5 C  dz2             1.6       0.0       0.0       1.0
 5 C  dx2y2           1.7       0.0       6.8       6.7
 5 C  dxy             1.6       0.2       3.4       5.7
 6 C  s               2.9       8.2       0.1       0.1
 6 C  px              1.1       4.8       0.4       0.0
 6 C  py              0.0       3.5       0.3       0.2
 6 C  dz2             1.4       0.6       0.0       0.0
 6 C  dx2y2          17.9      11.0       5.1       3.0
 6 C  dxy             0.5       1.8      16.0       0.1
 7 C  s               0.0       0.2       0.1       0.0
 7 C  px              0.2       0.0       0.5       0.0
 7 C  dz2             0.0       0.0       0.4       0.0
 7 C  dx2y2           0.2       0.2       1.1       0.0
 7 C  dxy             2.6       2.5       1.0       0.3
 8 H  s               0.1       0.0       0.0       0.6
 9 H  s               0.0       0.0       0.0       0.5
10 H  s               0.1       0.0       0.0       0.5
11 H  s               0.1       0.0       0.1       0.5
12 H  s               0.0       0.0       0.0       0.5
13 O  s               3.5      14.0       0.4       0.1
13 O  px              1.7       2.7       0.9       0.0
13 O  py              0.0       3.4       0.2       0.0
13 O  dz2             2.0       8.4       0.1       0.0
13 O  dxz             0.1       0.1       0.0       0.0
13 O  dx2y2          10.9       0.0       6.6       0.7
13 O  dxy             1.6      30.8       0.0       0.0
14 H  s               0.2       0.2       0.0       0.0


                      *****************************
                      * MAYER POPULATION ANALYSIS *
                      *****************************

  NA   - Mulliken gross atomic population
  ZA   - Total nuclear charge
  QA   - Mulliken gross atomic charge
  VA   - Mayer's total valence
  BVA  - Mayer's bonded valence
  FA   - Mayer's free valence

  ATOM       NA         ZA         QA         VA         BVA        FA
  0 C      6.1509     6.0000    -0.1509     3.9081     3.9081     0.0000
  1 C      5.9381     6.0000     0.0619     3.9291     3.9291     0.0000
  2 C      6.1301     6.0000    -0.1301     3.9170     3.9170    -0.0000
  3 C      6.1173     6.0000    -0.1173     3.9399     3.9399     0.0000
  4 C      6.1319     6.0000    -0.1319     3.9472     3.9472     0.0000
  5 C      6.1735     6.0000    -0.1735     3.9071     3.9071    -0.0000
  6 C      5.6371     6.0000     0.3629     3.9262     3.9262    -0.0000
  7 C      6.5366     6.0000    -0.5366     3.7946     3.7946    -0.0000
  8 H      0.8360     1.0000     0.1640     0.9454     0.9454    -0.0000
  9 H      0.8632     1.0000     0.1368     0.9364     0.9364     0.0000
 10 H      0.8635     1.0000     0.1365     0.9357     0.9357     0.0000
 11 H      0.8651     1.0000     0.1349     0.9405     0.9405     0.0000
 12 H      0.8654     1.0000     0.1346     0.9369     0.9369     0.0000
 13 O      8.4170     8.0000    -0.4170     2.0813     2.0813    -0.0000
 14 H      0.8447     1.0000     0.1553     0.9348     0.9348     0.0000
 15 H      0.8150     1.0000     0.1850     0.9306     0.9306    -0.0000
 16 H      0.8147     1.0000     0.1853     0.9306     0.9306    -0.0000

  Mayer bond orders larger than 0.1
B(  0-C ,  1-C ) :   1.3904 B(  0-C ,  2-C ) :   1.4470 B(  0-C ,  8-H ) :   0.9069 
B(  1-C ,  5-C ) :   1.4008 B(  1-C ,  6-C ) :   0.9963 B(  2-C ,  3-C ) :   1.4282 
B(  2-C ,  9-H ) :   0.9298 B(  3-C ,  4-C ) :   1.4557 B(  3-C , 10-H ) :   0.9294 
B(  4-C ,  5-C ) :   1.4383 B(  4-C , 12-H ) :   0.9293 B(  5-C , 11-H ) :   0.9145 
B(  6-C ,  7-C ) :   0.9728 B(  6-C , 13-O ) :   1.8967 B(  7-C , 14-H ) :   0.9276 
B(  7-C , 15-H ) :   0.9328 B(  7-C , 16-H ) :   0.9328 

-------
TIMINGS
-------

Total SCF time: 0 days 0 hours 0 min 19 sec 

Total time                  ....      19.567 sec
Sum of individual times     ....      19.292 sec  ( 98.6%)

Fock matrix formation       ....      17.205 sec  ( 87.9%)
  XC integration            ....       2.625 sec  ( 15.3% of F)
    Basis function eval.    ....       1.015 sec  ( 38.7% of XC)
    Density eval.           ....       0.674 sec  ( 25.7% of XC)
    XC-Functional eval.     ....       0.184 sec  (  7.0% of XC)
    XC-Potential eval.      ....       0.612 sec  ( 23.3% of XC)
Diagonalization             ....       0.004 sec  (  0.0%)
Density matrix formation    ....       0.002 sec  (  0.0%)
Population analysis         ....       0.047 sec  (  0.2%)
Initial guess               ....       0.003 sec  (  0.0%)
Orbital Transformation      ....       0.000 sec  (  0.0%)
Orbital Orthonormalization  ....       0.001 sec  (  0.0%)
DIIS solution               ....       0.001 sec  (  0.0%)
SOSCF solution              ....       0.010 sec  (  0.1%)
Grid generation             ....       2.020 sec  ( 10.3%)

-------------------------   --------------------
FINAL SINGLE POINT ENERGY      -384.649973904869
-------------------------   --------------------

                                *** OPTIMIZATION RUN DONE ***

                            ***************************************
                            *     ORCA property calculations      *
                            ***************************************

                                    ---------------------
                                    Active property flags
                                    ---------------------
   (+) Dipole Moment


------------------------------------------------------------------------------
                       ORCA ELECTRIC PROPERTIES CALCULATION
------------------------------------------------------------------------------

Dipole Moment Calculation                       ... on
Quadrupole Moment Calculation                   ... off
Polarizability Calculation                      ... off
GBWName                                         ... /Users/lailaal-madhagi/Desktop/Testing_XAS_Analysis_code/PhenylMethylKetone//Results_dir_PhenylMethylKetone_geom_element_C_2019-11-19_00-49-16//GTE1_PhenylMethylKetone_geom_2019-11-19_00-49-24//opt.gbw
Electron density file                           ... /Users/lailaal-madhagi/Desktop/Testing_XAS_Analysis_code/PhenylMethylKetone//Results_dir_PhenylMethylKetone_geom_element_C_2019-11-19_00-49-16//GTE1_PhenylMethylKetone_geom_2019-11-19_00-49-24//opt.scfp.tmp
The origin for moment calculation is the CENTER OF MASS  = (-0.879708,  2.779111 -0.081862)

-------------
DIPOLE MOMENT
-------------
                                X             Y             Z
Electronic contribution:     -3.40145      -0.14671       0.22756
Nuclear contribution   :      4.14544      -0.70932      -0.26693
                        -----------------------------------------
Total Dipole Moment    :      0.74398      -0.85603      -0.03937
                        -----------------------------------------
Magnitude (a.u.)       :      1.13484
Magnitude (Debye)      :      2.88452



--------------------
Rotational spectrum 
--------------------
 
Rotational constants in cm-1:     0.123670     0.039849     0.030307 
Rotational constants in MHz :  3707.535019  1194.646212   908.592993 

 Dipole components along the rotational axes: 
x,y,z [a.u.] :    -0.719624     0.877490    -0.002117 
x,y,z [Debye]:    -1.829140     2.230403    -0.005380 

 

Timings for individual modules:

Sum of individual times         ...      356.124 sec (=   5.935 min)
GTO integral calculation        ...        3.691 sec (=   0.062 min)   1.0 %
SCF iterations                  ...      220.838 sec (=   3.681 min)  62.0 %
SCF Gradient evaluation         ...      130.467 sec (=   2.174 min)  36.6 %
Geometry relaxation             ...        1.128 sec (=   0.019 min)   0.3 %
                             ****ORCA TERMINATED NORMALLY****
TOTAL RUN TIME: 0 days 0 hours 5 minutes 57 seconds 211 msec
