
                                 *****************
                                 * O   R   C   A *
                                 *****************

           --- An Ab Initio, DFT and Semiempirical electronic structure package ---

                  #######################################################
                  #                        -***-                        #
                  #          Department of theory and spectroscopy      #
                  #               Directorship: Frank Neese             #
                  #        Max Planck Institute fuer Kohlenforschung    #
                  #                Kaiser Wilhelm Platz 1               #
                  #                 D-45470 Muelheim/Ruhr               #
                  #                      Germany                        #
                  #                                                     #
                  #                  All rights reserved                #
                  #                        -***-                        #
                  #######################################################


                         Program Version 4.1.0  - RELEASE  -


 With contributions from (in alphabetic order):
   Daniel Aravena         : Magnetic Properties
   Michael Atanasov       : Ab Initio Ligand Field Theory
   Alexander A. Auer      : GIAO ZORA
   Ute Becker             : Parallelization
   Giovanni Bistoni       : ED, Open-shell LED
   Martin Brehm           : Molecular dynamics
   Dmytro Bykov           : SCF Hessian
   Vijay G. Chilkuri      : MRCI spin determinant printing
   Dipayan Datta          : RHF DLPNO-CCSD density
   Achintya Kumar Dutta   : EOM-CC, STEOM-CC
   Dmitry Ganyushin       : Spin-Orbit,Spin-Spin,Magnetic field MRCI
   Miquel Garcia          : C-PCM Hessian
   Yang Guo               : DLPNO-NEVPT2, CIM, IAO-localization
   Andreas Hansen         : Spin unrestricted coupled pair/coupled cluster methods
   Benjamin Helmich-Paris : CASSCF linear response (MC-RPA)
   Lee Huntington         : MR-EOM, pCC
   Robert Izsak           : Overlap fitted RIJCOSX, COSX-SCS-MP3, EOM
   Christian Kollmar      : KDIIS, OOCD, Brueckner-CCSD(T), CCSD density
   Simone Kossmann        : Meta GGA functionals, TD-DFT gradient, OOMP2, MP2 Hessian
   Martin Krupicka        : AUTO-CI
   Lucas Lang             : DCDCAS
   Dagmar Lenk            : GEPOL surface, SMD
   Dimitrios Liakos       : Extrapolation schemes; parallel MDCI
   Dimitrios Manganas     : ROCIS; embedding schemes
   Dimitrios Pantazis     : SARC Basis sets
   Taras Petrenko         : DFT Hessian,TD-DFT gradient, ASA, ECA, R-Raman, ABS, FL, XAS/XES, NRVS
   Peter Pinski           : DLPNO-MP2, DLPNO-MP2 Gradient
   Christoph Reimann      : Effective Core Potentials
   Marius Retegan         : Local ZFS, SOC
   Christoph Riplinger    : Optimizer, TS searches, QM/MM, DLPNO-CCSD(T), (RO)-DLPNO pert. Triples
   Tobias Risthaus        : Range-separated hybrids, TD-DFT gradient, RPA, STAB
   Michael Roemelt        : Restricted open shell CIS
   Masaaki Saitow         : Open-shell DLPNO
   Barbara Sandhoefer     : DKH picture change effects
   Avijit Sen             : IP-ROCIS
   Kantharuban Sivalingam : CASSCF convergence, NEVPT2, FIC-MRCI
   Bernardo de Souza      : ESD, SOC TD-DFT
   Georgi Stoychev        : AutoAux, RI-MP2 NMR
   Willem Van den Heuvel  : Paramagnetic NMR
   Boris Wezisla          : Elementary symmetry handling
   Frank Wennmohs         : Technical directorship


 We gratefully acknowledge several colleagues who have allowed us to
 interface, adapt or use parts of their codes:
   Stefan Grimme, W. Hujo, H. Kruse,             : VdW corrections, initial TS optimization,
                  C. Bannwarth                     DFT functionals, gCP, sTDA/sTD-DF
   Ed Valeev                                     : LibInt (2-el integral package), F12 methods
   Garnet Chan, S. Sharma, J. Yang, R. Olivares  : DMRG
   Ulf Ekstrom                                   : XCFun DFT Library
   Mihaly Kallay                                 : mrcc  (arbitrary order and MRCC methods)
   Andreas Klamt, Michael Diedenhofen            : otool_cosmo (COSMO solvation model)
   Jiri Pittner, Ondrej Demel                    : Mk-CCSD
   Frank Weinhold                                : gennbo (NPA and NBO analysis)
   Christopher J. Cramer and Donald G. Truhlar   : smd solvation model
   Lars Goerigk                                  : TD-DFT with DH, B97 family of functionals
   V. Asgeirsson, H. Jonsson                     : NEB implementation
   FAccTs GmbH                                   : IRC, NEB, NEB-TS, Multilevel


 Your calculation uses the libint2 library for the computation of 2-el integrals
 For citations please refer to: http://libint.valeyev.net

 This ORCA versions uses:
   CBLAS   interface :  Fast vector & matrix operations
   LAPACKE interface :  Fast linear algebra routines
   SCALAPACK package :  Parallel linear algebra routines




***************************************
The coordinates will be read from file: /Users/lailaal-madhagi/Desktop/Testing_XAS_Analysis_code/OrthoNitroAniline/OrthoNitroAniline_geom.xyz
***************************************


----- Orbital basis set information -----
Your calculation utilizes the basis: 6-31G*
   H-He, Li-Ne : W. J. Hehre, R. Ditchfield and J.A. Pople, J. Chem. Phys. 56, 2257 (1972).
                 Note: He and Ne are unpublished basis sets taken from the Gaussian program.
                 Note: Li and B from J. D. Dill and J. A. Pople, J. Chem. Phys. 62, 2921 (1975).
   Na - Ar     : M. M. Francl, W. J. Pietro, W. J. Hehre, J. S. Binkley, M. S. Gordon, 
                 D. J. DeFrees and J. A. Pople, J. Chem. Phys. 77, 3654 (1982).
   K - Zn      : V. A. Rassolov, J. A. Pople, M. A. Ratner, and T. L. Windus, J. Chem. Phys. 109, 1223 (1998).

================================================================================
                                        WARNINGS
                       Please study these warnings very carefully!
================================================================================


WARNING: Geometry Optimization
  ===> : Switching off AutoStart
         For restart on a previous wavefunction, please use MOREAD

INFO   : the flag for use of LIBINT has been found!

================================================================================
                                       INPUT FILE
================================================================================
NAME = /Users/lailaal-madhagi/Desktop/Testing_XAS_Analysis_code/OrthoNitroAniline//Results_dir_OrthoNitroAniline_geom_element_C_2019-11-13_20-21-19//GTE1_OrthoNitroAniline_geom_2019-11-13_20-22-24//opt.inp
|  1> ! B3LYP 6-31G* TIGHTSCF Grid3 FinalGrid5 Opt 
|  2> !NormalPrint 
|  3> %output 
|  4> Print[P_Basis] 2 
|  5> Print[P_MOS] 1 
|  6> end 
|  7> *xyzfile 0 1 /Users/lailaal-madhagi/Desktop/Testing_XAS_Analysis_code/OrthoNitroAniline/OrthoNitroAniline_geom.xyz                           ****END OF INPUT****
================================================================================

                       *****************************
                       * Geometry Optimization Run *
                       *****************************

Geometry optimization settings:
Update method            Update   .... BFGS
Choice of coordinates    CoordSys .... Z-matrix Internals
Initial Hessian          InHess   .... Almoef's Model

Convergence Tolerances:
Energy Change            TolE     ....  5.0000e-06 Eh
Max. Gradient            TolMAXG  ....  3.0000e-04 Eh/bohr
RMS Gradient             TolRMSG  ....  1.0000e-04 Eh/bohr
Max. Displacement        TolMAXD  ....  4.0000e-03 bohr
RMS Displacement         TolRMSD  ....  2.0000e-03 bohr

------------------------------------------------------------------------------
                        ORCA OPTIMIZATION COORDINATE SETUP
------------------------------------------------------------------------------

The optimization will be done in new redundant internal coordinates
Making redundant internal coordinates   ...  (new redundants) done
Evaluating the initial hessian          ...  (Almloef) done
Evaluating the coordinates              ...  done
Calculating the B-matrix                .... done
Calculating the G-matrix                .... done
Diagonalizing the G-matrix              .... done
The first mode is                       ....   30
The number of degrees of freedom        ....   42

    -----------------------------------------------------------------
                    Redundant Internal Coordinates


    -----------------------------------------------------------------
         Definition                    Initial Value    Approx d2E/dq
    -----------------------------------------------------------------
      1. B(C   1,C   0)                  1.4161         0.567700   
      2. B(C   2,C   0)                  1.3931         0.617666   
      3. B(C   3,C   2)                  1.3878         0.629774   
      4. B(C   4,C   3)                  1.3915         0.621312   
      5. B(C   5,C   4)                  1.4081         0.584602   
      6. B(C   5,C   1)                  1.4384         0.523101   
      7. B(N   6,C   5)                  1.4258         0.490706   
      8. B(H   7,N   6)                  1.0230         0.412604   
      9. B(H   8,N   6)                  1.0309         0.400709   
     10. B(N   9,C   1)                  1.4403         0.465192   
     11. B(O  10,N   9)                  1.1948         1.026847   
     12. B(O  11,N   9)                  1.1908         1.042063   
     13. B(H  12,C   4)                  1.0832         0.369179   
     14. B(H  13,C   2)                  1.0826         0.370076   
     15. B(H  14,C   3)                  1.0825         0.370151   
     16. B(H  15,C   0)                  1.0825         0.370101   
     17. A(C   1,C   0,C   2)          121.6794         0.426963   
     18. A(C   2,C   0,H  15)          117.4933         0.354324   
     19. A(C   1,C   0,H  15)          120.8273         0.349306   
     20. A(C   0,C   1,N   9)          117.8651         0.403350   
     21. A(C   5,C   1,N   9)          124.3817         0.397582   
     22. A(C   0,C   1,C   5)          117.7532         0.414488   
     23. A(C   0,C   2,C   3)          120.1120         0.434994   
     24. A(C   0,C   2,H  13)          119.9943         0.354320   
     25. A(C   3,C   2,H  13)          119.8937         0.355488   
     26. A(C   2,C   3,C   4)          119.9728         0.435456   
     27. A(C   4,C   3,H  14)          120.0412         0.354685   
     28. A(C   2,C   3,H  14)          119.9860         0.355500   
     29. A(C   3,C   4,C   5)          121.4165         0.429668   
     30. A(C   5,C   4,H  12)          120.2139         0.350893   
     31. A(C   3,C   4,H  12)          118.3696         0.354528   
     32. A(C   1,C   5,N   6)          124.3371         0.401334   
     33. A(C   1,C   5,C   4)          119.0661         0.416656   
     34. A(C   4,C   5,N   6)          116.5968         0.409292   
     35. A(H   7,N   6,H   8)          115.2843         0.297308   
     36. A(C   5,N   6,H   8)          119.7728         0.340356   
     37. A(C   5,N   6,H   7)          124.9429         0.342026   
     38. A(C   1,N   9,O  11)          121.7906         0.443705   
     39. A(C   1,N   9,O  10)          120.0047         0.442526   
     40. A(O  10,N   9,O  11)          118.2047         0.509763   
     41. D(C   5,C   1,C   0,H  15)   -179.9996         0.022100   
     42. D(N   9,C   1,C   0,C   2)   -179.9993         0.022100   
     43. D(C   5,C   1,C   0,C   2)      0.0005         0.022100   
     44. D(N   9,C   1,C   0,H  15)      0.0006         0.022100   
     45. D(C   3,C   2,C   0,C   1)     -0.0001         0.026388   
     46. D(H  13,C   2,C   0,H  15)     -0.0002         0.026388   
     47. D(C   3,C   2,C   0,H  15)    180.0000         0.026388   
     48. D(H  13,C   2,C   0,C   1)    179.9997         0.026388   
     49. D(H  14,C   3,C   2,H  13)     -0.0001         0.027498   
     50. D(H  14,C   3,C   2,C   0)    179.9997         0.027498   
     51. D(C   4,C   3,C   2,H  13)   -179.9998         0.027498   
     52. D(C   4,C   3,C   2,C   0)      0.0000         0.027498   
     53. D(H  12,C   4,C   3,C   2)   -179.9992         0.026719   
     54. D(C   5,C   4,C   3,H  14)   -180.0000         0.026719   
     55. D(C   5,C   4,C   3,C   2)     -0.0003         0.026719   
     56. D(H  12,C   4,C   3,H  14)      0.0011         0.026719   
     57. D(N   6,C   5,C   4,H  12)      0.0006         0.023498   
     58. D(C   1,C   5,C   4,H  12)    179.9996         0.023498   
     59. D(C   1,C   5,C   4,C   3)      0.0007         0.023498   
     60. D(N   6,C   5,C   1,N   9)     -0.0020         0.018666   
     61. D(N   6,C   5,C   1,C   0)    179.9982         0.018666   
     62. D(N   6,C   5,C   4,C   3)   -179.9984         0.023498   
     63. D(C   4,C   5,C   1,N   9)    179.9990         0.018666   
     64. D(C   4,C   5,C   1,C   0)     -0.0008         0.018666   
     65. D(H   8,N   6,C   5,C   4)     -0.0012         0.019015   
     66. D(H   8,N   6,C   5,C   1)    179.9999         0.019015   
     67. D(H   7,N   6,C   5,C   4)    179.9959         0.019015   
     68. D(H   7,N   6,C   5,C   1)     -0.0031         0.019015   
     69. D(O  11,N   9,C   1,C   0)    179.9932         0.017053   
     70. D(O  10,N   9,C   1,C   5)    179.9973         0.017053   
     71. D(O  10,N   9,C   1,C   0)     -0.0029         0.017053   
     72. D(O  11,N   9,C   1,C   5)     -0.0066         0.017053   
    -----------------------------------------------------------------

Number of atoms                         .... 16
Number of degrees of freedom            .... 72

         *************************************************************
         *                GEOMETRY OPTIMIZATION CYCLE   1            *
         *************************************************************
---------------------------------
CARTESIAN COORDINATES (ANGSTROEM)
---------------------------------
  C     -1.458700    0.892160   -0.194210
  C     -0.069860    1.139360   -0.317970
  C     -1.958490   -0.393600    0.000280
  C     -1.090470   -1.473720    0.077620
  C      0.281500   -1.272770   -0.039220
  C      0.820840    0.012920   -0.236350
  N      2.239970    0.100480   -0.342170
  H      2.764440    0.966920   -0.485840
  H      2.812150   -0.754300   -0.273300
  N      0.356500    2.500630   -0.517000
  O     -0.452540    3.378000   -0.572920
  O      1.506640    2.787650   -0.629680
  H      0.935170   -2.134140    0.025020
  H     -3.025610   -0.551400    0.091350
  H     -1.481040   -2.471930    0.228790
  H     -2.173520    1.703350   -0.248090

----------------------------
CARTESIAN COORDINATES (A.U.)
----------------------------
  NO LB      ZA    FRAG     MASS         X           Y           Z
   0 C     6.0000    0    12.011   -2.756544    1.685938   -0.367004
   1 C     6.0000    0    12.011   -0.132016    2.153078   -0.600876
   2 C     6.0000    0    12.011   -3.701010   -0.743796    0.000529
   3 C     6.0000    0    12.011   -2.060690   -2.784927    0.146681
   4 C     6.0000    0    12.011    0.531958   -2.405187   -0.074115
   5 C     6.0000    0    12.011    1.551163    0.024415   -0.446637
   6 N     7.0000    0    14.007    4.232930    0.189880   -0.646608
   7 H     1.0000    0     1.008    5.224035    1.827214   -0.918105
   8 H     1.0000    0     1.008    5.314193   -1.425420   -0.516462
   9 N     7.0000    0    14.007    0.673687    4.725506   -0.976988
  10 O     8.0000    0    15.999   -0.855177    6.383495   -1.082662
  11 O     8.0000    0    15.999    2.847137    5.267895   -1.189923
  12 H     1.0000    0     1.008    1.767215   -4.032940    0.047281
  13 H     1.0000    0     1.008   -5.717574   -1.041995    0.172626
  14 H     1.0000    0     1.008   -2.798760   -4.671271    0.432350
  15 H     1.0000    0     1.008   -4.107358    3.218865   -0.468822

--------------------------------
INTERNAL COORDINATES (ANGSTROEM)
--------------------------------
 C      0   0   0     0.000000000000     0.00000000     0.00000000
 C      1   0   0     1.416086481540     0.00000000     0.00000000
 C      1   2   0     1.393124252104   121.67938467     0.00000000
 C      3   1   2     1.387839836004   120.11204607     0.00000000
 C      4   3   1     1.391522248834   119.97279856     0.00000000
 C      5   4   3     1.408100368795   121.41653270     0.00000000
 N      6   5   4     1.425761053929   116.59684581   180.00164665
 H      7   6   5     1.022950694511   124.94286062   179.99586439
 H      7   6   5     1.030913128105   119.77284116     0.00000000
 N      2   1   3     1.440295734702   117.86509998   180.00067952
 O     10   2   1     1.194759760328   120.00466100     0.00000000
 O     10   2   1     1.190755761019   121.79062957   179.99322018
 H      5   4   3     1.083221825574   118.36959104   180.00075653
 H      3   1   2     1.082561628407   119.99428009   179.99968629
 H      4   3   1     1.082506580996   119.98602454   179.99966704
 H      1   2   3     1.082543256826   120.82730397   179.99989192

---------------------------
INTERNAL COORDINATES (A.U.)
---------------------------
 C      0   0   0     0.000000000000     0.00000000     0.00000000
 C      1   0   0     2.676015632059     0.00000000     0.00000000
 C      1   2   0     2.632623307000   121.67938467     0.00000000
 C      3   1   2     2.622637207794   120.11204607     0.00000000
 C      4   3   1     2.629595959554   119.97279856     0.00000000
 C      5   4   3     2.660924066096   121.41653270     0.00000000
 N      6   5   4     2.694297924336   116.59684581   180.00164665
 H      7   6   5     1.933096661130   124.94286062   179.99586439
 H      7   6   5     1.948143479983   119.77284116     0.00000000
 N      2   1   3     2.721764490441   117.86509998   180.00067952
 O     10   2   1     2.257768742850   120.00466100     0.00000000
 O     10   2   1     2.250202280715   121.79062957   179.99322018
 H      5   4   3     2.046992592621   118.36959104   180.00075653
 H      3   1   2     2.045745000782   119.99428009   179.99968629
 H      4   3   1     2.045640976250   119.98602454   179.99966704
 H      1   2   3     2.045710283525   120.82730397   179.99989192

---------------------
BASIS SET INFORMATION
---------------------
There are 4 groups of distinct atoms

 Group   1 Type C   : 10s4p1d contracted to 3s2p1d pattern {631/31/1}
 Group   2 Type N   : 10s4p1d contracted to 3s2p1d pattern {631/31/1}
 Group   3 Type H   : 4s contracted to 2s pattern {31}
 Group   4 Type O   : 10s4p1d contracted to 3s2p1d pattern {631/31/1}

Atom   0C    basis set group =>   1
Atom   1C    basis set group =>   1
Atom   2C    basis set group =>   1
Atom   3C    basis set group =>   1
Atom   4C    basis set group =>   1
Atom   5C    basis set group =>   1
Atom   6N    basis set group =>   2
Atom   7H    basis set group =>   3
Atom   8H    basis set group =>   3
Atom   9N    basis set group =>   2
Atom  10O    basis set group =>   4
Atom  11O    basis set group =>   4
Atom  12H    basis set group =>   3
Atom  13H    basis set group =>   3
Atom  14H    basis set group =>   3
Atom  15H    basis set group =>   3

-------------------------
BASIS SET IN INPUT FORMAT
-------------------------

 # Basis set for element : H 
 NewGTO H 
 S 3 
   1      18.7311370000      0.0334945995
   2       2.8253937000      0.2347269467
   3       0.6401217000      0.8137573184
 S 1 
   1       0.1612778000      1.0000000000
  end;

 # Basis set for element : C 
 NewGTO C 
 S 6 
   1    3047.5249000000      0.0018347002
   2     457.3695100000      0.0140373012
   3     103.9486900000      0.0688426061
   4      29.2101550000      0.2321844206
   5       9.2866630000      0.4679413416
   6       3.1639270000      0.3623120322
 S 3 
   1       7.8682724000     -0.1193324086
   2       1.8812885000     -0.1608542116
   3       0.5442493000      1.1434564826
 P 3 
   1       7.8682724000      0.0689990956
   2       1.8812885000      0.3164239798
   3       0.5442493000      0.7443082524
 S 1 
   1       0.1687144000      1.0000000000
 P 1 
   1       0.1687144000      1.0000000000
 D 1 
   1       0.8000000000      1.0000000000
  end;

 # Basis set for element : N 
 NewGTO N 
 S 6 
   1    4173.5110000000      0.0018347994
   2     627.4579000000      0.0139949958
   3     142.9021000000      0.0685869792
   4      40.2343300000      0.2322409295
   5      12.8202100000      0.4690698576
   6       4.3904370000      0.3604548906
 S 3 
   1      11.6263580000     -0.1149610229
   2       2.7162800000     -0.1691180337
   3       0.7722180000      1.1458522281
 P 3 
   1      11.6263580000      0.0675800232
   2       2.7162800000      0.3239071114
   3       0.7722180000      0.7408952549
 S 1 
   1       0.2120313000      1.0000000000
 P 1 
   1       0.2120313000      1.0000000000
 D 1 
   1       0.8000000000      1.0000000000
  end;

 # Basis set for element : O 
 NewGTO O 
 S 6 
   1    5484.6717000000      0.0018310998
   2     825.2349500000      0.0139500985
   3     188.0469600000      0.0684450927
   4      52.9645000000      0.2327142753
   5      16.8975700000      0.4701929501
   6       5.7996353000      0.3585208619
 S 3 
   1      15.5396160000     -0.1107775038
   2       3.5999336000     -0.1480263051
   3       1.0137618000      1.1307670390
 P 3 
   1      15.5396160000      0.0708742995
   2       3.5999336000      0.3397527978
   3       1.0137618000      0.7271585953
 S 1 
   1       0.2700058000      1.0000000000
 P 1 
   1       0.2700058000      1.0000000000
 D 1 
   1       0.8000000000      1.0000000000
  end;

------------------------------------------------------------------------------
                           ORCA GTO INTEGRAL CALCULATION
------------------------------------------------------------------------------

                         BASIS SET STATISTICS AND STARTUP INFO

 # of primitive gaussian shells          ...  174
 # of primitive gaussian functions       ...  294
 # of contracted shells                  ...   72
 # of contracted basis functions         ...  152
 Highest angular momentum                ...    2
 Maximum contraction depth               ...    6
 Integral package used                   ... LIBINT
 Integral threshhold            Thresh   ...  2.500e-11
 Primitive cut-off              TCut     ...  2.500e-12


------------------------------ INTEGRAL EVALUATION ----------------------------


 * One electron integrals 
 Pre-screening matrix                    ... done
 Shell pair data                         ... done (   0.004 sec)

-------------------------------------------------------------------------------
                                 ORCA SCF
-------------------------------------------------------------------------------

------------
SCF SETTINGS
------------
Hamiltonian:
 Density Functional     Method          .... DFT(GTOs)
 Exchange Functional    Exchange        .... B88
   X-Alpha parameter    XAlpha          ....  0.666667
   Becke's b parameter  XBeta           ....  0.004200
 Correlation Functional Correlation     .... LYP
 LDA part of GGA corr.  LDAOpt          .... VWN-5
 Gradients option       PostSCFGGA      .... off
 Hybrid DFT is turned on
   Fraction HF Exchange ScalHFX         ....  0.200000
   Scaling of DF-GGA-X  ScalDFX         ....  0.720000
   Scaling of DF-GGA-C  ScalDFC         ....  0.810000
   Scaling of DF-LDA-C  ScalLDAC        ....  1.000000
   Perturbative correction              ....  0.000000
   Density functional embedding theory  .... OFF
   NL short-range parameter             ....  4.800000


General Settings:
 Integral files         IntName         .... /Users/lailaal-madhagi/Desktop/Testing_XAS_Analysis_code/OrthoNitroAniline//Results_dir_OrthoNitroAniline_geom_element_C_2019-11-13_20-21-19//GTE1_OrthoNitroAniline_geom_2019-11-13_20-22-24//opt
 Hartree-Fock type      HFTyp           .... RHF
 Total Charge           Charge          ....    0
 Multiplicity           Mult            ....    1
 Number of Electrons    NEL             ....   72
 Basis Dimension        Dim             ....  152
 Nuclear Repulsion      ENuc            ....    506.4278556121 Eh

Convergence Acceleration:
 DIIS                   CNVDIIS         .... on
   Start iteration      DIISMaxIt       ....    12
   Startup error        DIISStart       ....  0.200000
   # of expansion vecs  DIISMaxEq       ....     5
   Bias factor          DIISBfac        ....   1.050
   Max. coefficient     DIISMaxC        ....  10.000
 Newton-Raphson         CNVNR           .... off
 SOSCF                  CNVSOSCF        .... on
   Start iteration      SOSCFMaxIt      ....   150
   Startup grad/error   SOSCFStart      ....  0.003300
 Level Shifting         CNVShift        .... on
   Level shift para.    LevelShift      ....    0.2500
   Turn off err/grad.   ShiftErr        ....    0.0010
 Zerner damping         CNVZerner       .... off
 Static damping         CNVDamp         .... on
   Fraction old density DampFac         ....    0.7000
   Max. Damping (<1)    DampMax         ....    0.9800
   Min. Damping (>=0)   DampMin         ....    0.0000
   Turn off err/grad.   DampErr         ....    0.1000
 Fernandez-Rico         CNVRico         .... off

SCF Procedure:
 Maximum # iterations   MaxIter         ....   125
 SCF integral mode      SCFMode         .... Direct
   Integral package                     .... LIBINT
 Reset frequency        DirectResetFreq ....    20
 Integral Threshold     Thresh          ....  2.500e-11 Eh
 Primitive CutOff       TCut            ....  2.500e-12 Eh

Convergence Tolerance:
 Convergence Check Mode ConvCheckMode   .... Total+1el-Energy
 Convergence forced     ConvForced      .... 0
 Energy Change          TolE            ....  1.000e-08 Eh
 1-El. energy change                    ....  1.000e-05 Eh
 Orbital Gradient       TolG            ....  1.000e-05
 Orbital Rotation angle TolX            ....  1.000e-05
 DIIS Error             TolErr          ....  5.000e-07


Diagonalization of the overlap matrix:
Smallest eigenvalue                        ... 4.122e-04
Time for diagonalization                   ...    0.009 sec
Threshold for overlap eigenvalues          ... 1.000e-08
Number of eigenvalues below threshold      ... 0
Time for construction of square roots      ...    0.002 sec
Total time needed                          ...    0.011 sec

-------------------
DFT GRID GENERATION
-------------------

General Integration Accuracy     IntAcc      ...  4.340
Radial Grid Type                 RadialGrid  ... Gauss-Chebyshev
Angular Grid (max. acc.)         AngularGrid ... Lebedev-194
Angular grid pruning method      GridPruning ... 3 (G Style)
Weight generation scheme         WeightScheme... Becke
Basis function cutoff            BFCut       ...    1.0000e-11
Integration weight cutoff        WCut        ...    1.0000e-14
Grids for H and He will be reduced by one unit

# of grid points (after initial pruning)     ...  42208 (   0.0 sec)
# of grid points (after weights+screening)   ...  38952 (   0.1 sec)
nearest neighbour list constructed           ...    0.0 sec
Grid point re-assignment to atoms done       ...    0.0 sec
Grid point division into batches done        ...    0.1 sec
Reduced shell lists constructed in    0.3 sec

Total number of grid points                  ...    38952
Total number of batches                      ...      618
Average number of points per batch           ...       63
Average number of grid points per atom       ...     2434
Average number of shells per batch           ...    46.91 (65.16%)
Average number of basis functions per batch  ...   101.60 (66.84%)
Average number of large shells per batch     ...    35.50 (75.67%)
Average number of large basis fcns per batch ...    77.24 (76.02%)
Maximum spatial batch extension              ...  16.42, 17.60, 21.05 au
Average spatial batch extension              ...   2.82,  2.91,  3.44 au

Time for grid setup =    0.403 sec

------------------------------
INITIAL GUESS: MODEL POTENTIAL
------------------------------
Loading Hartree-Fock densities                     ... done
Calculating cut-offs                               ... done
Setting up the integral package                    ... done
Initializing the effective Hamiltonian             ... done
Starting the Coulomb interaction                   ... done (   0.1 sec)
Reading the grid                                   ... done
Mapping shells                                     ... done
Starting the XC term evaluation                    ... done (   0.3 sec)
  promolecular density results
     # of electrons  =     71.997716852
     EX              =    -62.189773846
     EC              =     -2.493401429
     EX+EC           =    -64.683175276
Transforming the Hamiltonian                       ... done (   0.0 sec)
Diagonalizing the Hamiltonian                      ... done (   0.0 sec)
Back transforming the eigenvectors                 ... done (   0.0 sec)
Now organizing SCF variables                       ... done
                      ------------------
                      INITIAL GUESS DONE (   0.9 sec)
                      ------------------
--------------
SCF ITERATIONS
--------------
               ***  Starting incremental Fock matrix formation  ***

                         ----------------------------
                         !        ITERATION     0   !
                         ----------------------------
   Total Energy        :    -491.515542621786 Eh
   Energy Change       :    -491.515542621786 Eh
   MAX-DP              :       0.082772248881
   RMS-DP              :       0.002742772870
   Actual Damping      :       0.7000
   Actual Level Shift  :       0.2500 Eh
   Int. Num. El.       :    71.99996489 (UP=   35.99998245 DN=   35.99998245)
   Exchange            :   -50.69662253
   Correlation         :    -2.95920433


                         ----------------------------
                         !        ITERATION     1   !
                         ----------------------------
   Total Energy        :    -491.659103172359 Eh
   Energy Change       :      -0.143560550573 Eh
   MAX-DP              :       0.051267508012
   RMS-DP              :       0.001727217268
   Actual Damping      :       0.7000
   Actual Level Shift  :       0.2500 Eh
   Int. Num. El.       :    72.00000310 (UP=   36.00000155 DN=   36.00000155)
   Exchange            :   -50.38420766
   Correlation         :    -2.94856644

                               ***Turning on DIIS***

                         ----------------------------
                         !        ITERATION     2   !
                         ----------------------------
   Total Energy        :    -491.709635192258 Eh
   Energy Change       :      -0.050532019899 Eh
   MAX-DP              :       0.065741490650
   RMS-DP              :       0.002610889504
   Actual Damping      :       0.0000
   Actual Level Shift  :       0.2500 Eh
   Int. Num. El.       :    72.00003475 (UP=   36.00001738 DN=   36.00001738)
   Exchange            :   -50.18819305
   Correlation         :    -2.94133118
   DIIS-Error          :       0.033071557329


                         ----------------------------
                         !        ITERATION     3   !
                         ----------------------------
   Total Energy        :    -491.797628991261 Eh
   Energy Change       :      -0.087993799003 Eh
   MAX-DP              :       0.034484112544
   RMS-DP              :       0.001134073691
   Actual Damping      :       0.0000
   Actual Level Shift  :       0.2500 Eh
   Int. Num. El.       :    72.00009890 (UP=   36.00004945 DN=   36.00004945)
   Exchange            :   -49.89732311
   Correlation         :    -2.92968209
   DIIS-Error          :       0.053885514287
   DIIS coefficients:
      0.61607   0.38393


                         ----------------------------
                         !        ITERATION     4   !
                         ----------------------------
   Total Energy        :    -491.812863375306 Eh
   Energy Change       :      -0.015234384044 Eh
   MAX-DP              :       0.009874270026
   RMS-DP              :       0.000403024343
   Actual Damping      :       0.0000
   Actual Level Shift  :       0.2500 Eh
   Int. Num. El.       :    72.00008642 (UP=   36.00004321 DN=   36.00004321)
   Exchange            :   -50.00253992
   Correlation         :    -2.93379556
   DIIS-Error          :       0.014019506096
   DIIS coefficients:
      0.28969   0.10893   0.60137


                         ----------------------------
                         !        ITERATION     5   !
                         ----------------------------
   Total Energy        :    -491.814289717422 Eh
   Energy Change       :      -0.001426342116 Eh
   MAX-DP              :       0.002987099095
   RMS-DP              :       0.000127565409
   Actual Damping      :       0.0000
   Actual Level Shift  :       0.2500 Eh
   Int. Num. El.       :    72.00007945 (UP=   36.00003972 DN=   36.00003972)
   Exchange            :   -50.03301831
   Correlation         :    -2.93525858
   DIIS-Error          :       0.003438523624
   DIIS coefficients:
      0.06828   0.01509   0.09067   0.82597

                      *** Initiating the SOSCF procedure ***
                           *** Shutting down DIIS ***
                      *** Re-Reading the Fockian *** 
                      *** Removing any level shift *** 

                         ----------------------------
                         !        ITERATION     6   !
                         ----------------------------
   Total Energy        :    -491.814342134433 Eh
   Energy Change       :      -0.000052417011 Eh
   MAX-DP              :       0.001352355549
   RMS-DP              :       0.000039468191
   Orbital gradient    :       0.000338228133
   Orbital Rotation    :       0.000338228133
   Actual Damping      :       0.0000
   Int. Num. El.       :    72.00007879 (UP=   36.00003940 DN=   36.00003940)
   Exchange            :   -50.04186902
   Correlation         :    -2.93553708

               *** Restarting incremental Fock matrix formation ***

                         ----------------------------
                         !        ITERATION     7   !
                         ----------------------------
   Total Energy        :    -491.814349361862 Eh
   Energy Change       :      -0.000007227429 Eh
   MAX-DP              :       0.001227494532
   RMS-DP              :       0.000031353456
   Orbital gradient    :       0.000187735367
   Orbital Rotation    :       0.000831899116
   Actual Damping      :       0.0000
   Int. Num. El.       :    72.00007899 (UP=   36.00003949 DN=   36.00003949)
   Exchange            :   -50.04179085
   Correlation         :    -2.93554375


                         ----------------------------
                         !        ITERATION     8   !
                         ----------------------------
   Total Energy        :    -491.814347545029 Eh
   Energy Change       :       0.000001816833 Eh
   MAX-DP              :       0.000913628965
   RMS-DP              :       0.000019202851
   Orbital gradient    :       0.000651878502
   Orbital Rotation    :       0.000895022468
   Actual Damping      :       0.0000
   Int. Num. El.       :    72.00007874 (UP=   36.00003937 DN=   36.00003937)
   Exchange            :   -50.04154096
   Correlation         :    -2.93553877


                         ----------------------------
                         !        ITERATION     9   !
                         ----------------------------
   Total Energy        :    -491.814350843029 Eh
   Energy Change       :      -0.000003298000 Eh
   MAX-DP              :       0.000309782470
   RMS-DP              :       0.000010541791
   Orbital gradient    :       0.000096012893
   Orbital Rotation    :       0.000221599067
   Actual Damping      :       0.0000
   Int. Num. El.       :    72.00007894 (UP=   36.00003947 DN=   36.00003947)
   Exchange            :   -50.04171691
   Correlation         :    -2.93554136


                         ----------------------------
                         !        ITERATION    10   !
                         ----------------------------
   Total Energy        :    -491.814350594406 Eh
   Energy Change       :       0.000000248623 Eh
   MAX-DP              :       0.000222900766
   RMS-DP              :       0.000006230060
   Orbital gradient    :       0.000132910194
   Orbital Rotation    :       0.000165647548
   Actual Damping      :       0.0000
   Int. Num. El.       :    72.00007903 (UP=   36.00003952 DN=   36.00003952)
   Exchange            :   -50.04185286
   Correlation         :    -2.93554180


                         ----------------------------
                         !        ITERATION    11   !
                         ----------------------------
   Total Energy        :    -491.814351002772 Eh
   Energy Change       :      -0.000000408366 Eh
   MAX-DP              :       0.000058006895
   RMS-DP              :       0.000001927638
   Orbital gradient    :       0.000014305251
   Orbital Rotation    :       0.000065848941
   Actual Damping      :       0.0000
   Int. Num. El.       :    72.00007897 (UP=   36.00003949 DN=   36.00003949)
   Exchange            :   -50.04173024
   Correlation         :    -2.93554074


                         ----------------------------
                         !        ITERATION    12   !
                         ----------------------------
   Total Energy        :    -491.814350996881 Eh
   Energy Change       :       0.000000005891 Eh
   MAX-DP              :       0.000040406646
   RMS-DP              :       0.000001042781
   Orbital gradient    :       0.000025263511
   Orbital Rotation    :       0.000024823297
   Actual Damping      :       0.0000
   Int. Num. El.       :    72.00007895 (UP=   36.00003947 DN=   36.00003947)
   Exchange            :   -50.04175554
   Correlation         :    -2.93554186

                  ***Gradient check signals convergence***
              ***Rediagonalizing the Fockian in SOSCF/NRSCF***

               *****************************************************
               *                     SUCCESS                       *
               *           SCF CONVERGED AFTER  13 CYCLES          *
               *****************************************************

Setting up the final grid:

General Integration Accuracy     IntAcc      ...  5.010
Radial Grid Type                 RadialGrid  ... Gauss-Chebyshev
Angular Grid (max. acc.)         AngularGrid ... Lebedev-434
Angular grid pruning method      GridPruning ... 3 (G Style)
Weight generation scheme         WeightScheme... Becke
Basis function cutoff            BFCut       ...    1.0000e-11
Integration weight cutoff        WCut        ...    1.0000e-14
Grids for H and He will be reduced by one unit

# of grid points (after initial pruning)     ... 147204 (   0.1 sec)
# of grid points (after weights+screening)   ... 134541 (   0.3 sec)
nearest neighbour list constructed           ...    0.0 sec
Grid point re-assignment to atoms done       ...    0.0 sec
Grid point division into batches done        ...    0.8 sec
Reduced shell lists constructed in    1.6 sec

Total number of grid points                  ...   134541
Total number of batches                      ...     2110
Average number of points per batch           ...       63
Average number of grid points per atom       ...     8409
Average number of shells per batch           ...    43.32 (60.16%)
Average number of basis functions per batch  ...    93.36 (61.42%)
Average number of large shells per batch     ...    32.16 (74.26%)
Average number of large basis fcns per batch ...    69.67 (74.63%)
Maximum spatial batch extension              ...  16.77, 19.29, 23.86 au
Average spatial batch extension              ...   1.99,  2.01,  2.23 au

Final grid set up in    1.9 sec
Final integration                            ... done (   1.4 sec)
Change in XC energy                          ...    -0.000212373
Integrated number of electrons               ...    72.000001815
Previous integrated no of electrons          ...    72.000078963

----------------
TOTAL SCF ENERGY
----------------

Total Energy       :         -491.81456338 Eh          -13382.95465 eV

Components:
Nuclear Repulsion  :          506.42785561 Eh           13780.60254 eV
Electronic Energy  :         -998.24241899 Eh          -27163.55719 eV
One Electron Energy:        -1672.74362953 Eh          -45517.66823 eV
Two Electron Energy:          674.50121054 Eh           18354.11104 eV

Virial components:
Potential Energy   :         -980.83743794 Eh          -26689.94358 eV
Kinetic Energy     :          489.02287456 Eh           13306.98893 eV
Virial Ratio       :            2.00570871


DFT components:
N(Alpha)           :       36.000000907484 electrons
N(Beta)            :       36.000000907484 electrons
N(Total)           :       72.000001814968 electrons
E(X)               :      -50.041936550759 Eh       
E(C)               :       -2.935565278352 Eh       
E(XC)              :      -52.977501829111 Eh       
DFET-embed. en.    :        0.000000000000 Eh       

---------------
SCF CONVERGENCE
---------------

  Last Energy change         ...   -1.0451e-08  Tolerance :   1.0000e-08
  Last MAX-Density change    ...    1.2112e-05  Tolerance :   1.0000e-07
  Last RMS-Density change    ...    3.6503e-07  Tolerance :   5.0000e-09
  Last Orbital Gradient      ...    2.1635e-06  Tolerance :   1.0000e-05
  Last Orbital Rotation      ...    9.7899e-06  Tolerance :   1.0000e-05

             **** THE GBW FILE WAS UPDATED (/Users/lailaal-madhagi/Desktop/Testing_XAS_Analysis_code/OrthoNitroAniline//Results_dir_OrthoNitroAniline_geom_element_C_2019-11-13_20-21-19//GTE1_OrthoNitroAniline_geom_2019-11-13_20-22-24//opt.gbw) ****
             **** DENSITY FILE WAS UPDATED (/Users/lailaal-madhagi/Desktop/Testing_XAS_Analysis_code/OrthoNitroAniline//Results_dir_OrthoNitroAniline_geom_element_C_2019-11-13_20-21-19//GTE1_OrthoNitroAniline_geom_2019-11-13_20-22-24//opt.scfp.tmp) ****
             **** ENERGY FILE WAS UPDATED (/Users/lailaal-madhagi/Desktop/Testing_XAS_Analysis_code/OrthoNitroAniline//Results_dir_OrthoNitroAniline_geom_element_C_2019-11-13_20-21-19//GTE1_OrthoNitroAniline_geom_2019-11-13_20-22-24//opt.en.tmp) ****
----------------
ORBITAL ENERGIES
----------------

  NO   OCC          E(Eh)            E(eV) 
   0   2.0000     -19.155905      -521.2587 
   1   2.0000     -19.150117      -521.1012 
   2   2.0000     -14.557859      -396.1395 
   3   2.0000     -14.351408      -390.5217 
   4   2.0000     -10.265405      -279.3359 
   5   2.0000     -10.239905      -278.6420 
   6   2.0000     -10.204991      -277.6919 
   7   2.0000     -10.203539      -277.6524 
   8   2.0000     -10.197514      -277.4885 
   9   2.0000     -10.188668      -277.2477 
  10   2.0000      -1.248293       -33.9678 
  11   2.0000      -1.049881       -28.5687 
  12   2.0000      -0.920826       -25.0570 
  13   2.0000      -0.858362       -23.3572 
  14   2.0000      -0.806700       -21.9514 
  15   2.0000      -0.747571       -20.3424 
  16   2.0000      -0.695787       -18.9333 
  17   2.0000      -0.622873       -16.9492 
  18   2.0000      -0.596026       -16.2187 
  19   2.0000      -0.547942       -14.9103 
  20   2.0000      -0.538630       -14.6569 
  21   2.0000      -0.519652       -14.1404 
  22   2.0000      -0.516888       -14.0652 
  23   2.0000      -0.498187       -13.5564 
  24   2.0000      -0.474188       -12.9033 
  25   2.0000      -0.445448       -12.1213 
  26   2.0000      -0.441050       -12.0016 
  27   2.0000      -0.394106       -10.7242 
  28   2.0000      -0.387256       -10.5378 
  29   2.0000      -0.368980       -10.0404 
  30   2.0000      -0.320920        -8.7327 
  31   2.0000      -0.303854        -8.2683 
  32   2.0000      -0.293750        -7.9933 
  33   2.0000      -0.271731        -7.3942 
  34   2.0000      -0.266999        -7.2654 
  35   2.0000      -0.218929        -5.9574 
  36   0.0000      -0.067900        -1.8476 
  37   0.0000      -0.003923        -0.1067 
  38   0.0000       0.021080         0.5736 
  39   0.0000       0.074273         2.0211 
  40   0.0000       0.082952         2.2572 
  41   0.0000       0.127636         3.4732 
  42   0.0000       0.150091         4.0842 
  43   0.0000       0.155985         4.2446 
  44   0.0000       0.158997         4.3265 
  45   0.0000       0.188904         5.1403 
  46   0.0000       0.204725         5.5709 
  47   0.0000       0.235891         6.4189 
  48   0.0000       0.271248         7.3810 
  49   0.0000       0.307206         8.3595 
  50   0.0000       0.323663         8.8073 
  51   0.0000       0.332168         9.0388 
  52   0.0000       0.355887         9.6842 
  53   0.0000       0.407307        11.0834 
  54   0.0000       0.496401        13.5077 
  55   0.0000       0.503273        13.6948 
  56   0.0000       0.505595        13.7580 
  57   0.0000       0.533021        14.5042 
  58   0.0000       0.548399        14.9227 
  59   0.0000       0.568751        15.4765 
  60   0.0000       0.574782        15.6406 
  61   0.0000       0.583382        15.8746 
  62   0.0000       0.589316        16.0361 
  63   0.0000       0.600723        16.3465 
  64   0.0000       0.607106        16.5202 
  65   0.0000       0.610471        16.6118 
  66   0.0000       0.646364        17.5885 
  67   0.0000       0.653881        17.7930 
  68   0.0000       0.666017        18.1232 
  69   0.0000       0.723294        19.6818 
  70   0.0000       0.725216        19.7341 
  71   0.0000       0.741885        20.1877 
  72   0.0000       0.792917        21.5764 
  73   0.0000       0.815620        22.1941 
  74   0.0000       0.829564        22.5736 
  75   0.0000       0.832564        22.6552 
  76   0.0000       0.838869        22.8268 
  77   0.0000       0.841412        22.8960 
  78   0.0000       0.866871        23.5888 
  79   0.0000       0.901840        24.5403 
  80   0.0000       0.932642        25.3785 
  81   0.0000       0.940413        25.5900 
  82   0.0000       0.960833        26.1456 
  83   0.0000       0.963618        26.2214 
  84   0.0000       0.984669        26.7942 
  85   0.0000       1.004963        27.3464 
  86   0.0000       1.019509        27.7423 
  87   0.0000       1.039889        28.2968 
  88   0.0000       1.063947        28.9515 
  89   0.0000       1.081156        29.4198 
  90   0.0000       1.126516        30.6541 
  91   0.0000       1.155392        31.4398 
  92   0.0000       1.215157        33.0661 
  93   0.0000       1.225303        33.3422 
  94   0.0000       1.276969        34.7481 
  95   0.0000       1.308596        35.6087 
  96   0.0000       1.333284        36.2805 
  97   0.0000       1.351284        36.7703 
  98   0.0000       1.371674        37.3251 
  99   0.0000       1.412088        38.4249 
 100   0.0000       1.438132        39.1336 
 101   0.0000       1.454037        39.5663 
 102   0.0000       1.471410        40.0391 
 103   0.0000       1.486409        40.4472 
 104   0.0000       1.499736        40.8099 
 105   0.0000       1.563140        42.5352 
 106   0.0000       1.650822        44.9211 
 107   0.0000       1.671075        45.4723 
 108   0.0000       1.700015        46.2597 
 109   0.0000       1.716416        46.7060 
 110   0.0000       1.755760        47.7766 
 111   0.0000       1.780918        48.4612 
 112   0.0000       1.826883        49.7120 
 113   0.0000       1.847055        50.2609 
 114   0.0000       1.853666        50.4408 
 115   0.0000       1.862710        50.6869 
 116   0.0000       1.901743        51.7491 
 117   0.0000       1.910683        51.9923 
 118   0.0000       1.957365        53.2626 
 119   0.0000       1.992481        54.2182 
 120   0.0000       2.000070        54.4247 
 121   0.0000       2.003583        54.5203 
 122   0.0000       2.023314        55.0572 
 123   0.0000       2.072360        56.3918 
 124   0.0000       2.126618        57.8682 
 125   0.0000       2.157628        58.7120 
 126   0.0000       2.181713        59.3674 
 127   0.0000       2.200982        59.8918 
 128   0.0000       2.219048        60.3834 
 129   0.0000       2.248043        61.1724 
 130   0.0000       2.262596        61.5684 
 131   0.0000       2.291766        62.3621 
 132   0.0000       2.357331        64.1462 
 133   0.0000       2.372492        64.5588 
 134   0.0000       2.452263        66.7295 
 135   0.0000       2.466655        67.1211 
 136   0.0000       2.590343        70.4868 
 137   0.0000       2.591609        70.5213 
 138   0.0000       2.610444        71.0338 
 139   0.0000       2.628371        71.5216 
 140   0.0000       2.636019        71.7297 
 141   0.0000       2.689262        73.1785 
 142   0.0000       2.722573        74.0850 
 143   0.0000       2.751406        74.8696 
 144   0.0000       2.837323        77.2075 
 145   0.0000       2.847466        77.4835 
 146   0.0000       2.914341        79.3033 
 147   0.0000       2.945807        80.1595 
 148   0.0000       2.988494        81.3210 
 149   0.0000       3.133103        85.2561 
 150   0.0000       3.278263        89.2061 
 151   0.0000       3.410878        92.8147 
------------------
MOLECULAR ORBITALS
------------------
                      0         1         2         3         4         5   
                 -19.15590 -19.15012 -14.55786 -14.35141 -10.26540 -10.23990
                   2.00000   2.00000   2.00000   2.00000   2.00000   2.00000
                  --------  --------  --------  --------  --------  --------
  0C   1s        -0.000014 -0.000042 -0.000096  0.000002  0.000027  0.005139
  0C   2s        -0.000172 -0.000429 -0.000813 -0.000075  0.000118 -0.002003
  0C   1pz        0.000028  0.000013  0.000003  0.000009 -0.000014  0.000079
  0C   1px       -0.000105 -0.000000  0.000041 -0.000231  0.000349 -0.001051
  0C   1py       -0.000168 -0.000102 -0.000045  0.000048 -0.000072 -0.000074
  0C   3s        -0.003970  0.007446  0.009751 -0.005236  0.007147  0.016914
  0C   2pz        0.000299 -0.000777  0.000682 -0.000366  0.000377  0.000681
  0C   2px       -0.001424  0.007185  0.004464 -0.001340  0.002259  0.006451
  0C   2py       -0.001631  0.002366 -0.007825  0.003632 -0.004212 -0.008875
  0C   1dz2      -0.000077 -0.000072 -0.000243 -0.000033  0.000064  0.000451
  0C   1dxz       0.000008 -0.000018  0.000016 -0.000018  0.000006  0.000187
  0C   1dyz       0.000010  0.000019 -0.000017 -0.000017  0.000032  0.000020
  0C   1dx2y2     0.000112  0.000245  0.000079 -0.000014  0.000115 -0.000940
  0C   1dxy      -0.000190 -0.000056 -0.000391  0.000117 -0.000045 -0.000570
  1C   1s         0.000064  0.000053  0.000115 -0.000080 -0.005509  0.995074
  1C   2s         0.000389  0.000215  0.000393 -0.000812  0.002169  0.036826
  1C   1pz        0.000028  0.000034  0.000075 -0.000012  0.000077 -0.000058
  1C   1px       -0.000038 -0.000161 -0.000224 -0.000035  0.000640  0.000211
  1C   1py       -0.000202 -0.000182 -0.000482  0.000114 -0.000954  0.000355
  1C   3s        -0.003614 -0.003114  0.002071  0.008229 -0.018363 -0.029129
  1C   2pz       -0.000618 -0.000913 -0.003588  0.001641 -0.001544 -0.003021
  1C   2px       -0.009299  0.012888  0.006377 -0.001311 -0.001029  0.003391
  1C   2py        0.009885  0.000415  0.025234 -0.012397  0.012872  0.022305
  1C   1dz2      -0.000041 -0.000027  0.000060 -0.000082 -0.000487 -0.000899
  1C   1dxz       0.000063 -0.000065  0.000000  0.000008  0.000075 -0.000116
  1C   1dyz      -0.000020  0.000001  0.000043 -0.000053 -0.000058 -0.000281
  1C   1dx2y2    -0.000292  0.000253  0.000205 -0.000273 -0.000134 -0.000470
  1C   1dxy      -0.000387  0.000358 -0.000051 -0.000001 -0.000976  0.000321
  2C   1s        -0.000027 -0.000019  0.000011 -0.000040  0.000194  0.000019
  2C   2s        -0.000176 -0.000152 -0.000027 -0.000321  0.000693  0.000079
  2C   1pz       -0.000001  0.000011  0.000035  0.000002 -0.000015  0.000051
  2C   1px       -0.000020  0.000021 -0.000188 -0.000047  0.000161 -0.000280
  2C   1py        0.000019 -0.000100 -0.000178  0.000009  0.000031 -0.000256
  2C   3s         0.000627  0.001149 -0.007373  0.004977 -0.007387 -0.010591
  2C   2pz        0.000005 -0.000279  0.000342 -0.000273  0.000408  0.000573
  2C   2px        0.000756 -0.001246 -0.002864  0.002425 -0.004401 -0.004575
  2C   2py       -0.000442  0.002894 -0.001202  0.000885 -0.000910 -0.002136
  2C   1dz2      -0.000059 -0.000067 -0.000030 -0.000063  0.000123 -0.000033
  2C   1dxz      -0.000008 -0.000011 -0.000002 -0.000004  0.000009  0.000007
  2C   1dyz      -0.000018 -0.000025 -0.000006 -0.000017  0.000030  0.000003
  2C   1dx2y2    -0.000031 -0.000053 -0.000001 -0.000033  0.000038  0.000027
  2C   1dxy       0.000022  0.000050 -0.000013 -0.000011  0.000023 -0.000101
  3C   1s         0.000003 -0.000004 -0.000050  0.000007 -0.000006 -0.000344
  3C   2s         0.000010 -0.000034 -0.000405 -0.000027  0.000005 -0.000743
  3C   1pz       -0.000005 -0.000002  0.000010  0.000025 -0.000042  0.000025
  3C   1px        0.000050 -0.000019  0.000013 -0.000190  0.000293 -0.000052
  3C   1py        0.000010  0.000026 -0.000088 -0.000095  0.000180 -0.000172
  3C   3s         0.001119  0.001150  0.005822 -0.005753  0.008615  0.008091
  3C   2pz        0.000009  0.000038 -0.000481  0.000367 -0.000627 -0.000743
  3C   2px        0.001135 -0.001466  0.001657 -0.001336  0.001859  0.002584
  3C   2py       -0.000679  0.000475  0.002956 -0.002219  0.004011  0.004552
  3C   1dz2       0.000004 -0.000011 -0.000079 -0.000030  0.000064 -0.000127
  3C   1dxz      -0.000003  0.000005 -0.000009 -0.000002 -0.000003 -0.000014
  3C   1dyz       0.000002 -0.000002 -0.000011 -0.000004  0.000012 -0.000021
  3C   1dx2y2     0.000019 -0.000019  0.000040  0.000010  0.000025  0.000042
  3C   1dxy       0.000014 -0.000042 -0.000027 -0.000015  0.000069 -0.000030
  4C   1s        -0.000023 -0.000022  0.000014 -0.000087 -0.002737 -0.000060
  4C   2s        -0.000192 -0.000156 -0.000024 -0.000773  0.002184 -0.000006
  4C   1pz        0.000014  0.000000  0.000039  0.000004 -0.000164  0.000049
  4C   1px       -0.000065  0.000038 -0.000024 -0.000061  0.000373 -0.000008
  4C   1py       -0.000078 -0.000024 -0.000302 -0.000003  0.001107 -0.000386
  4C   3s         0.001231 -0.000080 -0.008056  0.008159 -0.016371 -0.009451
  4C   2pz       -0.000313  0.000105  0.000214 -0.000319  0.000803  0.000219
  4C   2px        0.003234 -0.000934  0.003425 -0.005288  0.005044  0.004373
  4C   2py        0.000770 -0.000336 -0.003536  0.005365 -0.009095 -0.004076
  4C   1dz2      -0.000066 -0.000051 -0.000020 -0.000209 -0.000436 -0.000046
  4C   1dxz      -0.000020 -0.000012 -0.000018  0.000026 -0.000126 -0.000016
  4C   1dyz      -0.000017 -0.000015  0.000001 -0.000057 -0.000222  0.000006
  4C   1dx2y2     0.000027 -0.000003  0.000085 -0.000235 -0.000519  0.000136
  4C   1dxy       0.000084  0.000045  0.000078 -0.000279  0.000860  0.000016
  5C   1s        -0.000041  0.000007 -0.000096  0.000152 -0.995176 -0.005745
  5C   2s        -0.000541 -0.000058 -0.000908  0.000183 -0.036381 -0.002606
  5C   1pz        0.000015  0.000018 -0.000014  0.000074 -0.000010  0.000044
  5C   1px       -0.000060  0.000053  0.000138 -0.000830  0.000093  0.000773
  5C   1py       -0.000092 -0.000173  0.000035 -0.000145  0.000027 -0.000767
  5C   3s         0.007089 -0.004451  0.010964 -0.002150  0.033472  0.020061
  5C   2pz       -0.000470  0.000465  0.001057 -0.001345  0.001143  0.000614
  5C   2px       -0.006273 -0.000989 -0.014553  0.020428 -0.018220 -0.014865
  5C   2py        0.007102 -0.003182 -0.000678 -0.000161  0.000592  0.003030
  5C   1dz2       0.000027 -0.000008 -0.000126  0.000306  0.000772  0.000512
  5C   1dxz       0.000031 -0.000004 -0.000015  0.000068  0.000125 -0.000080
  5C   1dyz       0.000008  0.000028  0.000014  0.000002  0.000122  0.000084
  5C   1dx2y2    -0.000079  0.000192  0.000258 -0.000509 -0.000416  0.000288
  5C   1dxy      -0.000177 -0.000080 -0.000132  0.000014 -0.000053  0.000963
  6N   1s        -0.000031 -0.000009 -0.000176  0.995313 -0.000161 -0.000053
  6N   2s        -0.000358 -0.000106 -0.000832  0.032605 -0.000668 -0.000660
  6N   1pz        0.000001 -0.000001 -0.000001  0.000043  0.000046 -0.000006
  6N   1px        0.000158 -0.000016 -0.000011 -0.000366 -0.000686  0.000078
  6N   1py       -0.000094  0.000016  0.000012 -0.000145 -0.000005  0.000004
  6N   3s         0.002091  0.001382  0.007360 -0.029990  0.006468  0.005312
  6N   2pz        0.000241  0.000023  0.000222 -0.000546  0.000415  0.000216
  6N   2px       -0.001775 -0.000497 -0.002700  0.006471 -0.004549 -0.001931
  6N   2py       -0.000980  0.000078 -0.000328  0.000905 -0.000882 -0.000694
  6N   1dz2      -0.000089  0.000021 -0.000035  0.000196 -0.001018 -0.000110
  6N   1dxz      -0.000038  0.000000 -0.000014  0.000041 -0.000256 -0.000026
  6N   1dyz      -0.000020  0.000008 -0.000001  0.000004 -0.000037 -0.000035
  6N   1dx2y2     0.000092  0.000029  0.000074 -0.000304  0.001611 -0.000023
  6N   1dxy       0.000170  0.000003  0.000038  0.000015  0.000228  0.000115
  7H   1s        -0.000128 -0.000052 -0.000084 -0.000298  0.000110 -0.000091
  7H   2s         0.001215 -0.000090 -0.000280  0.002839  0.000875  0.000099
  8H   1s        -0.000019 -0.000051 -0.000282  0.000051 -0.000055 -0.000218
  8H   2s         0.000200  0.000027  0.000326  0.002801  0.000402  0.000221
  9N   1s         0.000166  0.000142  0.995325  0.000041  0.000034  0.000237
  9N   2s        -0.000057 -0.000214  0.034303 -0.000770  0.000521  0.001384
  9N   1pz        0.000065  0.000043 -0.000127 -0.000003  0.000007 -0.000039
  9N   1px       -0.000468  0.000189  0.000314 -0.000015 -0.000014  0.000061
  9N   1py       -0.000273 -0.000448  0.000845  0.000033 -0.000051  0.000279
  9N   3s         0.007371  0.009267 -0.024886  0.005839 -0.003750 -0.010751
  9N   2pz       -0.001488 -0.000536 -0.002226  0.000489 -0.000175 -0.001414
  9N   2px        0.018159 -0.013144  0.005809 -0.003072  0.001401  0.004729
  9N   2py        0.002202  0.011283  0.014673 -0.002267  0.000651  0.008763
  9N   1dz2       0.000276  0.000220 -0.000897  0.000005  0.000066  0.001110
  9N   1dxz       0.000101 -0.000060 -0.000103  0.000010  0.000028  0.000155
  9N   1dyz      -0.000016 -0.000013 -0.000037 -0.000008  0.000011  0.000452
  9N   1dx2y2    -0.000701 -0.000093  0.000982 -0.000087 -0.000090  0.001184
  9N   1dxy      -0.000173  0.000732 -0.000539 -0.000031 -0.000116 -0.000806
 10O   1s        -0.008283  0.995137  0.000113  0.000005  0.000006 -0.000005
 10O   2s        -0.001302  0.030289  0.000481 -0.000020  0.000133 -0.000039
 10O   1pz        0.000014  0.000136 -0.000044 -0.000004  0.000006 -0.000023
 10O   1px       -0.000243  0.001467 -0.000607 -0.000030 -0.000003  0.000114
 10O   1py        0.000019 -0.001867  0.000677  0.000049 -0.000048  0.000120
 10O   3s         0.006195 -0.027468 -0.003362 -0.000936  0.000235 -0.000233
 10O   2pz        0.000378 -0.000556  0.000110 -0.000060 -0.000015  0.000245
 10O   2px        0.000383 -0.006475 -0.002898 -0.000109  0.000159 -0.000995
 10O   2py       -0.003226  0.007890  0.000665  0.000541  0.000033 -0.001421
 10O   1dz2      -0.000349  0.000389  0.001191 -0.000004  0.000040 -0.000166
 10O   1dxz       0.000011 -0.000043 -0.000064 -0.000015  0.000006  0.000010
 10O   1dyz      -0.000151  0.000053  0.000114  0.000003  0.000011 -0.000078
 10O   1dx2y2    -0.000628  0.000095 -0.000235  0.000070  0.000007 -0.000353
 10O   1dxy      -0.000082  0.000655  0.001740  0.000075 -0.000016 -0.000050
 11O   1s         0.995136  0.008172  0.000126 -0.000014  0.000005  0.000012
 11O   2s         0.030343 -0.000757  0.000600 -0.000281  0.000278  0.000175
 11O   1pz        0.000243  0.000001 -0.000096 -0.000010  0.000016 -0.000024
 11O   1px       -0.002227  0.000198  0.000916  0.000046 -0.000019 -0.000027
 11O   1py       -0.000756 -0.000112  0.000278  0.000059 -0.000115  0.000209
 11O   3s        -0.027859  0.005116 -0.005039  0.001714 -0.000746 -0.002526
 11O   2pz       -0.001028  0.000400 -0.000131  0.000072 -0.000050  0.000114
 11O   2px        0.009693 -0.001579  0.003582 -0.000918  0.000013  0.000903
 11O   2py        0.003048 -0.002355 -0.000860 -0.000085  0.000392 -0.001391
 11O   1dz2       0.000361 -0.000325  0.001211 -0.000045  0.000021 -0.000167
 11O   1dxz       0.000121 -0.000093  0.000328 -0.000015  0.000002 -0.000044
 11O   1dyz       0.000033 -0.000140  0.000081 -0.000008  0.000017 -0.000068
 11O   1dx2y2    -0.000549 -0.000237 -0.001772  0.000047  0.000075 -0.000109
 11O   1dxy      -0.000331  0.000554 -0.000542  0.000055 -0.000036  0.000247
 12H   1s        -0.000167  0.000018 -0.000135  0.000241 -0.000047 -0.000175
 12H   2s        -0.000567  0.000150 -0.001076  0.002176 -0.002994 -0.001211
 13H   1s         0.000017 -0.000152 -0.000022  0.000024 -0.000107 -0.000048
 13H   2s         0.000252 -0.000249 -0.000315  0.000601 -0.001218 -0.000699
 14H   1s        -0.000079 -0.000070  0.000073 -0.000044  0.000094  0.000155
 14H   2s        -0.000133 -0.000088  0.000848 -0.000315  0.000704  0.001405
 15H   1s         0.000086 -0.000280  0.000352 -0.000144  0.000163  0.000213
 15H   2s         0.000275  0.001210  0.002566 -0.000757  0.000921  0.002787
                      6         7         8         9        10        11   
                 -10.20499 -10.20354 -10.19751 -10.18867  -1.24829  -1.04988
                   2.00000   2.00000   2.00000   2.00000   2.00000   2.00000
                  --------  --------  --------  --------  --------  --------
  0C   1s        -0.995028  0.002077  0.001077 -0.013829 -0.003377  0.004940
  0C   2s        -0.036392  0.000090 -0.000464 -0.002768  0.010523 -0.010326
  0C   1pz       -0.000037  0.000029 -0.000003 -0.000195 -0.000880  0.000870
  0C   1px       -0.000703  0.000023 -0.000124  0.000482  0.005367 -0.003805
  0C   1py        0.000667 -0.000248  0.000093  0.001296  0.004158 -0.004909
  0C   3s         0.031506  0.006017  0.003853  0.016257 -0.029957  0.025680
  0C   2pz        0.000325  0.000147  0.000189  0.000541 -0.001367 -0.002606
  0C   2px        0.004487  0.002021  0.001665  0.003089 -0.022475  0.022144
  0C   2py       -0.004981 -0.002252 -0.002396 -0.005962  0.022903  0.008943
  0C   1dz2       0.000585  0.000033 -0.000082  0.000573 -0.000051  0.000497
  0C   1dxz       0.000130  0.000007 -0.000011  0.000120 -0.000227  0.000020
  0C   1dyz       0.000150 -0.000003 -0.000020  0.000280 -0.000181  0.000110
  0C   1dx2y2    -0.000076 -0.000074 -0.000007  0.000767 -0.000305  0.000127
  0C   1dxy      -0.000442  0.000015  0.000011 -0.000817  0.001905  0.000238
  1C   1s         0.005321 -0.000240  0.000081  0.000116 -0.024934  0.001794
  1C   2s         0.002286  0.000447  0.000025  0.000112  0.045585 -0.003842
  1C   1pz        0.000114  0.000023 -0.000021 -0.000019 -0.005952 -0.000242
  1C   1px       -0.001231 -0.000068 -0.000019  0.000048  0.013056  0.021685
  1C   1py       -0.000252 -0.000144  0.000177  0.000129  0.040540 -0.009618
  1C   3s        -0.013153 -0.002328 -0.005953 -0.006495  0.005863  0.001692
  1C   2pz       -0.000695 -0.000580 -0.000281 -0.000503  0.013993 -0.001397
  1C   2px        0.003448  0.002782 -0.000307  0.003823 -0.026804  0.057281
  1C   2py        0.003710  0.003147  0.002403  0.001977 -0.097372 -0.019346
  1C   1dz2      -0.000604  0.000024  0.000003 -0.000012 -0.003669  0.000260
  1C   1dxz      -0.000183  0.000005 -0.000010  0.000014 -0.000548 -0.000919
  1C   1dyz      -0.000012 -0.000004  0.000012  0.000009 -0.001652  0.000208
  1C   1dx2y2     0.001125 -0.000067  0.000106  0.000022 -0.004776  0.004101
  1C   1dxy       0.000297  0.000015  0.000025 -0.000132  0.003405  0.005372
  2C   1s        -0.013674 -0.015507 -0.001034  0.994925 -0.000210  0.000653
  2C   2s         0.001628  0.001625  0.000025  0.036793  0.001558 -0.000984
  2C   1pz       -0.000188  0.000073  0.000002 -0.000078 -0.000190  0.000160
  2C   1px        0.000530  0.000869 -0.000182  0.000995  0.000936 -0.000220
  2C   1py        0.001221 -0.001047  0.000080  0.000093  0.001020 -0.001164
  2C   3s        -0.012174 -0.013363 -0.005805 -0.034188  0.017082 -0.001516
  2C   2pz        0.000706  0.000231  0.000223  0.000670 -0.000441 -0.000662
  2C   2px       -0.005269 -0.006355 -0.002923 -0.008258  0.007340 -0.006737
  2C   2py       -0.002825  0.001546 -0.000224 -0.000948 -0.000398  0.008903
  2C   1dz2      -0.000582 -0.000603 -0.000083 -0.000622  0.000172  0.000173
  2C   1dxz      -0.000095  0.000090 -0.000008 -0.000020  0.000015  0.000023
  2C   1dyz      -0.000292 -0.000102 -0.000025 -0.000183  0.000055  0.000056
  2C   1dx2y2    -0.000913 -0.000346 -0.000048 -0.000455  0.000124  0.000102
  2C   1dxy       0.000684 -0.001095  0.000009 -0.000186 -0.000021 -0.000072
  3C   1s        -0.001925 -0.994303 -0.037835 -0.015753  0.000019 -0.000003
  3C   2s        -0.000010 -0.036493 -0.003541 -0.002790  0.001437 -0.000223
  3C   1pz       -0.000027  0.000121  0.000123  0.000083 -0.000063  0.000008
  3C   1px       -0.000079 -0.000290 -0.001329  0.000821  0.000040  0.000106
  3C   1py        0.000257 -0.000811 -0.000275 -0.001101  0.000479 -0.000122
  3C   3s         0.005079  0.032708  0.014470  0.014805 -0.017815  0.001884
  3C   2pz       -0.000341 -0.001051 -0.000905 -0.000875  0.001221 -0.000118
  3C   2px        0.000793  0.002477  0.004369 -0.000029 -0.004184 -0.007163
  3C   2py        0.002297  0.007068  0.004893  0.007003 -0.007515  0.004753
  3C   1dz2       0.000055  0.000592  0.000635  0.000640  0.000167 -0.000040
  3C   1dxz       0.000016  0.000048  0.000176 -0.000080  0.000014  0.000013
  3C   1dyz       0.000008  0.000072  0.000010  0.000078  0.000012 -0.000009
  3C   1dx2y2    -0.000061 -0.000293 -0.001141  0.000130 -0.000139 -0.000057
  3C   1dxy      -0.000046  0.000325 -0.000203  0.001161  0.000115 -0.000110
  4C   1s         0.001091 -0.037660  0.994408  0.000488 -0.000233 -0.000635
  4C   2s         0.000544  0.000847  0.036633  0.000098  0.001583  0.001572
  4C   1pz       -0.000013  0.000117 -0.000063 -0.000005 -0.000205 -0.000168
  4C   1px       -0.000090 -0.001347 -0.000522  0.000208  0.000147  0.000843
  4C   1py        0.000152 -0.000215  0.000779 -0.000068  0.001562  0.000891
  4C   3s        -0.003305 -0.013820 -0.032885 -0.006822  0.020264 -0.007585
  4C   2pz        0.000099  0.000132  0.000400  0.000224 -0.000200  0.001442
  4C   2px        0.001812  0.004750  0.004737  0.001939 -0.011722 -0.010917
  4C   2py       -0.001755 -0.003585 -0.005720 -0.002818  0.007846 -0.005686
  4C   1dz2       0.000079 -0.000572 -0.000618 -0.000049  0.000131 -0.000065
  4C   1dxz       0.000012 -0.000185 -0.000146 -0.000008  0.000069 -0.000001
  4C   1dyz       0.000015 -0.000021 -0.000146 -0.000017  0.000020 -0.000032
  4C   1dx2y2    -0.000023  0.001046  0.000185 -0.000030 -0.000232 -0.000133
  4C   1dxy      -0.000008  0.000386  0.000479  0.000031 -0.000301  0.000017
  5C   1s        -0.000088  0.000075 -0.002934  0.000073 -0.003065 -0.004649
  5C   2s         0.000060  0.000065 -0.002272 -0.000480  0.009817  0.010574
  5C   1pz        0.000005  0.000024 -0.000182 -0.000014 -0.000609 -0.000768
  5C   1px       -0.000205 -0.000175  0.000502  0.000164 -0.001553  0.002496
  5C   1py        0.000066 -0.000101  0.001185  0.000027  0.005686  0.004804
  5C   3s         0.005031  0.005290  0.013627  0.003296 -0.033133 -0.022829
  5C   2pz       -0.000012  0.000469  0.000679  0.000512 -0.003138  0.003216
  5C   2px       -0.001283 -0.001981 -0.005574 -0.003941  0.051981  0.007974
  5C   2py        0.000783 -0.002690 -0.002449 -0.001981 -0.002680 -0.029938
  5C   1dz2       0.000013 -0.000011  0.000602 -0.000034 -0.000514 -0.000596
  5C   1dxz       0.000007 -0.000023  0.000108 -0.000003  0.000009 -0.000125
  5C   1dyz       0.000019 -0.000007  0.000294 -0.000014 -0.000291 -0.000065
  5C   1dx2y2     0.000079  0.000046  0.000865 -0.000043 -0.001326  0.000594
  5C   1dxy      -0.000082  0.000149 -0.000741  0.000017  0.000138  0.000124
  6N   1s         0.000020  0.000013 -0.000017 -0.000018 -0.001284 -0.005408
  6N   2s         0.000208  0.000145 -0.000320 -0.000185  0.005358  0.011080
  6N   1pz       -0.000000  0.000008 -0.000013  0.000002 -0.000083 -0.000212
  6N   1px       -0.000026 -0.000037  0.000115 -0.000004 -0.001325 -0.002496
  6N   1py        0.000017 -0.000048  0.000043 -0.000012  0.001371  0.003019
  6N   3s        -0.000733 -0.000127  0.001210  0.001836 -0.022416  0.011935
  6N   2pz       -0.000012 -0.000123  0.000040  0.000020 -0.001003 -0.000571
  6N   2px        0.000630  0.000410 -0.000319 -0.000786  0.010406 -0.000403
  6N   2py       -0.000244  0.000766 -0.000149  0.000259  0.002457  0.004785
  6N   1dz2       0.000051  0.000049 -0.000102 -0.000014 -0.000158 -0.000542
  6N   1dxz       0.000011  0.000013 -0.000003 -0.000002  0.000075  0.000052
  6N   1dyz       0.000002  0.000006 -0.000037  0.000003 -0.000048 -0.000101
  6N   1dx2y2    -0.000071 -0.000050 -0.000122  0.000039 -0.000391 -0.000271
  6N   1dxy      -0.000001 -0.000030 -0.000008 -0.000016 -0.000536 -0.000774
  7H   1s         0.000074 -0.000093 -0.000034 -0.000088  0.002183  0.005742
  7H   2s        -0.000039 -0.000320  0.000186  0.000059 -0.000301 -0.001783
  8H   1s        -0.000007  0.000118 -0.000120  0.000005  0.000922  0.001900
  8H   2s        -0.000155  0.000040 -0.000096  0.000118 -0.001580  0.000123
  9N   1s        -0.000000  0.000026 -0.000013 -0.000008 -0.164324  0.003501
  9N   2s         0.000205  0.000255 -0.000175 -0.000112  0.354280 -0.008012
  9N   1pz        0.000010  0.000003 -0.000004 -0.000004 -0.015175 -0.009493
  9N   1px       -0.000089  0.000008 -0.000010  0.000038  0.036619  0.327344
  9N   1py       -0.000035 -0.000029  0.000035  0.000014  0.101658 -0.098564
  9N   3s         0.000461 -0.002265 -0.000023 -0.000481  0.207931 -0.004541
  9N   2pz       -0.000022 -0.000121  0.000083  0.000108  0.010412 -0.000281
  9N   2px        0.000185 -0.000309  0.000419 -0.001432 -0.025920  0.000858
  9N   2py        0.000074  0.001128 -0.000885 -0.000096 -0.069291  0.001766
  9N   1dz2       0.000021  0.000040 -0.000018 -0.000012 -0.016695  0.000343
  9N   1dxz      -0.000001  0.000005 -0.000008  0.000002 -0.001889 -0.004325
  9N   1dyz      -0.000003  0.000009 -0.000011 -0.000009 -0.002311  0.000464
  9N   1dx2y2    -0.000036  0.000001 -0.000025 -0.000054  0.008257  0.017001
  9N   1dxy       0.000048 -0.000005  0.000057 -0.000001 -0.004939  0.025659
 10O   1s         0.000007  0.000001 -0.000006 -0.000000 -0.105016  0.142509
 10O   2s         0.000186  0.000023 -0.000081 -0.000039  0.226780 -0.314279
 10O   1pz        0.000009 -0.000002  0.000001 -0.000005  0.005238 -0.009154
 10O   1px        0.000020  0.000016  0.000003  0.000009  0.094492 -0.069744
 10O   1py       -0.000084  0.000005 -0.000009  0.000032 -0.092114  0.110175
 10O   3s        -0.000411 -0.000257  0.000653 -0.000328  0.189692 -0.302328
 10O   2pz       -0.000027  0.000012 -0.000002 -0.000009  0.001117 -0.004554
 10O   2px       -0.000217 -0.000107  0.000254 -0.000069  0.041027 -0.029421
 10O   2py        0.000334 -0.000039 -0.000121  0.000108 -0.030776  0.052027
 10O   1dz2       0.000054 -0.000013 -0.000014 -0.000025 -0.007975  0.005527
 10O   1dxz      -0.000002  0.000001 -0.000000 -0.000009  0.000956 -0.001129
 10O   1dyz       0.000018 -0.000005  0.000002 -0.000005 -0.000400  0.001407
 10O   1dx2y2     0.000064 -0.000021  0.000026  0.000024  0.002054  0.007071
 10O   1dxy       0.000029 -0.000008 -0.000024  0.000031 -0.016072  0.010376
 11O   1s         0.000009 -0.000003 -0.000002 -0.000007 -0.110422 -0.139905
 11O   2s         0.000142 -0.000019 -0.000059 -0.000079  0.237931  0.308408
 11O   1pz        0.000003  0.000002 -0.000004  0.000004  0.012379  0.014308
 11O   1px       -0.000007 -0.000027  0.000010 -0.000013 -0.134065 -0.112697
 11O   1py       -0.000021 -0.000002  0.000026 -0.000023 -0.027423 -0.054215
 11O   3s        -0.000663  0.000381 -0.000018  0.000958  0.206130  0.298217
 11O   2pz       -0.000045  0.000029 -0.000008  0.000024  0.004326  0.006870
 11O   2px        0.000263 -0.000124 -0.000007 -0.000392 -0.054926 -0.048819
 11O   2py        0.000221 -0.000165  0.000064  0.000016 -0.005275 -0.028824
 11O   1dz2       0.000012 -0.000004 -0.000021 -0.000005 -0.008135 -0.005149
 11O   1dxz       0.000006 -0.000006  0.000002 -0.000003 -0.002630 -0.002269
 11O   1dyz       0.000004 -0.000002 -0.000004  0.000005 -0.000130 -0.001105
 11O   1dx2y2    -0.000006  0.000014 -0.000009  0.000043  0.015865  0.005770
 11O   1dxy      -0.000035  0.000037 -0.000031 -0.000003  0.004936  0.010116
 12H   1s        -0.000098  0.000221 -0.001352 -0.000057  0.000449  0.000638
 12H   2s        -0.000720 -0.001181  0.002694 -0.000537  0.002809  0.001579
 13H   1s         0.000131  0.000149 -0.000043 -0.001382  0.000199 -0.000565
 13H   2s        -0.001248 -0.001307 -0.000432  0.002413  0.000154 -0.001802
 14H   1s         0.000040  0.001394 -0.000071 -0.000096  0.000023  0.000075
 14H   2s         0.000298 -0.002606  0.001126  0.001282 -0.002282  0.000532
 15H   1s         0.001318  0.000068  0.000095 -0.000134  0.001299 -0.004777
 15H   2s        -0.002825  0.000414  0.000868  0.001146 -0.010802  0.000832
                     12        13        14        15        16        17   
                  -0.92083  -0.85836  -0.80670  -0.74757  -0.69579  -0.62287
                   2.00000   2.00000   2.00000   2.00000   2.00000   2.00000
                  --------  --------  --------  --------  --------  --------
  0C   1s         0.033517  0.094659  0.012294 -0.106595 -0.081094  0.086862
  0C   2s        -0.063667 -0.181651 -0.026956  0.208840  0.159438 -0.176531
  0C   1pz        0.000394 -0.001426  0.011992  0.010040  0.000330  0.012314
  0C   1px       -0.026195 -0.041530 -0.057585 -0.045442  0.023840 -0.006737
  0C   1py        0.010826  0.033525 -0.065004 -0.055923 -0.015348 -0.094665
  0C   3s        -0.056017 -0.100856 -0.004106  0.172080  0.140793 -0.153863
  0C   2pz       -0.000377  0.001491  0.003068  0.001810  0.000956  0.005698
  0C   2px       -0.007918 -0.000212  0.002877 -0.009129  0.005884  0.013080
  0C   2py        0.007186 -0.011824 -0.026053 -0.009630 -0.010678 -0.052651
  0C   1dz2       0.003530  0.008776  0.000799 -0.007800 -0.005250  0.004439
  0C   1dxz       0.000504  0.001197  0.000732 -0.000714 -0.000217  0.000245
  0C   1dyz       0.000590  0.001918 -0.000595 -0.002425 -0.000351  0.000530
  0C   1dx2y2    -0.001479 -0.000705 -0.006881 -0.004987  0.003645 -0.001854
  0C   1dxy       0.000078 -0.000916 -0.001453  0.000974 -0.005080  0.003171
  1C   1s         0.065336  0.099565  0.106633  0.015544 -0.019521 -0.016661
  1C   2s        -0.129597 -0.194693 -0.215132 -0.031803  0.035967  0.035434
  1C   1pz       -0.001749 -0.001734  0.015087  0.004803  0.031056  0.000910
  1C   1px       -0.022122  0.035433 -0.027631 -0.099097 -0.070465  0.193309
  1C   1py        0.025754 -0.005064 -0.105693  0.014525 -0.210295 -0.110364
  1C   3s        -0.036854 -0.120960 -0.148047 -0.021212  0.035870  0.026294
  1C   2pz        0.002966 -0.006985 -0.002412 -0.001594  0.000819 -0.001844
  1C   2px       -0.009545  0.012198 -0.001109 -0.011930 -0.006275  0.033945
  1C   2py       -0.018573  0.049236  0.019929  0.019102 -0.003196 -0.003343
  1C   1dz2       0.006451  0.008398  0.008947  0.000963  0.000528 -0.000260
  1C   1dxz       0.000359  0.001362  0.001220 -0.001012  0.000483  0.001028
  1C   1dyz       0.001246  0.002304  0.003013  0.000963  0.002225 -0.000019
  1C   1dx2y2     0.000225  0.001487  0.005793  0.008385  0.011542 -0.003316
  1C   1dxy       0.003063 -0.003709 -0.004316  0.004525 -0.009353 -0.006653
  2C   1s         0.025171  0.083897 -0.072212 -0.111555  0.020390 -0.065091
  2C   2s        -0.048355 -0.158094  0.137648  0.217892 -0.040593  0.130795
  2C   1pz        0.001861  0.005094  0.003001 -0.008004 -0.016292  0.015876
  2C   1px       -0.021087 -0.051313  0.039717  0.006405 -0.007515 -0.011892
  2C   1py       -0.003604 -0.013257 -0.045144  0.060367  0.134027 -0.120417
  2C   3s        -0.017254 -0.112720  0.084631  0.150888 -0.053724  0.096954
  2C   2pz       -0.000940  0.001718  0.001362  0.000463 -0.002687  0.005515
  2C   2px        0.006739 -0.011484 -0.002064 -0.018077 -0.006553 -0.021014
  2C   2py        0.003938 -0.007608 -0.009814  0.006252  0.024998 -0.032505
  2C   1dz2       0.002456  0.007846 -0.006093 -0.007727  0.001589 -0.003156
  2C   1dxz       0.000318  0.000981 -0.000190 -0.001371 -0.000867 -0.000192
  2C   1dyz       0.000519  0.001814 -0.000804 -0.002281 -0.000491  0.000161
  2C   1dx2y2    -0.000245  0.000285  0.001576 -0.001946 -0.001634  0.004688
  2C   1dxy      -0.000090 -0.000589 -0.005004  0.004674  0.009192 -0.003860
  3C   1s         0.030383  0.074290 -0.109495  0.006746  0.110586 -0.021676
  3C   2s        -0.057040 -0.142115  0.210623 -0.014233 -0.221940  0.045357
  3C   1pz        0.003588  0.006323 -0.006155  0.002163 -0.004217  0.003441
  3C   1px       -0.017076 -0.005877  0.021366 -0.114395  0.019533 -0.163783
  3C   1py       -0.019508 -0.047304  0.037671  0.043814  0.023298  0.059946
  3C   3s        -0.060576 -0.072551  0.158031  0.001141 -0.161007  0.020618
  3C   2pz        0.001675 -0.000526 -0.000863 -0.000719 -0.005357  0.002494
  3C   2px       -0.013924  0.009332  0.006700 -0.015719  0.013873 -0.053153
  3C   2py       -0.006004 -0.000788  0.003432  0.013786  0.035227  0.008114
  3C   1dz2       0.003202  0.006691 -0.009105  0.000247  0.006568 -0.000754
  3C   1dxz       0.000535  0.000598 -0.001133  0.001450  0.000698  0.000846
  3C   1dyz       0.000652  0.001578 -0.001904 -0.000296  0.001527 -0.000675
  3C   1dx2y2    -0.000872  0.001246  0.000866 -0.006903  0.000733 -0.006239
  3C   1dxy      -0.000778  0.000880 -0.000009 -0.007629  0.000250 -0.004135
  4C   1s         0.057602  0.049363 -0.087243  0.113214  0.006810  0.091098
  4C   2s        -0.110526 -0.092009  0.166984 -0.221302 -0.013613 -0.184036
  4C   1pz        0.006482 -0.001175  0.003445  0.006304 -0.018869 -0.010307
  4C   1px       -0.012243  0.050492 -0.052782 -0.017796  0.095592 -0.017159
  4C   1py       -0.045206 -0.017537  0.000635 -0.040852  0.099673  0.091396
  4C   3s        -0.044547 -0.076860  0.108214 -0.176413 -0.031818 -0.143075
  4C   2pz        0.001898 -0.000877  0.000126  0.000159 -0.002678 -0.002223
  4C   2px       -0.034133  0.025345  0.006293 -0.006225  0.025114 -0.034946
  4C   2py        0.003107 -0.006527 -0.004397  0.002239  0.007891  0.036597
  4C   1dz2       0.005778  0.004643 -0.007346  0.007936  0.000732  0.004627
  4C   1dxz       0.000978  0.000321 -0.001053  0.000714  0.000569  0.000006
  4C   1dyz       0.001678  0.000737 -0.001021  0.002323 -0.001122  0.000534
  4C   1dx2y2     0.001460 -0.001027  0.004348  0.004220 -0.009507 -0.001208
  4C   1dxy      -0.003099  0.002330 -0.000795 -0.000457  0.001144  0.004893
  5C   1s         0.119431  0.014890 -0.003485  0.083565 -0.082912 -0.076761
  5C   2s        -0.237083 -0.028813  0.003913 -0.172174  0.169701  0.162855
  5C   1pz        0.004203 -0.006936  0.012387 -0.013075  0.005196 -0.020824
  5C   1px       -0.060910  0.125543 -0.001255  0.074787 -0.063389 -0.002188
  5C   1py       -0.001061 -0.011593 -0.098173  0.064469 -0.007684  0.167357
  5C   3s        -0.111156 -0.008594  0.016046 -0.115681  0.142895  0.144882
  5C   2pz       -0.002725  0.000504  0.002957 -0.001434  0.003203 -0.005855
[...]
 2 C  dxy             0.0       3.2       0.2       0.0       0.2       5.3
 3 C  s               0.0       5.7       0.2       0.0       0.7       0.3
 3 C  px              0.0       0.0       2.3       0.0       0.4       0.4
 3 C  py              0.0       1.2       0.1       0.0       0.2       0.1
 3 C  dz2             0.0      11.8       0.0       0.0       2.1       0.3
 3 C  dxz            13.9       0.1       0.1       3.8       0.0       0.0
 3 C  dyz             1.6       1.2       0.0       0.5       0.0       0.1
 3 C  dx2y2           0.2       5.9       0.7       0.1       6.2       4.5
 3 C  dxy             0.1       0.0       5.3       0.0       7.7       0.0
 4 C  s               0.0       0.6       2.3       0.0       1.7       2.1
 4 C  px              0.0       0.1       1.0       0.0       0.6       0.7
 4 C  py              0.0       0.1       0.6       0.0       0.4       1.4
 4 C  dz2             0.6       1.3       4.2       0.2       2.2       3.6
 4 C  dxz             8.9       0.0       0.2       2.8       0.3       0.1
 4 C  dyz             3.3       0.0       0.1       1.1       0.3       0.5
 4 C  dx2y2           0.0       2.4       3.5       0.0       0.0       1.5
 4 C  dxy             0.2       1.6       0.3       0.1      11.3       3.4
 5 C  s               0.0       0.4       4.1       0.0       0.4       3.7
 5 C  px              0.0       0.2       0.3       0.0       0.6       3.3
 5 C  py              0.0       0.0       0.1       0.0       2.8       0.3
 5 C  dz2             0.3       1.0       8.7       0.1       0.2       4.4
 5 C  dxz             0.2       0.0       0.1       1.0       0.0       0.0
 5 C  dyz             6.6       0.1       0.8       5.1       0.0       0.7
 5 C  dx2y2           0.1       0.0       2.5       0.1       1.2       9.4
 5 C  dxy             0.0       0.5       0.5       0.0       0.3       0.0
 6 N  s               0.0       0.0       1.9       0.0       0.2       1.0
 6 N  px              0.0       0.1       0.5       0.0       0.4       1.4
 6 N  dz2             0.0       0.0       3.7       0.0       0.1       0.2
 6 N  dxz             0.0       0.0       0.0       0.1       0.1       0.1
 6 N  dyz             0.3       0.0       0.0       0.2       0.0       0.0
 6 N  dx2y2           0.0       0.0       1.7       0.0       1.3       4.1
 6 N  dxy             0.0       0.2       1.2       0.0       1.4       0.6
 8 H  s               0.0       0.0       0.5       0.0       0.1       0.1
 9 N  s               0.0       5.2       0.9       0.0       0.1       0.5
 9 N  px              0.0       0.3       0.2       0.0       0.2       0.0
 9 N  py              0.0       2.6       1.3       0.0       0.4       0.4
 9 N  dz2             0.0       4.7       0.5       0.1       0.3       0.4
 9 N  dxz            11.8       0.1       0.0      27.2       0.0       0.0
 9 N  dyz             4.0       0.3       0.0       2.6       0.1       0.0
 9 N  dx2y2           0.2       0.0       0.0       0.3       1.9       0.2
 9 N  dxy             0.1       0.1       1.0       0.3       0.8       0.0
10 O  s               0.0       0.7       0.9       0.0       0.1       0.4
10 O  pz              0.5       0.0       0.0       0.7       0.0       0.0
10 O  px              0.0       0.5       0.1       0.0       0.1       0.1
10 O  py              0.0       0.1       0.2       0.0       0.1       0.0
10 O  dz2             0.1       0.0       0.2       0.2       0.0       0.0
10 O  dxz             4.3       0.0       0.0       4.1       0.0       0.0
10 O  dyz             7.5       0.1       0.0      10.2       0.0       0.0
10 O  dx2y2           0.2       1.3       0.2       0.3       2.2       0.4
10 O  dxy             0.0       4.2       0.2       0.0       0.0       0.5
11 O  s               0.0       1.0       0.1       0.0       0.1       0.2
11 O  pz              0.2       0.0       0.0       0.6       0.0       0.0
11 O  px              0.0       0.8       0.2       0.0       0.0       0.2
11 O  py              0.0       0.0       0.3       0.0       0.1       0.0
11 O  dz2             0.3       0.2       0.0       0.5       0.0       0.1
11 O  dxz             4.9       0.0       0.0      11.6       0.0       0.0
11 O  dyz             1.5       0.0       0.1       1.6       0.0       0.0
11 O  dx2y2           0.0       2.9       4.4       0.0       0.0       0.4
11 O  dxy             0.1       0.0       0.8       0.3       1.9       0.1
12 H  s               0.0       0.2       0.0       0.0       0.4       0.0
13 H  s               0.0       1.0       0.1       0.0       0.1       1.5
14 H  s               0.0       1.4       0.1       0.0       0.7       0.2
15 H  s               0.0       0.1       0.1       0.0       0.2       0.8

                    144       145       146       147       148       149   
                   2.84403   2.84773   2.89134   2.94073   2.96346   3.08398
                   0.00000   0.00000   0.00000   0.00000   0.00000   0.00000
                  --------  --------  --------  --------  --------  --------
 0 C  s               2.4       1.9       0.2       1.4       0.3       0.6
 0 C  px              0.5       0.7       0.1       0.1       0.2       0.1
 0 C  py              0.0       2.5       0.1       0.1       0.1       0.3
 0 C  dz2             2.1       0.6       0.2       2.0       0.7       0.4
 0 C  dyz             0.0       0.5       0.0       0.0       0.0       0.0
 0 C  dx2y2           1.0      10.5       0.0       0.6       1.2       0.1
 0 C  dxy             0.3       3.6       1.8       0.7       0.4       0.1
 1 C  s               1.8       2.4       0.2       4.7       0.6       0.1
 1 C  px              0.6       0.0       0.1       0.0       0.8       0.1
 1 C  py              0.6       0.5       0.0       0.1       0.3       0.7
 1 C  dz2             1.4       0.7       0.1       5.1       0.7       0.2
 1 C  dxz             0.1       0.0       0.1       0.2       0.0       0.0
 1 C  dyz             0.1       0.1       0.0       0.6       0.1       0.1
 1 C  dx2y2           0.6       0.4       0.8       1.7       0.4       1.7
 1 C  dxy             0.8       0.0       5.0       3.2       0.0       0.9
 2 C  s               1.0       0.3       0.2       0.6       0.5       1.3
 2 C  px              0.0       0.0       0.1       0.0       0.2       0.2
 2 C  py              0.0       5.3       0.2       0.0       0.5       0.0
 2 C  dz2             1.3       0.3       0.0       1.0       0.5       0.8
 2 C  dxz             0.0       0.2       0.0       0.0       0.0       0.0
 2 C  dyz             0.1       0.4       0.0       0.1       0.0       0.1
 2 C  dx2y2           0.1       3.8       0.1       0.1       0.1       2.2
 2 C  dxy             0.0      18.4       2.5       0.0       3.7       0.0
 3 C  s               2.3       0.4       0.1       1.0       0.2       0.8
 3 C  px              0.4       1.2       1.4       0.1       1.6       0.0
 3 C  py              0.1       0.7       0.1       0.1       0.3       0.1
 3 C  dz2             2.3       0.0       0.0       1.0       0.3       0.9
 3 C  dxz             0.2       0.2       0.1       0.0       0.1       0.0
 3 C  dyz             0.2       0.0       0.0       0.0       0.0       0.0
 3 C  dx2y2           0.1       4.1       2.3       0.8       1.8       1.9
 3 C  dxy             2.8       7.8       1.6       0.1       2.7       1.6
 4 C  s               1.5       1.1       0.0       0.8       0.2       1.3
 4 C  px              0.8       0.5       0.6       0.3       0.6       0.1
 4 C  py              0.0       0.2       0.3       0.0       0.6       0.1
 4 C  dz2             1.8       0.2       0.0       1.2       0.2       0.9
 4 C  dyz             0.0       0.0       0.1       0.0       0.2       0.1
 4 C  dx2y2           1.1       0.0       7.9       0.4       9.2       0.0
 4 C  dxy             3.1       1.2       0.2       0.0       0.0       1.9
 5 C  s               2.3       0.2       1.4       1.3       1.6       0.7
 5 C  px              1.5       0.4       0.0       0.1       0.0       0.0
 5 C  py              0.1       0.1       0.0       0.0       0.4       0.4
 5 C  dz2             3.3       0.1       0.7       2.8       0.8       0.7
 5 C  dxz             0.1       0.2       0.2       0.0       0.3       0.0
 5 C  dx2y2           6.5       0.0       1.0       2.2       1.4       0.0
 5 C  dxy             0.0      11.9       4.4       0.9       8.5       0.2
 6 N  s               2.6       0.2       0.4       0.4       0.2       0.1
 6 N  px              1.7       0.2       0.3       0.4       0.5       0.0
 6 N  py              0.0       0.3       0.0       0.0       0.0       0.0
 6 N  dz2             3.0       0.1       0.6       0.2       0.2       0.2
 6 N  dxz             0.2       0.0       0.0       0.1       0.0       0.0
 6 N  dx2y2           3.9       1.7       1.4       0.7       2.4       0.0
 6 N  dxy             0.7       7.2       1.7       1.2       2.3       0.0
 7 H  s               0.1       1.0       0.2       0.1       0.4       0.0
 8 H  s               0.0       0.8       0.2       0.1       0.2       0.0
 9 N  s               4.6       0.5       0.7      13.6       1.6       1.7
 9 N  px              0.1       0.0       4.5       1.1       4.1       0.1
 9 N  py              1.6       0.3       0.3       0.8       0.3       1.6
 9 N  dz2             0.9       0.0       0.5       7.5       0.8       0.7
 9 N  dxz             0.1       0.0       0.0       0.0       0.2       0.0
 9 N  dyz             0.2       0.0       0.1       0.5       0.0       0.5
 9 N  dx2y2           0.7       0.2       3.5       1.9       2.8      23.9
 9 N  dxy             3.8       0.3       1.5       0.6       4.1      12.4
10 O  s               5.2       0.2       7.2      10.6       2.5       0.7
10 O  px              0.8       0.1       0.5       1.5       0.8       0.3
10 O  py              0.5       0.0       1.3       1.3       0.3       1.6
10 O  dz2             2.4       0.0       1.6       5.3       0.7       0.6
10 O  dyz             0.0       0.0       0.2       0.1       0.0       0.3
10 O  dx2y2           1.0       0.0       3.9       0.0       0.4      13.4
10 O  dxy             6.1       1.6       3.5      14.7       3.7       1.2
11 O  s               2.7       0.2      14.2       0.3       8.4       0.8
11 O  px              0.6       0.2       2.5       0.0       3.4       0.7
11 O  py              0.1       0.0       0.3       0.1       0.0       1.1
11 O  dz2             1.0       0.1       4.2       0.5       3.0       0.6
11 O  dxz             0.0       0.0       0.4       0.0       0.3       0.3
11 O  dyz             0.0       0.0       0.1       0.0       0.0       0.2
11 O  dx2y2           7.1       0.6       5.3       0.4      12.7       0.0
11 O  dxy             1.7       0.1       3.7       0.4       1.0      14.3
12 H  s               0.3       0.2       0.1       0.0       0.1       0.0
14 H  s               0.2       0.0       0.0       0.0       0.0       0.2
15 H  s               0.1       0.0       0.2       0.1       0.0       0.0

                    150       151   
                   3.25667   3.41029
                   0.00000   0.00000
                  --------  --------
 0 C  s               0.1       1.4
 0 C  px              1.4       0.1
 0 C  py              0.2       0.0
 0 C  dz2             0.0       0.8
 0 C  dxz             0.0       0.4
 0 C  dyz             0.1       0.1
 0 C  dx2y2           4.6       1.1
 0 C  dxy             1.4      11.4
 1 C  s               0.2       0.8
 1 C  px              0.9       0.1
 1 C  py              0.3       0.3
 1 C  dz2             0.2       0.6
 1 C  dxz             0.4       0.0
 1 C  dyz             0.1       0.1
 1 C  dx2y2          11.5       9.5
 1 C  dxy            15.7       5.5
 2 C  s               0.1       1.3
 2 C  py              0.7       0.0
 2 C  dz2             0.0       0.8
 2 C  dyz             0.0       0.3
 2 C  dx2y2           0.6      10.7
 2 C  dxy             1.2       1.3
 3 C  s               0.0       1.5
 3 C  px              0.4       0.0
 3 C  dz2             0.0       1.1
 3 C  dx2y2           0.8       6.5
 3 C  dxy             0.8       5.3
 4 C  s               0.1       1.2
 4 C  px              0.5       0.1
 4 C  py              0.7       0.0
 4 C  dz2             0.0       0.8
 4 C  dxz             0.0       0.3
 4 C  dx2y2           2.8       1.1
 4 C  dxy             0.5      10.5
 5 C  s               0.5       0.5
 5 C  px              0.1       0.3
 5 C  py              1.4       0.0
 5 C  dz2             0.5       0.3
 5 C  dyz             0.1       0.3
 5 C  dx2y2           3.3      12.1
 5 C  dxy            14.3       0.9
 6 N  s               0.1       0.2
 6 N  px              0.1       0.5
 6 N  dx2y2           0.0       0.8
 6 N  dxy             4.7       0.0
 7 H  s               0.3       0.0
 8 H  s               0.4       0.0
 9 N  px              0.3       0.0
 9 N  py              0.1       0.2
 9 N  dxz             0.4       0.0
 9 N  dx2y2           5.8       2.8
 9 N  dxy            12.0       1.3
10 O  s               0.3       0.1
10 O  px              0.6       0.0
10 O  py              0.2       0.1
10 O  dx2y2           1.8       0.7
10 O  dxy             0.8       0.0
11 O  s               0.5       0.0
11 O  px              0.8       0.1
11 O  dz2             0.1       0.0
11 O  dx2y2           2.3       0.1
11 O  dxy             0.7       0.6
12 H  s               0.0       0.5
13 H  s               0.0       0.6
14 H  s               0.0       0.5
15 H  s               0.0       0.6


                      *****************************
                      * MAYER POPULATION ANALYSIS *
                      *****************************

  NA   - Mulliken gross atomic population
  ZA   - Total nuclear charge
  QA   - Mulliken gross atomic charge
  VA   - Mayer's total valence
  BVA  - Mayer's bonded valence
  FA   - Mayer's free valence

  ATOM       NA         ZA         QA         VA         BVA        FA
  0 C      6.1599     6.0000    -0.1599     3.9055     3.9055     0.0000
  1 C      5.7889     6.0000     0.2111     3.7320     3.7320     0.0000
  2 C      6.1496     6.0000    -0.1496     3.9164     3.9164     0.0000
  3 C      6.1130     6.0000    -0.1130     3.9513     3.9513     0.0000
  4 C      6.1955     6.0000    -0.1955     3.9293     3.9293     0.0000
  5 C      5.6536     6.0000     0.3464     3.8500     3.8500    -0.0000
  6 N      7.8011     7.0000    -0.8011     2.8850     2.8850    -0.0000
  7 H      0.6182     1.0000     0.3818     0.8603     0.8603    -0.0000
  8 H      0.6623     1.0000     0.3377     0.8566     0.8566    -0.0000
  9 N      6.6282     7.0000     0.3718     3.8662     3.8662    -0.0000
 10 O      8.3857     8.0000    -0.3857     1.9265     1.9265     0.0000
 11 O      8.4322     8.0000    -0.4322     1.8761     1.8761    -0.0000
 12 H      0.8705     1.0000     0.1295     0.9390     0.9390    -0.0000
 13 H      0.8618     1.0000     0.1382     0.9382     0.9382    -0.0000
 14 H      0.8594     1.0000     0.1406     0.9357     0.9357    -0.0000
 15 H      0.8202     1.0000     0.1798     0.9439     0.9439    -0.0000

  Mayer bond orders larger than 0.1
B(  0-C ,  1-C ) :   1.3540 B(  0-C ,  2-C ) :   1.4913 B(  0-C , 15-H ) :   0.8970 
B(  1-C ,  5-C ) :   1.2877 B(  1-C ,  9-N ) :   0.8559 B(  2-C ,  3-C ) :   1.3578 
B(  2-C , 13-H ) :   0.9291 B(  3-C ,  4-C ) :   1.5316 B(  3-C , 14-H ) :   0.9276 
B(  4-C ,  5-C ) :   1.3157 B(  4-C , 12-H ) :   0.9206 B(  5-C ,  6-N ) :   1.1232 
B(  6-N ,  7-H ) :   0.7544 B(  6-N ,  8-H ) :   0.8364 B(  9-N , 10-O ) :   1.5280 
B(  9-N , 11-O ) :   1.4268 B( 10-O , 11-O ) :   0.2358 

-------
TIMINGS
-------

Total SCF time: 0 days 0 hours 0 min 35 sec 

Total time                  ....      35.134 sec
Sum of individual times     ....      34.796 sec  ( 99.0%)

Fock matrix formation       ....      32.418 sec  ( 92.3%)
  XC integration            ....       4.272 sec  ( 13.2% of F)
    Basis function eval.    ....       1.578 sec  ( 36.9% of XC)
    Density eval.           ....       1.189 sec  ( 27.8% of XC)
    XC-Functional eval.     ....       0.281 sec  (  6.6% of XC)
    XC-Potential eval.      ....       0.941 sec  ( 22.0% of XC)
Diagonalization             ....       0.005 sec  (  0.0%)
Density matrix formation    ....       0.005 sec  (  0.0%)
Population analysis         ....       0.060 sec  (  0.2%)
Initial guess               ....       0.004 sec  (  0.0%)
Orbital Transformation      ....       0.000 sec  (  0.0%)
Orbital Orthonormalization  ....       0.002 sec  (  0.0%)
DIIS solution               ....       0.001 sec  (  0.0%)
SOSCF solution              ....       0.021 sec  (  0.1%)
Grid generation             ....       2.283 sec  (  6.5%)

-------------------------   --------------------
FINAL SINGLE POINT ENERGY      -491.832476889449
-------------------------   --------------------

                                *** OPTIMIZATION RUN DONE ***

                            ***************************************
                            *     ORCA property calculations      *
                            ***************************************

                                    ---------------------
                                    Active property flags
                                    ---------------------
   (+) Dipole Moment


------------------------------------------------------------------------------
                       ORCA ELECTRIC PROPERTIES CALCULATION
------------------------------------------------------------------------------

Dipole Moment Calculation                       ... on
Quadrupole Moment Calculation                   ... off
Polarizability Calculation                      ... off
GBWName                                         ... /Users/lailaal-madhagi/Desktop/Testing_XAS_Analysis_code/OrthoNitroAniline//Results_dir_OrthoNitroAniline_geom_element_C_2019-11-13_20-21-19//GTE1_OrthoNitroAniline_geom_2019-11-13_20-22-24//opt.gbw
Electron density file                           ... /Users/lailaal-madhagi/Desktop/Testing_XAS_Analysis_code/OrthoNitroAniline//Results_dir_OrthoNitroAniline_geom_element_C_2019-11-13_20-21-19//GTE1_OrthoNitroAniline_geom_2019-11-13_20-22-24//opt.scfp.tmp
The origin for moment calculation is the CENTER OF MASS  = ( 0.173876,  1.581905 -0.549782)

-------------
DIPOLE MOMENT
-------------
                                X             Y             Z
Electronic contribution:      0.98962       5.64171      -0.77302
Nuclear contribution   :     -0.74257      -7.47566       0.98640
                        -----------------------------------------
Total Dipole Moment    :      0.24705      -1.83395       0.21339
                        -----------------------------------------
Magnitude (a.u.)       :      1.86278
Magnitude (Debye)      :      4.73482



--------------------
Rotational spectrum 
--------------------
 
Rotational constants in cm-1:     0.077430     0.042253     0.027336 
Rotational constants in MHz :  2321.280796  1266.703130   819.505814 

 Dipole components along the rotational axes: 
x,y,z [a.u.] :    -1.635521     0.891642     0.000141 
x,y,z [Debye]:    -4.157165     2.266374     0.000359 

 

Timings for individual modules:

Sum of individual times         ...      595.686 sec (=   9.928 min)
GTO integral calculation        ...        4.115 sec (=   0.069 min)   0.7 %
SCF iterations                  ...      396.989 sec (=   6.616 min)  66.6 %
SCF Gradient evaluation         ...      193.416 sec (=   3.224 min)  32.5 %
Geometry relaxation             ...        1.166 sec (=   0.019 min)   0.2 %
                             ****ORCA TERMINATED NORMALLY****
TOTAL RUN TIME: 0 days 0 hours 9 minutes 57 seconds 97 msec
