14
	Energy:      25.6049567
C         -0.37236        0.75736       -0.24662
C         -0.30283        2.15749       -0.20250
C          0.73848       -0.01005        0.11913
C          1.91923        0.61746        0.52867
C          1.99050        2.01336        0.57303
C          0.88113        2.78376        0.20805
C         -2.54141        3.63582       -0.94038
H         -1.28251        0.26153       -0.56243
H          0.68394       -1.09037        0.08512
H          2.90504        2.49793        0.89016
H          0.94685        3.86447        0.24598
C         -1.44659        2.94575       -0.57905
H         -3.35133        4.14632       -1.20769
H          2.77796        0.02238        0.81133
