
                                 *****************
                                 * O   R   C   A *
                                 *****************

           --- An Ab Initio, DFT and Semiempirical electronic structure package ---

                  #######################################################
                  #                        -***-                        #
                  #          Department of theory and spectroscopy      #
                  #               Directorship: Frank Neese             #
                  #        Max Planck Institute fuer Kohlenforschung    #
                  #                Kaiser Wilhelm Platz 1               #
                  #                 D-45470 Muelheim/Ruhr               #
                  #                      Germany                        #
                  #                                                     #
                  #                  All rights reserved                #
                  #                        -***-                        #
                  #######################################################


                         Program Version 4.1.0  - RELEASE  -


 With contributions from (in alphabetic order):
   Daniel Aravena         : Magnetic Properties
   Michael Atanasov       : Ab Initio Ligand Field Theory
   Alexander A. Auer      : GIAO ZORA
   Ute Becker             : Parallelization
   Giovanni Bistoni       : ED, Open-shell LED
   Martin Brehm           : Molecular dynamics
   Dmytro Bykov           : SCF Hessian
   Vijay G. Chilkuri      : MRCI spin determinant printing
   Dipayan Datta          : RHF DLPNO-CCSD density
   Achintya Kumar Dutta   : EOM-CC, STEOM-CC
   Dmitry Ganyushin       : Spin-Orbit,Spin-Spin,Magnetic field MRCI
   Miquel Garcia          : C-PCM Hessian
   Yang Guo               : DLPNO-NEVPT2, CIM, IAO-localization
   Andreas Hansen         : Spin unrestricted coupled pair/coupled cluster methods
   Benjamin Helmich-Paris : CASSCF linear response (MC-RPA)
   Lee Huntington         : MR-EOM, pCC
   Robert Izsak           : Overlap fitted RIJCOSX, COSX-SCS-MP3, EOM
   Christian Kollmar      : KDIIS, OOCD, Brueckner-CCSD(T), CCSD density
   Simone Kossmann        : Meta GGA functionals, TD-DFT gradient, OOMP2, MP2 Hessian
   Martin Krupicka        : AUTO-CI
   Lucas Lang             : DCDCAS
   Dagmar Lenk            : GEPOL surface, SMD
   Dimitrios Liakos       : Extrapolation schemes; parallel MDCI
   Dimitrios Manganas     : ROCIS; embedding schemes
   Dimitrios Pantazis     : SARC Basis sets
   Taras Petrenko         : DFT Hessian,TD-DFT gradient, ASA, ECA, R-Raman, ABS, FL, XAS/XES, NRVS
   Peter Pinski           : DLPNO-MP2, DLPNO-MP2 Gradient
   Christoph Reimann      : Effective Core Potentials
   Marius Retegan         : Local ZFS, SOC
   Christoph Riplinger    : Optimizer, TS searches, QM/MM, DLPNO-CCSD(T), (RO)-DLPNO pert. Triples
   Tobias Risthaus        : Range-separated hybrids, TD-DFT gradient, RPA, STAB
   Michael Roemelt        : Restricted open shell CIS
   Masaaki Saitow         : Open-shell DLPNO
   Barbara Sandhoefer     : DKH picture change effects
   Avijit Sen             : IP-ROCIS
   Kantharuban Sivalingam : CASSCF convergence, NEVPT2, FIC-MRCI
   Bernardo de Souza      : ESD, SOC TD-DFT
   Georgi Stoychev        : AutoAux, RI-MP2 NMR
   Willem Van den Heuvel  : Paramagnetic NMR
   Boris Wezisla          : Elementary symmetry handling
   Frank Wennmohs         : Technical directorship


 We gratefully acknowledge several colleagues who have allowed us to
 interface, adapt or use parts of their codes:
   Stefan Grimme, W. Hujo, H. Kruse,             : VdW corrections, initial TS optimization,
                  C. Bannwarth                     DFT functionals, gCP, sTDA/sTD-DF
   Ed Valeev                                     : LibInt (2-el integral package), F12 methods
   Garnet Chan, S. Sharma, J. Yang, R. Olivares  : DMRG
   Ulf Ekstrom                                   : XCFun DFT Library
   Mihaly Kallay                                 : mrcc  (arbitrary order and MRCC methods)
   Andreas Klamt, Michael Diedenhofen            : otool_cosmo (COSMO solvation model)
   Jiri Pittner, Ondrej Demel                    : Mk-CCSD
   Frank Weinhold                                : gennbo (NPA and NBO analysis)
   Christopher J. Cramer and Donald G. Truhlar   : smd solvation model
   Lars Goerigk                                  : TD-DFT with DH, B97 family of functionals
   V. Asgeirsson, H. Jonsson                     : NEB implementation
   FAccTs GmbH                                   : IRC, NEB, NEB-TS, Multilevel


 Your calculation uses the libint2 library for the computation of 2-el integrals
 For citations please refer to: http://libint.valeyev.net

 This ORCA versions uses:
   CBLAS   interface :  Fast vector & matrix operations
   LAPACKE interface :  Fast linear algebra routines
   SCALAPACK package :  Parallel linear algebra routines




***************************************
The coordinates will be read from file: /Users/lailaal-madhagi/Desktop/Testing_XAS_Analysis_code/Aniline/Aniline_geom.xyz
***************************************


----- Orbital basis set information -----
Your calculation utilizes the basis: 6-31G*
   H-He, Li-Ne : W. J. Hehre, R. Ditchfield and J.A. Pople, J. Chem. Phys. 56, 2257 (1972).
                 Note: He and Ne are unpublished basis sets taken from the Gaussian program.
                 Note: Li and B from J. D. Dill and J. A. Pople, J. Chem. Phys. 62, 2921 (1975).
   Na - Ar     : M. M. Francl, W. J. Pietro, W. J. Hehre, J. S. Binkley, M. S. Gordon, 
                 D. J. DeFrees and J. A. Pople, J. Chem. Phys. 77, 3654 (1982).
   K - Zn      : V. A. Rassolov, J. A. Pople, M. A. Ratner, and T. L. Windus, J. Chem. Phys. 109, 1223 (1998).

================================================================================
                                        WARNINGS
                       Please study these warnings very carefully!
================================================================================


WARNING: Geometry Optimization
  ===> : Switching off AutoStart
         For restart on a previous wavefunction, please use MOREAD

INFO   : the flag for use of LIBINT has been found!

================================================================================
                                       INPUT FILE
================================================================================
NAME = /Users/lailaal-madhagi/Desktop/Testing_XAS_Analysis_code/Aniline//Results_dir_Aniline_geom_element_C_2019-11-04_19-38-59//GTE1_Aniline_geom_2019-11-04_19-39-56//opt.inp
|  1> ! B3LYP 6-31G* TIGHTSCF Grid3 FinalGrid5 Opt 
|  2> !NormalPrint 
|  3> %output 
|  4> Print[P_Basis] 2 
|  5> Print[P_MOS] 1 
|  6> end 
|  7> *xyzfile 0 1 /Users/lailaal-madhagi/Desktop/Testing_XAS_Analysis_code/Aniline/Aniline_geom.xyz                           ****END OF INPUT****
================================================================================

                       *****************************
                       * Geometry Optimization Run *
                       *****************************

Geometry optimization settings:
Update method            Update   .... BFGS
Choice of coordinates    CoordSys .... Z-matrix Internals
Initial Hessian          InHess   .... Almoef's Model

Convergence Tolerances:
Energy Change            TolE     ....  5.0000e-06 Eh
Max. Gradient            TolMAXG  ....  3.0000e-04 Eh/bohr
RMS Gradient             TolRMSG  ....  1.0000e-04 Eh/bohr
Max. Displacement        TolMAXD  ....  4.0000e-03 bohr
RMS Displacement         TolRMSD  ....  2.0000e-03 bohr

------------------------------------------------------------------------------
                        ORCA OPTIMIZATION COORDINATE SETUP
------------------------------------------------------------------------------

The optimization will be done in new redundant internal coordinates
Making redundant internal coordinates   ...  (new redundants) done
Evaluating the initial hessian          ...  (Almloef) done
Evaluating the coordinates              ...  done
Calculating the B-matrix                .... done
Calculating the G-matrix                .... done
Diagonalizing the G-matrix              .... done
The first mode is                       ....   27
The number of degrees of freedom        ....   36

    -----------------------------------------------------------------
                    Redundant Internal Coordinates


    -----------------------------------------------------------------
         Definition                    Initial Value    Approx d2E/dq
    -----------------------------------------------------------------
      1. B(C   1,C   0)                  1.3987         0.605099   
      2. B(C   2,C   0)                  1.3979         0.606829   
      3. B(C   3,C   1)                  1.4037         0.594202   
      4. B(C   4,C   2)                  1.3979         0.606829   
      5. B(C   5,C   4)                  1.3987         0.605093   
      6. B(C   5,C   3)                  1.4037         0.594210   
      7. B(N   6,C   3)                  1.4165         0.507639   
      8. B(H   7,N   6)                  1.0306         0.401229   
      9. B(H   8,N   6)                  1.0306         0.401228   
     10. B(H   9,C   0)                  1.0824         0.370340   
     11. B(H  10,C   1)                  1.0828         0.369731   
     12. B(H  11,C   4)                  1.0824         0.370345   
     13. B(H  12,C   2)                  1.0823         0.370367   
     14. B(H  13,C   5)                  1.0828         0.369729   
     15. A(C   1,C   0,C   2)          120.0698         0.430507   
     16. A(C   2,C   0,H   9)          119.9568         0.353302   
     17. A(C   1,C   0,H   9)          119.9734         0.353131   
     18. A(C   0,C   1,C   3)          120.1824         0.428886   
     19. A(C   3,C   1,H  10)          120.3669         0.351949   
     20. A(C   0,C   1,H  10)          119.4507         0.353032   
     21. A(C   0,C   2,C   4)          120.0063         0.430728   
     22. A(C   4,C   2,H  12)          119.9966         0.353306   
     23. A(C   0,C   2,H  12)          119.9971         0.353306   
     24. A(C   1,C   3,N   6)          120.2554         0.412953   
     25. A(C   1,C   3,C   5)          119.4894         0.427492   
     26. A(C   5,C   3,N   6)          120.2552         0.412954   
     27. A(C   2,C   4,C   5)          120.0695         0.430507   
     28. A(C   5,C   4,H  11)          119.9734         0.353131   
     29. A(C   2,C   4,H  11)          119.9570         0.353302   
     30. A(C   3,C   5,C   4)          120.1826         0.428886   
     31. A(C   3,C   5,H  13)          120.3673         0.351949   
     32. A(C   4,C   5,H  13)          119.4501         0.353031   
     33. A(H   7,N   6,H   8)          118.5916         0.296055   
     34. A(C   3,N   6,H   8)          120.7043         0.342368   
     35. A(C   3,N   6,H   7)          120.7041         0.342368   
     36. D(H  10,C   1,C   0,C   2)   -179.9995         0.025265   
     37. D(C   3,C   1,C   0,C   2)      0.0005         0.025265   
     38. D(C   3,C   1,C   0,H   9)   -179.9999         0.025265   
     39. D(H  10,C   1,C   0,H   9)      0.0000         0.025265   
     40. D(C   4,C   2,C   0,C   1)     -0.0004         0.025417   
     41. D(C   4,C   2,C   0,H   9)   -180.0000         0.025417   
     42. D(H  12,C   2,C   0,H   9)      0.0002         0.025417   
     43. D(H  12,C   2,C   0,C   1)    179.9998         0.025417   
     44. D(N   6,C   3,C   1,H  10)     -0.0004         0.024315   
     45. D(N   6,C   3,C   1,C   0)    179.9995         0.024315   
     46. D(C   5,C   3,C   1,H  10)    180.0000         0.024315   
     47. D(C   5,C   3,C   1,C   0)     -0.0001         0.024315   
     48. D(H  11,C   4,C   2,C   0)   -179.9995         0.025417   
     49. D(C   5,C   4,C   2,H  12)    179.9996         0.025417   
     50. D(C   5,C   4,C   2,C   0)     -0.0002         0.025417   
     51. D(H  11,C   4,C   2,H  12)      0.0003         0.025417   
     52. D(H  13,C   5,C   4,H  11)     -0.0010         0.025264   
     53. D(C   3,C   5,C   4,H  11)    179.9999         0.025264   
     54. D(C   3,C   5,C   4,C   2)      0.0006         0.025264   
     55. D(H  13,C   5,C   3,N   6)      0.0009         0.024316   
     56. D(H  13,C   5,C   3,C   1)   -179.9995         0.024316   
     57. D(H  13,C   5,C   4,C   2)    179.9997         0.025264   
     58. D(C   4,C   5,C   3,N   6)    179.9999         0.024316   
     59. D(C   4,C   5,C   3,C   1)     -0.0005         0.024316   
     60. D(H   8,N   6,C   3,C   5)      0.0011         0.020393   
     61. D(H   8,N   6,C   3,C   1)   -179.9985         0.020393   
     62. D(H   7,N   6,C   3,C   5)   -179.9979         0.020393   
     63. D(H   7,N   6,C   3,C   1)      0.0025         0.020393   
    -----------------------------------------------------------------

Number of atoms                         .... 14
Number of degrees of freedom            .... 63

         *************************************************************
         *                GEOMETRY OPTIMIZATION CYCLE   1            *
         *************************************************************
---------------------------------
CARTESIAN COORDINATES (ANGSTROEM)
---------------------------------
  C     -2.567040    1.010260    0.054930
  C     -1.169610    1.044960    0.005910
  C     -3.238840   -0.215250    0.022470
  C     -0.436480   -0.149230   -0.076010
  C     -2.514080   -1.407860   -0.059070
  C     -1.116570   -1.376710   -0.108270
  N      0.978780   -0.115890   -0.125750
  H      1.485140    0.781390   -0.102470
  H      1.523900   -0.988400   -0.185970
  H     -3.128990    1.933160    0.118070
  H     -0.659530    1.999760    0.031690
  H     -3.035040   -2.356270   -0.084160
  H     -4.320220   -0.240730    0.060470
  H     -0.565220   -2.306510   -0.171340

----------------------------
CARTESIAN COORDINATES (A.U.)
----------------------------
  NO LB      ZA    FRAG     MASS         X           Y           Z
   0 C     6.0000    0    12.011   -4.851003    1.909115    0.103803
   1 C     6.0000    0    12.011   -2.210243    1.974688    0.011168
   2 C     6.0000    0    12.011   -6.120521   -0.406764    0.042462
   3 C     6.0000    0    12.011   -0.824828   -0.282004   -0.143638
   4 C     6.0000    0    12.011   -4.750923   -2.660470   -0.111626
   5 C     6.0000    0    12.011   -2.110012   -2.601605   -0.204601
   6 N     7.0000    0    14.007    1.849626   -0.219000   -0.237633
   7 H     1.0000    0     1.008    2.806508    1.476613   -0.193640
   8 H     1.0000    0     1.008    2.879754   -1.867805   -0.351432
   9 H     1.0000    0     1.008   -5.912934    3.653143    0.223120
  10 H     1.0000    0     1.008   -1.246331    3.778999    0.059885
  11 H     1.0000    0     1.008   -5.735394   -4.452705   -0.159039
  12 H     1.0000    0     1.008   -8.164033   -0.454914    0.114272
  13 H     1.0000    0     1.008   -1.068111   -4.358672   -0.323786

--------------------------------
INTERNAL COORDINATES (ANGSTROEM)
--------------------------------
 C      0   0   0     0.000000000000     0.00000000     0.00000000
 C      1   0   0     1.398720006041     0.00000000     0.00000000
 C      1   2   0     1.397942649646   120.06980361     0.00000000
 C      2   1   3     1.403666712364   120.18236416     0.00000000
 C      3   1   2     1.397942932061   120.00631328     0.00000000
 C      5   3   1     1.398722689671   120.06952443     0.00000000
 N      4   2   1     1.416526205476   120.25536131   179.99948684
 H      7   4   2     1.030559947989   120.70411386     0.00000000
 H      7   4   2     1.030560994265   120.70426049   180.00152035
 H      1   2   3     1.082367253801   119.97342995   179.99957660
 H      2   1   3     1.082815429702   119.45072500   180.00046223
 H      5   3   1     1.082363320609   119.95702950   180.00048565
 H      3   1   2     1.082347418715   119.99710495   179.99981540
 H      6   5   3     1.082817014735   119.45009398   179.99969612

---------------------------
INTERNAL COORDINATES (A.U.)
---------------------------
 C      0   0   0     0.000000000000     0.00000000     0.00000000
 C      1   0   0     2.643197749455     0.00000000     0.00000000
 C      1   2   0     2.641728758760   120.06980361     0.00000000
 C      2   1   3     2.652545669670   120.18236416     0.00000000
 C      3   1   2     2.641729292447   120.00631328     0.00000000
 C      5   3   1     2.643202820780   120.06952443     0.00000000
 N      4   2   1     2.676846589872   120.25536131   179.99948684
 H      7   4   2     1.947476066288   120.70411386     0.00000000
 H      7   4   2     1.947478043462   120.70426049   180.00152035
 H      1   2   3     2.045377686008   119.97342995   179.99957660
 H      2   1   3     2.046224615720   119.45072500   180.00046223
 H      5   3   1     2.045370253353   119.95702950   180.00048565
 H      3   1   2     2.045340203129   119.99710495   179.99981540
 H      6   5   3     2.046227611000   119.45009398   179.99969612

---------------------
BASIS SET INFORMATION
---------------------
There are 3 groups of distinct atoms

 Group   1 Type C   : 10s4p1d contracted to 3s2p1d pattern {631/31/1}
 Group   2 Type N   : 10s4p1d contracted to 3s2p1d pattern {631/31/1}
 Group   3 Type H   : 4s contracted to 2s pattern {31}

Atom   0C    basis set group =>   1
Atom   1C    basis set group =>   1
Atom   2C    basis set group =>   1
Atom   3C    basis set group =>   1
Atom   4C    basis set group =>   1
Atom   5C    basis set group =>   1
Atom   6N    basis set group =>   2
Atom   7H    basis set group =>   3
Atom   8H    basis set group =>   3
Atom   9H    basis set group =>   3
Atom  10H    basis set group =>   3
Atom  11H    basis set group =>   3
Atom  12H    basis set group =>   3
Atom  13H    basis set group =>   3

-------------------------
BASIS SET IN INPUT FORMAT
-------------------------

 # Basis set for element : H 
 NewGTO H 
 S 3 
   1      18.7311370000      0.0334945995
   2       2.8253937000      0.2347269467
   3       0.6401217000      0.8137573184
 S 1 
   1       0.1612778000      1.0000000000
  end;

 # Basis set for element : C 
 NewGTO C 
 S 6 
   1    3047.5249000000      0.0018347002
   2     457.3695100000      0.0140373012
   3     103.9486900000      0.0688426061
   4      29.2101550000      0.2321844206
   5       9.2866630000      0.4679413416
   6       3.1639270000      0.3623120322
 S 3 
   1       7.8682724000     -0.1193324086
   2       1.8812885000     -0.1608542116
   3       0.5442493000      1.1434564826
 P 3 
   1       7.8682724000      0.0689990956
   2       1.8812885000      0.3164239798
   3       0.5442493000      0.7443082524
 S 1 
   1       0.1687144000      1.0000000000
 P 1 
   1       0.1687144000      1.0000000000
 D 1 
   1       0.8000000000      1.0000000000
  end;

 # Basis set for element : N 
 NewGTO N 
 S 6 
   1    4173.5110000000      0.0018347994
   2     627.4579000000      0.0139949958
   3     142.9021000000      0.0685869792
   4      40.2343300000      0.2322409295
   5      12.8202100000      0.4690698576
   6       4.3904370000      0.3604548906
 S 3 
   1      11.6263580000     -0.1149610229
   2       2.7162800000     -0.1691180337
   3       0.7722180000      1.1458522281
 P 3 
   1      11.6263580000      0.0675800232
   2       2.7162800000      0.3239071114
   3       0.7722180000      0.7408952549
 S 1 
   1       0.2120313000      1.0000000000
 P 1 
   1       0.2120313000      1.0000000000
 D 1 
   1       0.8000000000      1.0000000000
  end;

------------------------------------------------------------------------------
                           ORCA GTO INTEGRAL CALCULATION
------------------------------------------------------------------------------

                         BASIS SET STATISTICS AND STARTUP INFO

 # of primitive gaussian shells          ...  133
 # of primitive gaussian functions       ...  217
 # of contracted shells                  ...   56
 # of contracted basis functions         ...  112
 Highest angular momentum                ...    2
 Maximum contraction depth               ...    6
 Integral package used                   ... LIBINT
 Integral threshhold            Thresh   ...  2.500e-11
 Primitive cut-off              TCut     ...  2.500e-12


------------------------------ INTEGRAL EVALUATION ----------------------------


 * One electron integrals 
 Pre-screening matrix                    ... done
 Shell pair data                         ... done (   0.002 sec)

-------------------------------------------------------------------------------
                                 ORCA SCF
-------------------------------------------------------------------------------

------------
SCF SETTINGS
------------
Hamiltonian:
 Density Functional     Method          .... DFT(GTOs)
 Exchange Functional    Exchange        .... B88
   X-Alpha parameter    XAlpha          ....  0.666667
   Becke's b parameter  XBeta           ....  0.004200
 Correlation Functional Correlation     .... LYP
 LDA part of GGA corr.  LDAOpt          .... VWN-5
 Gradients option       PostSCFGGA      .... off
 Hybrid DFT is turned on
   Fraction HF Exchange ScalHFX         ....  0.200000
   Scaling of DF-GGA-X  ScalDFX         ....  0.720000
   Scaling of DF-GGA-C  ScalDFC         ....  0.810000
   Scaling of DF-LDA-C  ScalLDAC        ....  1.000000
   Perturbative correction              ....  0.000000
   Density functional embedding theory  .... OFF
   NL short-range parameter             ....  4.800000


General Settings:
 Integral files         IntName         .... /Users/lailaal-madhagi/Desktop/Testing_XAS_Analysis_code/Aniline//Results_dir_Aniline_geom_element_C_2019-11-04_19-38-59//GTE1_Aniline_geom_2019-11-04_19-39-56//opt
 Hartree-Fock type      HFTyp           .... RHF
 Total Charge           Charge          ....    0
 Multiplicity           Mult            ....    1
 Number of Electrons    NEL             ....   50
 Basis Dimension        Dim             ....  112
 Nuclear Repulsion      ENuc            ....    269.9946414964 Eh

Convergence Acceleration:
 DIIS                   CNVDIIS         .... on
   Start iteration      DIISMaxIt       ....    12
   Startup error        DIISStart       ....  0.200000
   # of expansion vecs  DIISMaxEq       ....     5
   Bias factor          DIISBfac        ....   1.050
   Max. coefficient     DIISMaxC        ....  10.000
 Newton-Raphson         CNVNR           .... off
 SOSCF                  CNVSOSCF        .... on
   Start iteration      SOSCFMaxIt      ....   150
   Startup grad/error   SOSCFStart      ....  0.003300
 Level Shifting         CNVShift        .... on
   Level shift para.    LevelShift      ....    0.2500
   Turn off err/grad.   ShiftErr        ....    0.0010
 Zerner damping         CNVZerner       .... off
 Static damping         CNVDamp         .... on
   Fraction old density DampFac         ....    0.7000
   Max. Damping (<1)    DampMax         ....    0.9800
   Min. Damping (>=0)   DampMin         ....    0.0000
   Turn off err/grad.   DampErr         ....    0.1000
 Fernandez-Rico         CNVRico         .... off

SCF Procedure:
 Maximum # iterations   MaxIter         ....   125
 SCF integral mode      SCFMode         .... Direct
   Integral package                     .... LIBINT
 Reset frequency        DirectResetFreq ....    20
 Integral Threshold     Thresh          ....  2.500e-11 Eh
 Primitive CutOff       TCut            ....  2.500e-12 Eh

Convergence Tolerance:
 Convergence Check Mode ConvCheckMode   .... Total+1el-Energy
 Convergence forced     ConvForced      .... 0
 Energy Change          TolE            ....  1.000e-08 Eh
 1-El. energy change                    ....  1.000e-05 Eh
 Orbital Gradient       TolG            ....  1.000e-05
 Orbital Rotation angle TolX            ....  1.000e-05
 DIIS Error             TolErr          ....  5.000e-07


Diagonalization of the overlap matrix:
Smallest eigenvalue                        ... 4.884e-04
Time for diagonalization                   ...    0.004 sec
Threshold for overlap eigenvalues          ... 1.000e-08
Number of eigenvalues below threshold      ... 0
Time for construction of square roots      ...    0.003 sec
Total time needed                          ...    0.008 sec

-------------------
DFT GRID GENERATION
-------------------

General Integration Accuracy     IntAcc      ...  4.340
Radial Grid Type                 RadialGrid  ... Gauss-Chebyshev
Angular Grid (max. acc.)         AngularGrid ... Lebedev-194
Angular grid pruning method      GridPruning ... 3 (G Style)
Weight generation scheme         WeightScheme... Becke
Basis function cutoff            BFCut       ...    1.0000e-11
Integration weight cutoff        WCut        ...    1.0000e-14
Grids for H and He will be reduced by one unit

# of grid points (after initial pruning)     ...  33688 (   0.0 sec)
# of grid points (after weights+screening)   ...  31230 (   0.1 sec)
nearest neighbour list constructed           ...    0.0 sec
Grid point re-assignment to atoms done       ...    0.0 sec
Grid point division into batches done        ...    0.2 sec
Reduced shell lists constructed in    0.5 sec

Total number of grid points                  ...    31230
Total number of batches                      ...      494
Average number of points per batch           ...       63
Average number of grid points per atom       ...     2231
Average number of shells per batch           ...    40.64 (72.57%)
Average number of basis functions per batch  ...    83.81 (74.83%)
Average number of large shells per batch     ...    32.52 (80.03%)
Average number of large basis fcns per batch ...    67.41 (80.43%)
Maximum spatial batch extension              ...  20.98, 18.32, 22.26 au
Average spatial batch extension              ...   2.95,  3.01,  3.79 au

Time for grid setup =    0.668 sec

------------------------------
INITIAL GUESS: MODEL POTENTIAL
------------------------------
Loading Hartree-Fock densities                     ... done
Calculating cut-offs                               ... done
Setting up the integral package                    ... done
Initializing the effective Hamiltonian             ... done
Starting the Coulomb interaction                   ... done (   0.1 sec)
Reading the grid                                   ... done
Mapping shells                                     ... done
Starting the XC term evaluation                    ... done (   0.5 sec)
  promolecular density results
     # of electrons  =     49.994726800
     EX              =    -39.481982653
     EC              =     -1.656833807
     EX+EC           =    -41.138816460
Transforming the Hamiltonian                       ... done (   0.0 sec)
Diagonalizing the Hamiltonian                      ... done (   0.0 sec)
Back transforming the eigenvectors                 ... done (   0.0 sec)
Now organizing SCF variables                       ... done
                      ------------------
                      INITIAL GUESS DONE (   1.4 sec)
                      ------------------
--------------
SCF ITERATIONS
--------------
               ***  Starting incremental Fock matrix formation  ***

                         ----------------------------
                         !        ITERATION     0   !
                         ----------------------------
   Total Energy        :    -287.200904299467 Eh
   Energy Change       :    -287.200904299467 Eh
   MAX-DP              :       0.079637700242
   RMS-DP              :       0.002900361865
   Actual Damping      :       0.7000
   Actual Level Shift  :       0.2500 Eh
   Int. Num. El.       :    49.99842038 (UP=   24.99921019 DN=   24.99921019)
   Exchange            :   -32.44980322
   Correlation         :    -1.98661265


                         ----------------------------
                         !        ITERATION     1   !
                         ----------------------------
   Total Energy        :    -287.294516673000 Eh
   Energy Change       :      -0.093612373532 Eh
   MAX-DP              :       0.048736430018
   RMS-DP              :       0.002117189114
   Actual Damping      :       0.7000
   Actual Level Shift  :       0.2500 Eh
   Int. Num. El.       :    49.99820977 (UP=   24.99910488 DN=   24.99910488)
   Exchange            :   -32.20784110
   Correlation         :    -1.97584186

                               ***Turning on DIIS***

                         ----------------------------
                         !        ITERATION     2   !
                         ----------------------------
   Total Energy        :    -287.334617925813 Eh
   Energy Change       :      -0.040101252814 Eh
   MAX-DP              :       0.067290477419
   RMS-DP              :       0.003562075462
   Actual Damping      :       0.0000
   Actual Level Shift  :       0.2500 Eh
   Int. Num. El.       :    49.99807929 (UP=   24.99903965 DN=   24.99903965)
   Exchange            :   -32.04422448
   Correlation         :    -1.96824440
   DIIS-Error          :       0.040902197207


                         ----------------------------
                         !        ITERATION     3   !
                         ----------------------------
   Total Energy        :    -287.391333471456 Eh
   Energy Change       :      -0.056715545643 Eh
   MAX-DP              :       0.035184983676
   RMS-DP              :       0.001450563522
   Actual Damping      :       0.0000
   Actual Level Shift  :       0.2500 Eh
   Int. Num. El.       :    49.99788941 (UP=   24.99894471 DN=   24.99894471)
   Exchange            :   -31.79309395
   Correlation         :    -1.95619058
   DIIS-Error          :       0.057634763795
   DIIS coefficients:
      0.57787   0.42213


                         ----------------------------
                         !        ITERATION     4   !
                         ----------------------------
   Total Energy        :    -287.406307912831 Eh
   Energy Change       :      -0.014974441375 Eh
   MAX-DP              :       0.011567118284
   RMS-DP              :       0.000483747611
   Actual Damping      :       0.0000
   Actual Level Shift  :       0.2500 Eh
   Int. Num. El.       :    49.99796702 (UP=   24.99898351 DN=   24.99898351)
   Exchange            :   -31.89347772
   Correlation         :    -1.96126259
   DIIS-Error          :       0.009443899412
   DIIS coefficients:
      0.16946  -0.04439   0.87492


                         ----------------------------
                         !        ITERATION     5   !
                         ----------------------------
   Total Energy        :    -287.407126883401 Eh
   Energy Change       :      -0.000818970570 Eh
   MAX-DP              :       0.003934931726
   RMS-DP              :       0.000148351888
   Actual Damping      :       0.0000
   Actual Level Shift  :       0.2500 Eh
   Int. Num. El.       :    49.99797689 (UP=   24.99898845 DN=   24.99898845)
   Exchange            :   -31.91734463
   Correlation         :    -1.96249814
   DIIS-Error          :       0.005058865709
   DIIS coefficients:
      0.05687  -0.02965   0.22175   0.75102

                      *** Initiating the SOSCF procedure ***
                           *** Shutting down DIIS ***
                      *** Re-Reading the Fockian *** 
                      *** Removing any level shift *** 

                         ----------------------------
                         !        ITERATION     6   !
                         ----------------------------
   Total Energy        :    -287.407179021776 Eh
   Energy Change       :      -0.000052138374 Eh
   MAX-DP              :       0.001432043958
   RMS-DP              :       0.000061685737
   Orbital gradient    :       0.000216037033
   Orbital Rotation    :       0.000216037033
   Actual Damping      :       0.0000
   Int. Num. El.       :    49.99797816 (UP=   24.99898908 DN=   24.99898908)
   Exchange            :   -31.92348670
   Correlation         :    -1.96277361

               *** Restarting incremental Fock matrix formation ***

                         ----------------------------
                         !        ITERATION     7   !
                         ----------------------------
   Total Energy        :    -287.407181965916 Eh
   Energy Change       :      -0.000002944140 Eh
   MAX-DP              :       0.000205047141
   RMS-DP              :       0.000010576509
   Orbital gradient    :       0.000061560413
   Orbital Rotation    :       0.000279871005
   Actual Damping      :       0.0000
   Int. Num. El.       :    49.99797661 (UP=   24.99898831 DN=   24.99898831)
   Exchange            :   -31.92421598
   Correlation         :    -1.96281675


                         ----------------------------
                         !        ITERATION     8   !
                         ----------------------------
   Total Energy        :    -287.407181907732 Eh
   Energy Change       :       0.000000058184 Eh
   MAX-DP              :       0.000158861996
   RMS-DP              :       0.000005750685
   Orbital gradient    :       0.000108088613
   Orbital Rotation    :       0.000200507074
   Actual Damping      :       0.0000
   Int. Num. El.       :    49.99797626 (UP=   24.99898813 DN=   24.99898813)
   Exchange            :   -31.92386089
   Correlation         :    -1.96279799


                         ----------------------------
                         !        ITERATION     9   !
                         ----------------------------
   Total Energy        :    -287.407182060163 Eh
   Energy Change       :      -0.000000152431 Eh
   MAX-DP              :       0.000062316418
   RMS-DP              :       0.000002486761
   Orbital gradient    :       0.000017325826
   Orbital Rotation    :       0.000059425292
   Actual Damping      :       0.0000
   Int. Num. El.       :    49.99797626 (UP=   24.99898813 DN=   24.99898813)
   Exchange            :   -31.92397673
   Correlation         :    -1.96280481


                         ----------------------------
                         !        ITERATION    10   !
                         ----------------------------
   Total Energy        :    -287.407182054070 Eh
   Energy Change       :       0.000000006093 Eh
   MAX-DP              :       0.000036442763
   RMS-DP              :       0.000001502785
   Orbital gradient    :       0.000026802299
   Orbital Rotation    :       0.000041038566
   Actual Damping      :       0.0000
   Int. Num. El.       :    49.99797639 (UP=   24.99898819 DN=   24.99898819)
   Exchange            :   -31.92410623
   Correlation         :    -1.96281123


                         ----------------------------
                         !        ITERATION    11   !
                         ----------------------------
   Total Energy        :    -287.407182065652 Eh
   Energy Change       :      -0.000000011583 Eh
   MAX-DP              :       0.000008149562
   RMS-DP              :       0.000000321940
   Orbital gradient    :       0.000002698810
   Orbital Rotation    :       0.000009327270
   Actual Damping      :       0.0000
   Int. Num. El.       :    49.99797632 (UP=   24.99898816 DN=   24.99898816)
   Exchange            :   -31.92403267
   Correlation         :    -1.96280751


                         ----------------------------
                         !        ITERATION    12   !
                         ----------------------------
   Total Energy        :    -287.407182065343 Eh
   Energy Change       :       0.000000000309 Eh
   MAX-DP              :       0.000005720782
   RMS-DP              :       0.000000182767
   Orbital gradient    :       0.000003180225
   Orbital Rotation    :       0.000004851232
   Actual Damping      :       0.0000
   Int. Num. El.       :    49.99797631 (UP=   24.99898815 DN=   24.99898815)
   Exchange            :   -31.92401951
   Correlation         :    -1.96280687

                 **** Energy Check signals convergence ****
              ***Rediagonalizing the Fockian in SOSCF/NRSCF***

               *****************************************************
               *                     SUCCESS                       *
               *           SCF CONVERGED AFTER  13 CYCLES          *
               *****************************************************

Setting up the final grid:

General Integration Accuracy     IntAcc      ...  5.010
Radial Grid Type                 RadialGrid  ... Gauss-Chebyshev
Angular Grid (max. acc.)         AngularGrid ... Lebedev-434
Angular grid pruning method      GridPruning ... 3 (G Style)
Weight generation scheme         WeightScheme... Becke
Basis function cutoff            BFCut       ...    1.0000e-11
Integration weight cutoff        WCut        ...    1.0000e-14
Grids for H and He will be reduced by one unit

# of grid points (after initial pruning)     ... 121622 (   0.1 sec)
# of grid points (after weights+screening)   ... 111853 (   0.2 sec)
nearest neighbour list constructed           ...    0.0 sec
Grid point re-assignment to atoms done       ...    0.0 sec
Grid point division into batches done        ...    0.6 sec
Reduced shell lists constructed in    1.1 sec

Total number of grid points                  ...   111853
Total number of batches                      ...     1753
Average number of points per batch           ...       63
Average number of grid points per atom       ...     7990
Average number of shells per batch           ...    37.56 (67.06%)
Average number of basis functions per batch  ...    77.17 (68.90%)
Average number of large shells per batch     ...    29.50 (78.54%)
Average number of large basis fcns per batch ...    60.95 (78.98%)
Maximum spatial batch extension              ...  17.83, 16.57, 23.97 au
Average spatial batch extension              ...   2.02,  2.07,  2.32 au

Final grid set up in    1.4 sec
Final integration                            ... done (   0.9 sec)
Change in XC energy                          ...    -0.000342679
Integrated number of electrons               ...    49.999993044
Previous integrated no of electrons          ...    49.997976315

----------------
TOTAL SCF ENERGY
----------------

Total Energy       :         -287.40752474 Eh           -7820.75635 eV

Components:
Nuclear Repulsion  :          269.99464150 Eh            7346.92771 eV
Electronic Energy  :         -557.40216624 Eh          -15167.68405 eV
One Electron Energy:         -922.15723335 Eh          -25093.17403 eV
Two Electron Energy:          364.75506711 Eh            9925.48998 eV

Virial components:
Potential Energy   :         -572.97871866 Eh          -15591.54359 eV
Kinetic Energy     :          285.57119392 Eh            7770.78725 eV
Virial Ratio       :            2.00643038


DFT components:
N(Alpha)           :       24.999996521782 electrons
N(Beta)            :       24.999996521782 electrons
N(Total)           :       49.999993043564 electrons
E(X)               :      -31.924357708661 Eh       
E(C)               :       -1.962820317753 Eh       
E(XC)              :      -33.887178026414 Eh       
DFET-embed. en.    :        0.000000000000 Eh       

---------------
SCF CONVERGENCE
---------------

  Last Energy change         ...   -4.3582e-10  Tolerance :   1.0000e-08
  Last MAX-Density change    ...    8.5178e-07  Tolerance :   1.0000e-07
  Last RMS-Density change    ...    3.0584e-08  Tolerance :   5.0000e-09
  Last Orbital Gradient      ...    1.9068e-07  Tolerance :   1.0000e-05
  Last Orbital Rotation      ...    5.6292e-07  Tolerance :   1.0000e-05

             **** THE GBW FILE WAS UPDATED (/Users/lailaal-madhagi/Desktop/Testing_XAS_Analysis_code/Aniline//Results_dir_Aniline_geom_element_C_2019-11-04_19-38-59//GTE1_Aniline_geom_2019-11-04_19-39-56//opt.gbw) ****
             **** DENSITY FILE WAS UPDATED (/Users/lailaal-madhagi/Desktop/Testing_XAS_Analysis_code/Aniline//Results_dir_Aniline_geom_element_C_2019-11-04_19-38-59//GTE1_Aniline_geom_2019-11-04_19-39-56//opt.scfp.tmp) ****
             **** ENERGY FILE WAS UPDATED (/Users/lailaal-madhagi/Desktop/Testing_XAS_Analysis_code/Aniline//Results_dir_Aniline_geom_element_C_2019-11-04_19-38-59//GTE1_Aniline_geom_2019-11-04_19-39-56//opt.en.tmp) ****
----------------
ORBITAL ENERGIES
----------------

  NO   OCC          E(Eh)            E(eV) 
   0   2.0000     -14.326736      -389.8503 
   1   2.0000     -10.216540      -278.0062 
   2   2.0000     -10.169343      -276.7219 
   3   2.0000     -10.169334      -276.7217 
   4   2.0000     -10.164333      -276.5856 
   5   2.0000     -10.164306      -276.5848 
   6   2.0000     -10.157677      -276.4044 
   7   2.0000      -0.893271       -24.3071 
   8   2.0000      -0.817561       -22.2470 
   9   2.0000      -0.728752       -19.8303 
  10   2.0000      -0.710251       -19.3269 
  11   2.0000      -0.597933       -16.2706 
  12   2.0000      -0.583648       -15.8819 
  13   2.0000      -0.511200       -13.9105 
  14   2.0000      -0.499315       -13.5870 
  15   2.0000      -0.464932       -12.6514 
  16   2.0000      -0.419344       -11.4109 
  17   2.0000      -0.415714       -11.3121 
  18   2.0000      -0.405140       -11.0244 
  19   2.0000      -0.364612        -9.9216 
  20   2.0000      -0.341775        -9.3002 
  21   2.0000      -0.331381        -9.0173 
  22   2.0000      -0.290468        -7.9040 
  23   2.0000      -0.234099        -6.3702 
  24   2.0000      -0.185911        -5.0589 
  25   0.0000       0.014303         0.3892 
  26   0.0000       0.034067         0.9270 
  27   0.0000       0.079075         2.1517 
  28   0.0000       0.107760         2.9323 
  29   0.0000       0.125330         3.4104 
  30   0.0000       0.167984         4.5711 
  31   0.0000       0.170777         4.6471 
  32   0.0000       0.182095         4.9551 
  33   0.0000       0.199429         5.4267 
  34   0.0000       0.201829         5.4921 
  35   0.0000       0.266629         7.2553 
  36   0.0000       0.318774         8.6743 
  37   0.0000       0.329564         8.9679 
  38   0.0000       0.353096         9.6082 
  39   0.0000       0.357040         9.7156 
  40   0.0000       0.483506        13.1569 
  41   0.0000       0.539802        14.6888 
  42   0.0000       0.545911        14.8550 
  43   0.0000       0.565244        15.3811 
  44   0.0000       0.577366        15.7109 
  45   0.0000       0.608960        16.5706 
  46   0.0000       0.612913        16.6782 
  47   0.0000       0.614171        16.7124 
  48   0.0000       0.614242        16.7144 
  49   0.0000       0.625573        17.0227 
  50   0.0000       0.639993        17.4151 
  51   0.0000       0.647741        17.6259 
  52   0.0000       0.677262        18.4292 
  53   0.0000       0.680767        18.5246 
  54   0.0000       0.687638        18.7116 
  55   0.0000       0.763156        20.7665 
  56   0.0000       0.783423        21.3180 
  57   0.0000       0.849587        23.1184 
  58   0.0000       0.850026        23.1304 
  59   0.0000       0.865016        23.5383 
  60   0.0000       0.873656        23.7734 
  61   0.0000       0.882258        24.0074 
  62   0.0000       0.891573        24.2609 
  63   0.0000       0.942920        25.6582 
  64   0.0000       0.962689        26.1961 
  65   0.0000       0.992161        26.9981 
  66   0.0000       1.011095        27.5133 
  67   0.0000       1.053642        28.6710 
  68   0.0000       1.113824        30.3087 
  69   0.0000       1.127318        30.6759 
  70   0.0000       1.184288        32.2261 
  71   0.0000       1.196509        32.5587 
  72   0.0000       1.267195        34.4821 
  73   0.0000       1.348431        36.6927 
  74   0.0000       1.370312        37.2881 
  75   0.0000       1.437697        39.1217 
  76   0.0000       1.455207        39.5982 
  77   0.0000       1.483849        40.3776 
  78   0.0000       1.512205        41.1492 
  79   0.0000       1.527116        41.5549 
  80   0.0000       1.543252        41.9940 
  81   0.0000       1.585187        43.1351 
  82   0.0000       1.681042        45.7435 
  83   0.0000       1.790867        48.7320 
  84   0.0000       1.797082        48.9011 
  85   0.0000       1.841144        50.1001 
  86   0.0000       1.910075        51.9758 
  87   0.0000       1.964530        53.4576 
  88   0.0000       1.967684        53.5434 
  89   0.0000       1.990977        54.1772 
  90   0.0000       2.027871        55.1812 
  91   0.0000       2.073651        56.4269 
  92   0.0000       2.120441        57.7001 
  93   0.0000       2.160399        58.7874 
  94   0.0000       2.178490        59.2797 
  95   0.0000       2.242982        61.0346 
  96   0.0000       2.248456        61.1836 
  97   0.0000       2.320460        63.1429 
  98   0.0000       2.321456        63.1700 
  99   0.0000       2.370099        64.4937 
 100   0.0000       2.448722        66.6331 
 101   0.0000       2.483047        67.5671 
 102   0.0000       2.603295        70.8393 
 103   0.0000       2.604427        70.8701 
 104   0.0000       2.665385        72.5288 
 105   0.0000       2.739386        74.5425 
 106   0.0000       2.741832        74.6090 
 107   0.0000       2.754063        74.9419 
 108   0.0000       2.844797        77.4109 
 109   0.0000       2.892254        78.7022 
 110   0.0000       3.110236        84.6338 
 111   0.0000       3.424796        93.1934 
------------------
MOLECULAR ORBITALS
------------------
                      0         1         2         3         4         5   
                 -14.32674 -10.21654 -10.16934 -10.16933 -10.16433 -10.16431
                   2.00000   2.00000   2.00000   2.00000   2.00000   2.00000
                  --------  --------  --------  --------  --------  --------
  0C   1s         0.000001 -0.000007 -0.924084 -0.366418  0.002603 -0.042229
  0C   2s         0.000091  0.000004 -0.033727 -0.013431 -0.000390 -0.003682
  0C   1pz       -0.000012 -0.000017  0.000038  0.000027  0.000007  0.000050
  0C   1px        0.000199  0.000315 -0.000400 -0.000109 -0.000053 -0.001320
  0C   1py       -0.000096 -0.000120  0.000515  0.000494  0.000102  0.000055
  0C   3s         0.004820  0.008256  0.031298  0.007223  0.004603  0.014800
  0C   2pz       -0.000108 -0.000252 -0.000428 -0.000014 -0.000183 -0.000391
  0C   2px        0.001252  0.002263  0.003710 -0.000005  0.001684  0.005209
  0C   2py       -0.001347 -0.003673 -0.006332 -0.000303 -0.002622 -0.004371
  0C   1dz2       0.000043  0.000058  0.000544  0.000168 -0.000110  0.000627
  0C   1dxz       0.000002  0.000000  0.000026  0.000003 -0.000007  0.000073
  0C   1dyz      -0.000002 -0.000006 -0.000024 -0.000008  0.000007  0.000009
  0C   1dx2y2    -0.000012  0.000052 -0.000175  0.000012  0.000029 -0.001139
  0C   1dxy      -0.000023 -0.000030 -0.000322 -0.000164  0.000025 -0.000175
  1C   1s         0.000070 -0.003741 -0.038544 -0.017080 -0.023645  0.993954
  1C   2s         0.000658  0.002184  0.000763 -0.000284 -0.000905  0.036607
  1C   1pz       -0.000003 -0.000070  0.000041  0.000022  0.000011 -0.000023
  1C   1px        0.000039  0.000563 -0.001246 -0.000435 -0.000009 -0.000366
  1C   1py       -0.000030 -0.001077 -0.000090  0.000132  0.000240 -0.000789
  1C   3s        -0.006928 -0.016966 -0.012547 -0.001401 -0.004296 -0.033958
  1C   2pz        0.000108  0.000359  0.000034 -0.000023  0.000048  0.000196
  1C   2px        0.003781  0.002599  0.004451  0.000055  0.001644  0.003442
  1C   2py        0.005282  0.009779  0.004205 -0.000461  0.002320  0.006923
  1C   1dz2       0.000183 -0.000482 -0.000509 -0.000287 -0.000049 -0.000621
  1C   1dxz      -0.000009 -0.000067 -0.000070 -0.000034 -0.000004 -0.000066
  1C   1dyz      -0.000021  0.000088 -0.000006  0.000003  0.000000  0.000050
  1C   1dx2y2     0.000307 -0.000285  0.001034  0.000436  0.000061  0.000282
  1C   1dxy      -0.000211 -0.001000 -0.000015 -0.000007  0.000018 -0.000368
  2C   1s         0.000040  0.000251 -0.023673  0.010240 -0.001385 -0.001450
  2C   2s         0.000342  0.000750  0.001862 -0.000805  0.000049  0.000051
  2C   1pz       -0.000004 -0.000007 -0.000002  0.000081  0.000010  0.000002
  2C   1px        0.000111  0.000186  0.000874 -0.000415 -0.000163 -0.000167
  2C   1py        0.000003  0.000004  0.000642  0.001427  0.000094 -0.000098
  2C   3s        -0.003000 -0.007071 -0.015907  0.006875 -0.005964 -0.006253
  2C   2pz        0.000073  0.000162  0.000190 -0.000261  0.000125  0.000101
  2C   2px       -0.002067 -0.004595 -0.007232  0.003208 -0.003131 -0.003268
  2C   2py       -0.000049 -0.000108 -0.001550 -0.003116  0.000248 -0.000384
  2C   1dz2       0.000074  0.000146 -0.000777  0.000332 -0.000071 -0.000075
  2C   1dxz       0.000003  0.000007  0.000005  0.000066 -0.000002 -0.000005
  2C   1dyz      -0.000008 -0.000014  0.000086 -0.000086  0.000007  0.000009
  2C   1dx2y2     0.000035  0.000050 -0.000874  0.000313 -0.000039 -0.000038
  2C   1dxy       0.000001  0.000002  0.000484  0.001219  0.000028 -0.000030
  3C   1s        -0.000110 -0.995129  0.000160 -0.000070 -0.003843 -0.004029
  3C   2s         0.000119 -0.036511  0.000128 -0.000056 -0.002237 -0.002346
  3C   1pz       -0.000029  0.000002  0.000013  0.000004  0.000032 -0.000077
  3C   1px        0.000812 -0.000047 -0.000273  0.000114  0.000623  0.000705
  3C   1py        0.000019 -0.000001  0.000067  0.000174  0.001187 -0.001101
  3C   3s        -0.002950  0.031677  0.006708 -0.002897  0.013102  0.013742
  3C   2pz        0.000597  0.000581  0.000096  0.000041  0.000064  0.000372
  3C   2px       -0.016995 -0.016538 -0.001888  0.000776 -0.006075 -0.006514
  3C   2py       -0.000400 -0.000390  0.000590  0.001485 -0.003375  0.002928
  3C   1dz2      -0.000234  0.000915 -0.000019  0.000009  0.000639  0.000665
  3C   1dxz      -0.000034  0.000069 -0.000007 -0.000007 -0.000028  0.000063
  3C   1dyz      -0.000008 -0.000057  0.000001  0.000007 -0.000049 -0.000117
  3C   1dx2y2     0.000561 -0.000339  0.000074 -0.000023  0.000679  0.000625
  3C   1dxy       0.000026 -0.000018 -0.000070 -0.000172 -0.000935  0.000946
  4C   1s         0.000001 -0.000007 -0.366246  0.924139 -0.042586  0.000572
  4C   2s         0.000091  0.000004 -0.013325  0.033768 -0.003670 -0.000566
  4C   1pz       -0.000002 -0.000005  0.000007  0.000021  0.000042 -0.000001
  4C   1px        0.000194  0.000309 -0.000195  0.000334 -0.001313 -0.000111
  4C   1py        0.000106  0.000135 -0.000003  0.000730 -0.000112 -0.000110
  4C   3s         0.004820  0.008256  0.016183 -0.027742  0.014572  0.005303
  4C   2pz        0.000022  0.000099  0.000111 -0.000139  0.000029  0.000070
  4C   2px        0.001192  0.002100  0.002363 -0.002484  0.004932  0.001805
  4C   2py        0.001404  0.003776  0.004234 -0.004941  0.004479  0.002915
  4C   1dz2       0.000043  0.000058  0.000250 -0.000510  0.000631 -0.000080
  4C   1dxz       0.000004  0.000003  0.000025 -0.000053  0.000085 -0.000005
  4C   1dyz      -0.000004 -0.000008 -0.000017  0.000046  0.000000  0.000008
  4C   1dx2y2    -0.000014  0.000049 -0.000137  0.000150 -0.001150 -0.000024
  4C   1dxy       0.000022  0.000035  0.000088 -0.000332  0.000068 -0.000018
  5C   1s         0.000070 -0.003743 -0.014065  0.040042  0.993938  0.023784
  5C   2s         0.000658  0.002184  0.000726 -0.000351  0.036608  0.000842
  5C   1pz        0.000000  0.000032  0.000026 -0.000040  0.000050 -0.000009
  5C   1px        0.000037  0.000516 -0.000544  0.001203 -0.000400 -0.000018
  5C   1py        0.000031  0.001103  0.000132  0.000082  0.000781 -0.000203
  5C   3s        -0.006928 -0.016966 -0.007575  0.010090 -0.033717 -0.005910
  5C   2pz       -0.000382 -0.000557 -0.000256  0.000243 -0.000440 -0.000188
  5C   2px        0.004009  0.003025  0.003148 -0.003396  0.003655  0.001920
  5C   2py       -0.005099 -0.009646 -0.003072  0.002588 -0.006639 -0.002559
  5C   1dz2       0.000182 -0.000488 -0.000140  0.000567 -0.000620 -0.000078
  5C   1dxz       0.000012  0.000028 -0.000021  0.000068 -0.000030 -0.000007
  5C   1dyz      -0.000037  0.000021 -0.000008  0.000007  0.000024  0.000003
  5C   1dx2y2     0.000287 -0.000374  0.000389 -0.001046  0.000245  0.000074
  5C   1dxy       0.000237  0.000973  0.000041 -0.000114  0.000395  0.000007
  6N   1s        -0.995299 -0.000158  0.000024 -0.000011 -0.000017 -0.000018
  6N   2s        -0.032476 -0.000619  0.000255 -0.000110 -0.000302 -0.000317
  6N   1pz       -0.000012  0.000027  0.000002  0.000002 -0.000002 -0.000006
  6N   1px        0.000343 -0.000767 -0.000039  0.000016  0.000111  0.000118
  6N   1py        0.000008 -0.000018  0.000019  0.000047  0.000050 -0.000043
  6N   3s         0.028811  0.006116 -0.000792  0.000343  0.001384  0.001452
  6N   2pz        0.000219  0.000149 -0.000039 -0.000015  0.000020  0.000013
  6N   2px       -0.006217 -0.004237  0.000793 -0.000328 -0.000461 -0.000480
  6N   2py       -0.000146 -0.000100 -0.000225 -0.000572  0.000077 -0.000095
  6N   1dz2      -0.000190 -0.001059  0.000071 -0.000031 -0.000101 -0.000106
  6N   1dxz      -0.000022 -0.000123  0.000008 -0.000003 -0.000006 -0.000001
  6N   1dyz       0.000001  0.000006 -0.000002  0.000000  0.000014  0.000011
  6N   1dx2y2     0.000287  0.001652 -0.000087  0.000037 -0.000084 -0.000093
  6N   1dxy       0.000014  0.000078 -0.000001  0.000009 -0.000054  0.000045
  7H   1s         0.000118  0.000022  0.000086  0.000078 -0.000043 -0.000103
  7H   2s        -0.002747  0.000472 -0.000122  0.000167  0.000189  0.000014
  8H   1s         0.000118  0.000022  0.000002 -0.000116 -0.000101 -0.000048
  8H   2s        -0.002746  0.000472 -0.000205 -0.000025  0.000005  0.000189
  9H   1s         0.000005  0.000103  0.001305  0.000463  0.000092 -0.000058
  9H   2s         0.000090  0.000664 -0.002461 -0.001335  0.000888  0.001180
 10H   1s        -0.000224  0.000006  0.000171  0.000173 -0.000052 -0.001356
 10H   2s        -0.001966 -0.002758 -0.001331  0.000240 -0.000584  0.002679
 11H   1s         0.000005  0.000103  0.000556 -0.001268 -0.000062  0.000089
 11H   2s         0.000090  0.000664 -0.000713  0.002708  0.001135  0.000944
 12H   1s        -0.000057 -0.000127  0.000209 -0.000090 -0.000056 -0.000059
 12H   2s        -0.000610 -0.001282 -0.001619  0.000700 -0.000492 -0.000515
 13H   1s        -0.000224  0.000006 -0.000008 -0.000243 -0.001351 -0.000116
 13H   2s        -0.001966 -0.002758 -0.001087  0.000806  0.002704 -0.000455
                      6         7         8         9        10        11   
                 -10.15768  -0.89327  -0.81756  -0.72875  -0.71025  -0.59793
                   2.00000   2.00000   2.00000   2.00000   2.00000   2.00000
                  --------  --------  --------  --------  --------  --------
  0C   1s         0.018444  0.023601  0.097378  0.109100  0.055071 -0.089397
  0C   2s         0.002816 -0.044153 -0.185236 -0.213091 -0.107526  0.182145
  0C   1pz       -0.000033  0.001198  0.003294  0.001415 -0.000605  0.003630
  0C   1px       -0.000606 -0.017349 -0.023340 -0.058261  0.089985 -0.091606
  0C   1py       -0.001184  0.012271  0.052802 -0.015031  0.057315  0.006642
  0C   3s        -0.014694 -0.051598 -0.114345 -0.161038 -0.090431  0.125869
  0C   2pz        0.000360  0.000604  0.000269 -0.000365 -0.000278  0.002862
  0C   2px       -0.001425 -0.012255  0.000508 -0.007589  0.015650 -0.050536
  0C   2py        0.006653  0.003443  0.006276 -0.013765  0.006067  0.022550
  0C   1dz2      -0.000629  0.002629  0.009135  0.008344  0.004117 -0.004217
  0C   1dxz       0.000028  0.000223  0.000531  0.000785 -0.000226 -0.000196
  0C   1dyz       0.000037 -0.000177 -0.000771 -0.000517 -0.000533  0.000673
  0C   1dx2y2    -0.000528 -0.001062  0.000947 -0.004767  0.007784 -0.005190
  0C   1dxy       0.001036  0.000405 -0.000232  0.001833 -0.004397 -0.002526
  1C   1s        -0.000712  0.049645  0.076518  0.114452 -0.072126  0.074762
  1C   2s        -0.000124 -0.095143 -0.143840 -0.222677  0.140392 -0.150853
  1C   1pz        0.000001  0.002511 -0.000110 -0.002260 -0.004954  0.005132
  1C   1px       -0.000166 -0.020458  0.049318  0.050718  0.064606 -0.131971
  1C   1py       -0.000106  0.038147  0.036088 -0.009240 -0.056342  0.007557
  1C   3s         0.006732 -0.030224 -0.097616 -0.167331  0.111213 -0.119779
  1C   2pz       -0.000074  0.000531 -0.000290 -0.000342 -0.000434  0.001874
  1C   2px       -0.002125 -0.028657  0.012392 -0.003737  0.010520 -0.069441
  1C   2py       -0.003259 -0.010738  0.003659 -0.009873 -0.001022 -0.014029
  1C   1dz2       0.000047  0.005219  0.007152  0.008753 -0.005087  0.003839
  1C   1dxz       0.000005  0.000474  0.000367  0.000609 -0.000214  0.000009
  1C   1dyz      -0.000006 -0.000568 -0.000459 -0.000434  0.000869 -0.000571
  1C   1dx2y2     0.000010  0.000451 -0.000692 -0.004227 -0.007245  0.005931
  1C   1dxy       0.000054  0.003501 -0.002320 -0.002042 -0.003379 -0.000370
  2C   1s        -0.994803  0.018445  0.101048  0.000032  0.124413  0.000009
  2C   2s        -0.036609 -0.035597 -0.190452 -0.000050 -0.243068 -0.000025
  2C   1pz        0.000031  0.000571  0.002122 -0.005047  0.000421  0.008504
  2C   1px       -0.000897 -0.016254 -0.060364  0.002337 -0.011847 -0.003947
  2C   1py       -0.000021 -0.000384 -0.001422 -0.107090 -0.000246  0.180445
  2C   3s         0.033674 -0.013291 -0.124114 -0.000165 -0.180322  0.000010
  2C   2pz       -0.000274 -0.000268  0.000328 -0.000950 -0.000593  0.001850
  2C   2px        0.007792  0.007552 -0.009572  0.000374  0.016594 -0.000868
  2C   2py        0.000184  0.000190 -0.000267 -0.020247  0.000351  0.039041
  2C   1dz2       0.000629  0.001845  0.009635  0.000032  0.008994 -0.000024
  2C   1dxz       0.000024  0.000125  0.000604 -0.000462  0.000542  0.000403
  2C   1dyz      -0.000072 -0.000135 -0.000775  0.000327 -0.000755 -0.000285
  2C   1dx2y2     0.000458 -0.000272  0.000025  0.000439  0.000646 -0.000383
  2C   1dxy       0.000019 -0.000018 -0.000028 -0.009646  0.000004  0.008398
  3C   1s        -0.000098  0.115600  0.035912 -0.000021 -0.105905  0.000020
  3C   2s         0.000622 -0.227506 -0.067819  0.000035  0.214469 -0.000039
  3C   1pz        0.000006  0.002697 -0.004110 -0.006152  0.003217 -0.010648
  3C   1px       -0.000166 -0.076845  0.116983  0.002835 -0.091505  0.004945
  3C   1py       -0.000004 -0.001806  0.002760 -0.130498 -0.002128 -0.225871
  3C   3s        -0.005196 -0.089646 -0.053302  0.000091  0.154689 -0.000099
  3C   2pz       -0.000176 -0.002031 -0.000531 -0.000740  0.000463 -0.001220
  3C   2px        0.005001  0.058227  0.015192  0.000265 -0.013077  0.000527
  3C   2py        0.000118  0.001291  0.000412 -0.015942 -0.000300 -0.025767
  3C   1dz2       0.000069  0.012294  0.002433 -0.000029 -0.006123 -0.000006
  3C   1dxz       0.000002  0.001085 -0.000100  0.000448 -0.000078  0.000146
  3C   1dyz      -0.000009 -0.000549 -0.000550 -0.000318  0.000924 -0.000104
  3C   1dx2y2     0.000067 -0.009158  0.007394 -0.000428 -0.008981 -0.000138
  3C   1dxy       0.000003 -0.000452  0.000329  0.009358 -0.000394  0.003037
  4C   1s         0.018454  0.023602  0.097379 -0.109073  0.055125  0.089387
  4C   2s         0.002816 -0.044150 -0.185234  0.213025 -0.107634 -0.182139
  4C   1pz        0.000077  0.000001 -0.001740 -0.002699 -0.005807 -0.002804
  4C   1px       -0.000658 -0.016796 -0.021007  0.058902  0.092379  0.091237
  4C   1py        0.001155 -0.013073 -0.053838 -0.012307 -0.053009  0.010921
  4C   3s        -0.014694 -0.051663 -0.114370  0.161199 -0.090527 -0.125709
  4C   2pz       -0.000270  0.000261 -0.000308 -0.000930 -0.000823 -0.000644
  4C   2px       -0.001132 -0.012145  0.000839  0.008233  0.015969  0.049623
  4C   2py       -0.006713 -0.004013 -0.006291 -0.013258 -0.005332  0.024897
  4C   1dz2      -0.000622  0.002632  0.009132 -0.008356  0.004093  0.004227
  4C   1dxz      -0.000074  0.000179  0.000554 -0.000584  0.000227 -0.000026
  4C   1dyz       0.000109 -0.000146 -0.000788  0.000376 -0.000855 -0.000516
  4C   1dx2y2    -0.000432 -0.001022  0.000923  0.004581  0.007353  0.005404
  4C   1dxy      -0.001076 -0.000514  0.000270  0.002305  0.005063 -0.002066
  5C   1s        -0.000709  0.049651  0.076524 -0.114482 -0.072077 -0.074771
  5C   2s        -0.000123 -0.095147 -0.143854  0.222736  0.140291  0.150857
  5C   1pz        0.000011 -0.001132 -0.003409  0.001286  0.000502 -0.004130
  5C   1px       -0.000170 -0.018763  0.050851 -0.050239  0.062096  0.131479
  5C   1py        0.000098 -0.039078 -0.033735 -0.011594  0.059339  0.013714
  5C   3s         0.006732 -0.030290 -0.097591  0.167240  0.111103  0.119715
  5C   2pz        0.000228  0.001488 -0.000590 -0.000617 -0.000313 -0.003032
  5C   2px       -0.002266 -0.029216  0.012595  0.004265  0.010512  0.070156
  5C   2py        0.003155  0.009350 -0.003024 -0.009806  0.001535 -0.010753
  5C   1dz2       0.000047  0.005242  0.007141 -0.008744 -0.005102 -0.003836
  5C   1dxz      -0.000000  0.000141  0.000586 -0.000786  0.000078 -0.000071
  5C   1dyz      -0.000003 -0.000332 -0.000613  0.000558  0.000661  0.000614
  5C   1dx2y2     0.000015  0.000772 -0.000897  0.004388 -0.007529 -0.005878
  5C   1dxy      -0.000053 -0.003476  0.002211 -0.001599  0.002736 -0.000886
  6N   1s         0.000022  0.170383 -0.085738  0.000017  0.067628 -0.000003
  6N   2s         0.000228 -0.350090  0.181491 -0.000038 -0.145554  0.000003
  6N   1pz        0.000000 -0.001473 -0.000761 -0.001485  0.003728 -0.006445
  6N   1px       -0.000000  0.041819  0.021694  0.000671 -0.106085  0.003024
  6N   1py       -0.000000  0.000986  0.000512 -0.031499 -0.002492 -0.136624
  6N   3s        -0.002123 -0.395187  0.192722 -0.000010 -0.174180  0.000034
  6N   2pz       -0.000030 -0.001202 -0.000447 -0.000680  0.001688 -0.003573
  6N   2px        0.000849  0.034005  0.012848  0.000289 -0.048348  0.001665
  6N   2py        0.000020  0.000816  0.000291 -0.014400 -0.001129 -0.075818
  6N   1dz2       0.000022  0.018184 -0.007683 -0.000003  0.005175 -0.000003
  6N   1dxz       0.000002  0.001155 -0.000351  0.000074  0.000070  0.000046
  6N   1dyz      -0.000000 -0.001449  0.000805 -0.000053 -0.000778 -0.000032
  6N   1dx2y2    -0.000028 -0.000296 -0.003893 -0.000068  0.007523 -0.000045
  6N   1dxy      -0.000001 -0.000066 -0.000154  0.001544  0.000326  0.000960
  7H   1s         0.000046 -0.096713  0.061397 -0.011501 -0.074188 -0.058081
  7H   2s        -0.000084 -0.007206  0.005703 -0.003439 -0.014743 -0.022144
  8H   1s         0.000046 -0.096708  0.061394  0.011467 -0.074193  0.058100
  8H   2s        -0.000084 -0.007210  0.005699  0.003444 -0.014739  0.022162
  9H   1s         0.000107 -0.007109 -0.039650 -0.066187 -0.036692  0.095660
  9H   2s        -0.001240 -0.000420 -0.006124 -0.013461 -0.008935  0.032682
 10H   1s         0.000101 -0.019501 -0.027900 -0.070882  0.041968 -0.085672
 10H   2s         0.000726  0.004285 -0.002782 -0.015078  0.006235 -0.031143
 11H   1s         0.000107 -0.007109 -0.039653  0.066175 -0.036727 -0.095649
 11H   2s        -0.001240 -0.000426 -0.006121  0.013488 -0.008927 -0.032645
 12H   1s         0.001370 -0.005011 -0.040423 -0.000018 -0.079404 -0.000012
 12H   2s        -0.002605  0.002992 -0.007127 -0.000026 -0.016022 -0.000005
 13H   1s         0.000101 -0.019496 -0.027901  0.070893  0.041934  0.085690
 13H   2s         0.000726  0.004297 -0.002785  0.015045  0.006237  0.031150
                     12        13        14        15        16        17   
                  -0.58365  -0.51120  -0.49931  -0.46493  -0.41934  -0.41571
                   2.00000   2.00000   2.00000   2.00000   2.00000   2.00000
                  --------  --------  --------  --------  --------  --------
  0C   1s        -0.046720  0.019017  0.021552 -0.058743 -0.005998 -0.005029
  0C   2s         0.094437 -0.041393 -0.043964  0.119966  0.010052  0.012599
  0C   1pz        0.001254 -0.010872 -0.003536  0.001624  0.012670 -0.004115
  0C   1px        0.120042  0.087890  0.128988  0.010502 -0.092226 -0.138003
  0C   1py        0.120880 -0.165807  0.024556  0.043213  0.201346 -0.196629
  0C   3s         0.076653 -0.047944 -0.046646  0.149624 -0.003820  0.020582
  0C   2pz        0.001159 -0.004032 -0.001327  0.000265  0.004114 -0.000578
  0C   2px        0.028092  0.030022  0.032375  0.012142 -0.062576 -0.053455
  0C   2py        0.046961 -0.063977 -0.003464  0.015143  0.040116 -0.054166
  0C   1dz2      -0.002307  0.001620  0.001089 -0.001839 -0.001988  0.001056
  0C   1dxz      -0.000574  0.000084 -0.000011 -0.000422 -0.000805  0.000164
  0C   1dyz       0.000151 -0.000122 -0.000334  0.000841  0.000516 -0.000206
  0C   1dx2y2     0.004938  0.000070  0.004114 -0.006076  0.002379  0.000597
  0C   1dxy      -0.005354 -0.000355  0.001505 -0.011317 -0.012794  0.002559
  1C   1s        -0.048944  0.002407 -0.040881  0.052191  0.010293 -0.014558
  1C   2s         0.099191 -0.006676  0.083339 -0.103123 -0.019902  0.026113
  1C   1pz        0.009982 -0.005492  0.004444  0.000203 -0.009284 -0.014583
  1C   1px       -0.121423 -0.063572 -0.052535 -0.128087  0.030776  0.156633
  1C   1py        0.120545 -0.168242  0.054904 -0.095749 -0.176168 -0.192202
  1C   3s         0.071825 -0.016574  0.081916 -0.160586  0.001450  0.109261
  1C   2pz        0.002767 -0.001530  0.002475  0.000444 -0.000833 -0.007471
  1C   2px       -0.020205 -0.028356 -0.025525 -0.025038 -0.036442  0.090724
  1C   2py        0.043561 -0.055006  0.033054 -0.009897 -0.046161 -0.090201
  1C   1dz2      -0.002425  0.001050 -0.001443  0.003052  0.001355 -0.000464
  1C   1dxz      -0.000020  0.000248  0.000136 -0.000583 -0.000343 -0.000242
  1C   1dyz      -0.000229 -0.000006  0.000040 -0.000411  0.000626  0.000149
  1C   1dx2y2     0.004286 -0.002940 -0.001366  0.010330 -0.005330  0.000733
  1C   1dxy       0.006176  0.001614  0.003811 -0.008619 -0.013384 -0.003994
  2C   1s         0.094798 -0.002040 -0.000006  0.060060  0.034374  0.000035
  2C   2s        -0.191961  0.002672  0.000011 -0.121049 -0.071410 -0.000066
  2C   1pz       -0.002015 -0.005197 -0.006166 -0.007241  0.007793  0.012262
  2C   1px        0.057394  0.148052  0.002845  0.206235 -0.222348 -0.005905
  2C   1py        0.001333  0.003492 -0.130885  0.004857 -0.005473  0.260029
  2C   3s        -0.141027 -0.017912  0.000038 -0.140617 -0.124152 -0.000256
  2C   2pz       -0.001687 -0.001606 -0.002214 -0.002381  0.002505  0.003877
  2C   2px        0.047961  0.045284  0.001031  0.067334 -0.071020 -0.001924
  2C   2py        0.001151  0.000997 -0.046843  0.001564 -0.001642  0.081930
  2C   1dz2       0.004332  0.000818  0.000006  0.003106 -0.000930 -0.000022
  2C   1dxz       0.000459 -0.000078 -0.000113  0.000641 -0.000025  0.000384
  2C   1dyz      -0.000085 -0.000246  0.000080  0.000380  0.000121 -0.000272
  2C   1dx2y2    -0.005489  0.003761  0.000108 -0.013110 -0.000960 -0.000364
  2C   1dxy      -0.000264  0.000165 -0.002360 -0.000608 -0.000050  0.007996
  3C   1s         0.096303  0.006859  0.000003 -0.029560 -0.048879 -0.000050
  3C   2s        -0.205789 -0.019754  0.000010  0.062014  0.103764  0.000099
  3C   1pz        0.001860  0.008376 -0.003183 -0.005485  0.008697  0.013540
  3C   1px       -0.052859 -0.238392  0.001479  0.155903 -0.247904 -0.006528
  3C   1py       -0.001207 -0.005637 -0.067528  0.003639 -0.006120  0.287047
  3C   3s        -0.130539  0.002823 -0.000135  0.076570  0.183018  0.000315
  3C   2pz        0.000979  0.001928 -0.000053  0.001106  0.000478 -0.000362
  3C   2px       -0.028273 -0.054801  0.000092 -0.030893 -0.013779  0.000128
  3C   2py       -0.000756 -0.001253 -0.000635 -0.000649 -0.000290 -0.007697
  3C   1dz2       0.003439  0.001840  0.000049 -0.002428  0.001593  0.000038
  3C   1dxz       0.000308  0.000157 -0.000778 -0.000796  0.000338 -0.000631
  3C   1dyz      -0.000147 -0.000088  0.000552 -0.000712  0.000208  0.000449
  3C   1dx2y2    -0.002718 -0.001240  0.000740  0.018879 -0.006986  0.000593
  3C   1dxy      -0.000132 -0.000064 -0.016231  0.000862 -0.000307 -0.013167
  4C   1s        -0.046743  0.019021 -0.021546 -0.058744 -0.006032  0.005015
  4C   2s         0.094490 -0.041395  0.043947  0.119979  0.010123 -0.012576
  4C   1pz       -0.009869  0.004947  0.005565 -0.002427 -0.006483 -0.014123
  4C   1px        0.125188  0.080537 -0.129946  0.012396 -0.083314  0.146310
  4C   1py       -0.115117  0.169779  0.018447 -0.042665 -0.204953 -0.190331
  4C   3s         0.076629 -0.048081  0.046654  0.149516 -0.003651 -0.020508
  4C   2pz       -0.003204  0.002050  0.000935 -0.001122  0.000197 -0.004413
  4C   2px        0.030024  0.027216 -0.032174  0.012733 -0.060879  0.055646
  4C   2py       -0.045506  0.065164 -0.005027 -0.014609 -0.042767 -0.051493
  4C   1dz2      -0.002339  0.001623 -0.001097 -0.001898 -0.002061 -0.001076
  4C   1dxz      -0.000038  0.000117  0.000136  0.000636  0.000428  0.000080
  4C   1dyz      -0.000228 -0.000144  0.000244  0.000091 -0.000364  0.000032
  4C   1dx2y2     0.004426  0.000042 -0.004232 -0.007080  0.001215 -0.000827
  4C   1dxy       0.005793  0.000350  0.001129  0.010727  0.012961  0.002524
  5C   1s        -0.048919  0.002403  0.040871  0.052180  0.010243  0.014581
  5C   2s         0.099141 -0.006668 -0.083337 -0.103107 -0.019812 -0.026155
  5C   1pz       -0.001641  0.010224  0.000838  0.008946  0.007413 -0.003864
  5C   1px       -0.116059 -0.070868  0.050109 -0.132143  0.023032 -0.148018
  5C   1py       -0.126145  0.165104  0.057291  0.089654  0.178002 -0.199022
  5C   3s         0.071742 -0.016504 -0.081772 -0.160388  0.001807 -0.109329
  5C   2pz       -0.001398  0.003592  0.000727  0.001306  0.003472 -0.001231
  5C   2px       -0.018413 -0.030772  0.024135 -0.025491 -0.038414 -0.086776
  5C   2py       -0.044587  0.053772  0.034325  0.008846  0.044676 -0.094451
  5C   1dz2      -0.002389  0.001056  0.001418  0.002996  0.001279  0.000491
  5C   1dxz      -0.000593  0.000081  0.000235  0.000287  0.000913 -0.000143
  5C   1dyz       0.000177  0.000112 -0.000303 -0.001029 -0.000268  0.000124
  5C   1dx2y2     0.004832 -0.002783  0.001009  0.009509 -0.006509 -0.000378
  5C   1dxy      -0.005750 -0.001883  0.003913  0.009509  0.012851 -0.004022
  6N   1s        -0.025851 -0.006970  0.000004 -0.013556  0.012133  0.000012
  6N   2s         0.056038  0.013368 -0.000009  0.028980 -0.024600 -0.000030
  6N   1pz       -0.007311 -0.008778 -0.019769  0.008164 -0.006733 -0.008062
  6N   1px        0.207998  0.249691  0.009174 -0.232354  0.191692  0.003917
  6N   1py        0.004917  0.005854 -0.419063 -0.005520  0.004619 -0.170756
  6N   3s         0.080648  0.024815 -0.000023  0.086680 -0.085322 -0.000071
  6N   2pz       -0.003396 -0.004509 -0.010604  0.004637 -0.004640 -0.002758
  6N   2px        0.097219  0.128889  0.004964 -0.132666  0.132587  0.001422
  6N   2py        0.002296  0.003002 -0.225105 -0.003142  0.003139 -0.058559
  6N   1dz2      -0.002581 -0.002568  0.000046  0.001626 -0.001335  0.000048
  6N   1dxz       0.000142  0.000045 -0.000769 -0.000120  0.000009 -0.000844
  6N   1dyz       0.000638  0.000498  0.000546 -0.000446  0.000237  0.000600
  6N   1dx2y2    -0.008952 -0.006061  0.000727  0.006547 -0.002706  0.000797
  6N   1dxy      -0.000401 -0.000268 -0.016040  0.000294 -0.000106 -0.017617
  7H   1s         0.078734  0.077801 -0.207904 -0.064498  0.049581 -0.105594
  7H   2s         0.032884  0.037102 -0.111909 -0.047784  0.029636 -0.085916
  8H   1s         0.078721  0.077828  0.207893 -0.064453  0.049444  0.105680
  8H   2s         0.032870  0.037097  0.111890 -0.047741  0.029504  0.085950
  9H   1s         0.056609 -0.112286 -0.044820  0.080006  0.142539 -0.054067
  9H   2s         0.021992 -0.065604 -0.025520  0.049561  0.123747 -0.053053
 10H   1s         0.064102 -0.091691  0.047659 -0.139119 -0.098890 -0.048854
 10H   2s         0.029598 -0.055845  0.015283 -0.107587 -0.079965 -0.055391
 11H   1s         0.056640 -0.112290  0.044820  0.079998  0.142289  0.054350
 11H   2s         0.022018 -0.065644  0.025511  0.049521  0.123520  0.053352
 12H   1s        -0.102989 -0.071501  0.000015 -0.175268  0.095503  0.000090
 12H   2s        -0.036937 -0.045100  0.000012 -0.120215  0.092808  0.000076
 13H   1s         0.064077 -0.091698 -0.047628 -0.139130 -0.099152  0.048651
 13H   2s         0.029575 -0.055810 -0.015251 -0.107570 -0.080214  0.055173
                     18        19        20        21        22        23   
                  -0.40514  -0.36461  -0.34178  -0.33138  -0.29047  -0.23410
                   2.00000   2.00000   2.00000   2.00000   2.00000   2.00000
                  --------  --------  --------  --------  --------  --------
  0C   1s        -0.020736  0.000000 -0.007183 -0.006195  0.000001 -0.000001
  0C   2s         0.045363 -0.000033  0.011203  0.019306 -0.000018 -0.000039
  0C   1pz       -0.014700  0.158826  0.007075 -0.011021  0.211397  0.290439
  0C   1px        0.236895  0.005705 -0.255907 -0.013689  0.007633  0.010488
  0C   1py       -0.132092 -0.007336 -0.047117 -0.248479 -0.009786 -0.013443
  0C   3s         0.076650  0.000066  0.043314 -0.011405  0.000078  0.000121
  0C   2pz       -0.004308  0.084659  0.001367 -0.001774  0.143690  0.206506
  0C   2px        0.052485  0.003088 -0.076598 -0.030792  0.005297  0.007429
  0C   2py       -0.052705 -0.004019 -0.029759 -0.062496 -0.006729 -0.009713
  0C   1dz2       0.001642 -0.000749 -0.001405  0.002789 -0.000560 -0.000508
  0C   1dxz      -0.000137  0.005161  0.000289  0.000923 -0.002406  0.010169
  0C   1dyz      -0.000638 -0.005234  0.001030 -0.001135 -0.008821  0.001678
  0C   1dx2y2     0.009258 -0.000058 -0.016213  0.004347 -0.000497  0.000442
  0C   1dxy       0.002041 -0.000432 -0.004495  0.019478 -0.000209 -0.000411
  1C   1s        -0.014867  0.000003  0.014528  0.004013 -0.000000  0.000000
  1C   2s         0.034215 -0.000034 -0.035311 -0.014116 -0.000032 -0.000056
  1C   1pz        0.000991  0.205927 -0.008143  0.010994  0.041349  0.295886
  1C   1px       -0.234851  0.007511  0.247197 -0.025238  0.001518  0.010752
  1C   1py       -0.162467 -0.009543  0.017830  0.217351 -0.001920 -0.013723
  1C   3s         0.054964 -0.000000 -0.014174  0.008839  0.000041  0.000067
  1C   2pz        0.000198  0.123717 -0.005015  0.003392  0.018236  0.216676
  1C   2px       -0.069996  0.004475  0.089106 -0.032868  0.000766  0.007781
  1C   2py       -0.050669 -0.005673 -0.038386  0.047324 -0.000844 -0.009939
  1C   1dz2       0.002259 -0.000801 -0.001945 -0.002429  0.001010  0.000634
  1C   1dxz      -0.000329  0.000041  0.000369  0.000941 -0.012148 -0.009401
  1C   1dyz      -0.000546 -0.009887  0.000470 -0.000267  0.003061  0.000562
  1C   1dx2y2     0.009801 -0.000457 -0.009337 -0.005283 -0.000299 -0.000313
  1C   1dxy      -0.002517 -0.000363  0.003302  0.019422  0.000673  0.000457
  2C   1s         0.000025  0.000003 -0.005201  0.000001  0.000003  0.000004
  2C   2s        -0.000052  0.000000  0.019489  0.000005  0.000004  0.000003
  2C   1pz       -0.000721  0.140804 -0.010380  0.013029  0.272518  0.000007
  2C   1px        0.000237  0.005114  0.295122 -0.006029  0.009879  0.000004
  2C   1py       -0.015663 -0.006535  0.006927  0.276469 -0.012634 -0.000002
  2C   3s        -0.000160 -0.000127 -0.013333 -0.000089 -0.000168 -0.000160
  2C   2pz       -0.002586  0.081531 -0.002106  0.004846  0.170866 -0.000010
  2C   2px        0.001153  0.002899  0.059254 -0.002289  0.006080 -0.000068
  2C   2py       -0.054701 -0.003776  0.001344  0.102950 -0.007848 -0.000096
  2C   1dz2      -0.000030 -0.000425  0.003890 -0.000031 -0.000472  0.001484
  2C   1dxz       0.000494  0.006990  0.001086  0.000561  0.007764 -0.000366
  2C   1dyz      -0.000352  0.000176  0.000876 -0.000398  0.000195  0.018094
  2C   1dx2y2    -0.000471  0.000259 -0.024743 -0.000536  0.000287  0.000825
  2C   1dxy       0.010316 -0.000321 -0.001141  0.011711 -0.000352  0.000673
  3C   1s        -0.000032 -0.000006 -0.014731  0.000001  0.000001  0.000003
  3C   2s         0.000073  0.000026  0.036653  0.000005 -0.000022  0.000002
  3C   1pz       -0.000007  0.305785  0.003726 -0.012509 -0.173787  0.000003
  3C   1px       -0.000149  0.011082 -0.106327  0.005821 -0.006324  0.000003
  3C   1py       -0.000690 -0.014180 -0.002457 -0.265485  0.008059  0.000004
  3C   3s         0.000120  0.000148 -0.012264 -0.000042  0.000074 -0.000077
  3C   2pz       -0.001102  0.153956 -0.001891 -0.004114 -0.092443  0.000037
  3C   2px        0.000528  0.005576  0.053384  0.001923 -0.003478 -0.000035
  3C   2py       -0.023510 -0.007160  0.001276 -0.087483  0.004087  0.000102
  3C   1dz2       0.000025  0.000003  0.002641 -0.000031  0.001096  0.001626
  3C   1dxz      -0.000376 -0.000079  0.000800  0.000535 -0.017964 -0.000400
  3C   1dyz       0.000268 -0.000002  0.000682 -0.000380 -0.000453  0.019826
  3C   1dx2y2     0.000354 -0.000000 -0.018609 -0.000512 -0.000677  0.000902
  3C   1dxy      -0.007855  0.000005 -0.000853  0.011161  0.000825  0.000738
  4C   1s         0.020720 -0.000005 -0.007190  0.006194 -0.000003  0.000001
  4C   2s        -0.045337  0.000034  0.011222 -0.019305  0.000010 -0.000057
  4C   1pz        0.001737  0.158831  0.010954 -0.012365  0.211395 -0.290439
  4C   1px       -0.230989  0.005770 -0.257664  0.024485  0.007658 -0.010552
  4C   1py       -0.143368 -0.007356  0.035089 -0.247596 -0.009811  0.013471
  4C   3s        -0.076552  0.000074  0.043341  0.011452  0.000192  0.000115
  4C   2pz       -0.000722  0.084651  0.004043 -0.004038  0.143689 -0.206469
  4C   2px       -0.050169  0.003093 -0.077758  0.033466  0.005261 -0.007411
  4C   2py       -0.055055 -0.003848  0.026143 -0.060879 -0.006501  0.009548
  4C   1dz2      -0.001656  0.000131 -0.001425 -0.002901  0.000872  0.000735
  4C   1dxz       0.000293  0.004944  0.000649  0.000922 -0.002760 -0.010227
  4C   1dyz       0.000526  0.005488  0.000773 -0.000176  0.008690  0.001166
  4C   1dx2y2    -0.009407  0.000434 -0.016551 -0.006104  0.000304 -0.000317
  4C   1dxy       0.001220 -0.000029  0.003009  0.019016  0.000445  0.000518
  5C   1s         0.014889  0.000002  0.014531 -0.004013  0.000004 -0.000002
  5C   2s        -0.034275  0.000041 -0.035327  0.014120  0.000038 -0.000046
  5C   1pz       -0.015751  0.205938 -0.009273  0.009551  0.041344 -0.295892
  5C   1px        0.241754  0.007440  0.247662  0.015776  0.001497 -0.010689
  5C   1py       -0.150981 -0.009521 -0.006205  0.218277 -0.001910  0.013699
  5C   3s        -0.054972 -0.000147 -0.014194 -0.008840 -0.000326  0.000105
  5C   2pz       -0.004778  0.123736 -0.001185  0.001144  0.018229 -0.216731
  5C   2px        0.072189  0.004519  0.087420  0.030764  0.000695 -0.007778
  5C   2py       -0.047325 -0.005813  0.042500  0.048860 -0.001025  0.010095
  5C   1dz2      -0.002240  0.000822 -0.001922  0.002316  0.000467 -0.000511
  5C   1dxz       0.000048 -0.000359  0.000014  0.000940 -0.012011  0.009369
  5C   1dyz       0.000747  0.009880  0.000723 -0.001069 -0.003671  0.001034
  5C   1dx2y2    -0.009545  0.000444 -0.009001  0.003498 -0.000606  0.000385
  5C   1dxy      -0.003365  0.000376 -0.004129  0.019809  0.000424 -0.000398
  6N   1s         0.000010  0.000005  0.022095  0.000002 -0.000005 -0.000002
  6N   2s        -0.000018  0.000008 -0.048636  0.000002 -0.000011 -0.000009
  6N   1pz        0.004463  0.236611 -0.004679  0.001674 -0.374925  0.000019
  6N   1px       -0.001942  0.008563  0.132876 -0.000769 -0.013548  0.000006
  6N   1py        0.094409 -0.010980  0.003134  0.035436  0.017382  0.000001
  6N   3s        -0.000086 -0.000083 -0.136528 -0.000022  0.000133  0.000063
  6N   2pz        0.002232  0.168936 -0.003152  0.000426 -0.304484  0.000004
  6N   2px       -0.000944  0.006168  0.089925 -0.000205 -0.011092 -0.000031
[...]
 6 N  dxy             6.8       0.0       0.0       0.0       1.1       0.0
 7 H  s               2.4       0.1       2.2       0.0       0.6       0.1
 8 H  s               2.4       0.1       2.2       0.0       0.6       0.1
 9 H  s               0.6       0.4       0.0       0.0       0.1       0.0
10 H  s               0.1       0.1       0.2       0.0       0.2       0.0
11 H  s               0.6       0.4       0.0       0.0       0.1       0.0
12 H  s               0.0       1.0       0.1       0.0       0.0       0.0
13 H  s               0.1       0.1       0.2       0.0       0.2       0.0

                     96        97        98        99       100       101   
                   2.25947   2.31537   2.33028   2.39377   2.47206   2.50302
                   0.00000   0.00000   0.00000   0.00000   0.00000   0.00000
                  --------  --------  --------  --------  --------  --------
 0 C  s               0.2       0.0       0.0       0.5       0.0       0.3
 0 C  pz              0.0       0.4       0.3       0.0       0.1       0.0
 0 C  px              0.7       0.0       0.0       0.1       0.0       0.0
 0 C  py              0.6       0.0       0.0       0.4       0.0       0.1
 0 C  dz2             0.2       0.0       0.0       0.0       0.0       1.1
 0 C  dxz             0.0       2.7      22.9       0.0       0.5       0.0
 0 C  dyz             0.4       5.9       1.9       0.0       2.1       0.0
 0 C  dx2y2           0.0       0.0       0.1       0.6       0.0       3.0
 0 C  dxy             0.2       0.0       0.0       3.1       0.0       0.3
 1 C  s               1.3       0.0       0.0       1.2       0.0       2.6
 1 C  pz              0.0       0.4       0.3       0.0       0.4       0.0
 1 C  px              0.4       0.0       0.0       0.9       0.0       0.1
 1 C  py              0.5       0.0       0.0       0.6       0.0       0.3
 1 C  dz2             3.1       0.1       0.1       5.7       0.0       5.8
 1 C  dxz             0.0       3.7      22.7       0.0       0.2       0.0
 1 C  dyz             0.1       5.5       0.7       0.1       9.3       0.1
 1 C  dx2y2           0.3       0.0       0.0       5.8       0.0       4.6
 1 C  dxy             1.9       0.0       0.1       0.4       0.0       1.0
 2 C  s               0.6       0.0       0.0       0.0       0.0       1.4
 2 C  pz              0.0       0.0       0.4       0.0       0.1       0.0
 2 C  px              0.6       0.0       0.0       0.0       0.0       0.3
 2 C  py              0.0       0.0       0.0       0.8       0.0       0.0
 2 C  dz2             5.4       0.2       0.0       0.0       0.0       4.4
 2 C  dxz             0.6       0.0       0.9       0.0       1.9       0.0
 2 C  dyz             0.1      29.9       0.0       0.0       0.0       0.0
 2 C  dx2y2           3.7       0.1       0.0       0.0       0.0       2.7
 2 C  dxy             0.0       0.0       0.0       2.9       0.0       0.0
 3 C  s               2.0       0.0       0.0       0.0       0.0       3.2
 3 C  pz              0.0       0.0       0.3       0.0       0.0       0.0
 3 C  px              0.2       0.0       0.0       0.0       0.0       6.6
 3 C  py              0.0       0.0       0.0       3.3       0.0       0.0
 3 C  dz2             6.5       0.2       0.0       0.0       0.2       3.7
 3 C  dxz             0.0       0.0       0.1       0.0      47.5       0.0
 3 C  dyz             0.1      30.2       0.0       0.0       0.0       0.0
 3 C  dx2y2           0.4       0.1       0.0       0.0       0.1       0.4
 3 C  dxy             0.0       0.0       0.0       0.5       0.1       0.0
 4 C  s               0.2       0.0       0.0       0.5       0.0       0.3
 4 C  pz              0.0       0.4       0.3       0.0       0.1       0.0
 4 C  px              0.7       0.0       0.0       0.1       0.0       0.0
 4 C  py              0.5       0.0       0.0       0.4       0.0       0.1
 4 C  dz2             0.3       0.1       0.2       0.0       0.0       1.1
 4 C  dxz             0.0       3.0      23.4       0.0       0.4       0.0
 4 C  dyz             0.3       5.5       1.3       0.0       2.3       0.0
 4 C  dx2y2           0.0       0.0       0.0       0.8       0.0       2.8
 4 C  dxy             0.2       0.0       0.1       2.9       0.0       0.4
 5 C  s               1.3       0.0       0.0       1.2       0.0       2.6
 5 C  pz              0.0       0.4       0.3       0.0       0.4       0.0
 5 C  px              0.3       0.0       0.0       0.8       0.0       0.1
 5 C  py              0.5       0.0       0.0       0.6       0.0       0.3
 5 C  dz2             3.2       0.0       0.0       5.7       0.1       5.7
 5 C  dxz             0.0       3.4      22.3       0.0       0.3       0.0
 5 C  dyz             0.0       6.0       1.1       0.1       9.1       0.1
 5 C  dx2y2           0.2       0.0       0.0       6.1       0.0       4.2
 5 C  dxy             1.9       0.0       0.0       0.2       0.0       1.4
 6 N  s               3.1       0.0       0.0       0.0       0.0       8.9
 6 N  pz              0.0       0.0       0.0       0.0       0.8       0.0
 6 N  px              1.2       0.0       0.0       0.0       0.0       4.3
 6 N  py              0.0       0.0       0.0       4.7       0.0       0.0
 6 N  dz2            24.3       0.0       0.0       0.0       0.1       7.3
 6 N  dxz             0.3       0.0       0.1       0.1      23.6       0.1
 6 N  dyz             0.4       1.6       0.0       0.1       0.0       0.0
 6 N  dx2y2          20.2       0.0       0.0       0.1       0.0      14.5
 6 N  dxy             0.0       0.0       0.0      33.7       0.0       0.0
 7 H  s               5.3       0.0       0.0       6.2       0.0       0.1
 8 H  s               5.3       0.0       0.0       6.2       0.0       0.1
 9 H  s               0.0       0.0       0.0       0.4       0.0       0.1
10 H  s               0.0       0.0       0.0       0.8       0.0       1.1
11 H  s               0.0       0.0       0.0       0.4       0.0       0.1
12 H  s               0.1       0.0       0.0       0.0       0.0       1.0
13 H  s               0.0       0.0       0.0       0.8       0.0       1.1

                    102       103       104       105       106       107   
                   2.60344   2.60932   2.66879   2.73502   2.75202   2.75757
                   0.00000   0.00000   0.00000   0.00000   0.00000   0.00000
                  --------  --------  --------  --------  --------  --------
 0 C  s               5.1       2.2       0.0       0.8       0.4       0.6
 0 C  px              0.4       0.3       0.0       2.6       1.1       1.2
 0 C  py              0.8       0.9       0.0       0.3       0.2       0.3
 0 C  dz2            11.0       6.0       0.0       1.0       0.6       2.1
 0 C  dxz             0.1       0.0      12.8       0.0       0.0       0.0
 0 C  dyz             0.1       0.0       4.5       0.0       0.1       0.0
 0 C  dx2y2           0.2       0.0       0.0       0.2      17.2       6.0
 0 C  dxy             2.9       0.0       0.0       9.2       0.2       8.4
 1 C  s               3.5       0.1       0.0       1.7       0.6       3.8
 1 C  px              0.6       0.9       0.0       0.6       2.4       0.6
 1 C  py              0.1       0.4       0.0       0.3       0.4       0.6
 1 C  dz2             9.3       0.2       0.1       2.9       1.3       4.8
 1 C  dxz             0.0       0.0      12.8       0.0       0.0       0.1
 1 C  dyz             0.0       0.0       3.3       0.0       0.1       0.1
 1 C  dx2y2           0.7       0.0       0.0      10.4       5.5       2.6
 1 C  dxy             6.3       3.9       0.1       0.6       4.2      12.3
 2 C  s               0.0       6.3       0.0       0.9       3.8       0.0
 2 C  px              0.0       0.9       0.0       0.4       1.0       0.0
 2 C  py              0.8       0.0       0.0       0.0       0.0       1.2
 2 C  dz2             0.0      19.8       0.1       0.0       3.6       0.0
 2 C  dyz             0.0       0.2      17.1       0.0       0.0       0.0
 2 C  dx2y2           0.0       0.4       0.0      17.5       7.5       0.0
 2 C  dxy            10.1       0.0       0.0       0.0       0.0       4.2
 3 C  s               0.0       6.6       0.0       0.6       3.4       0.0
 3 C  px              0.0       0.4       0.0       0.1       2.6       0.0
 3 C  py              0.2       0.0       0.0       0.0       0.0       3.8
 3 C  dz2             0.0      14.0       0.1       1.4       3.6       0.0
 3 C  dyz             0.0       0.1      14.9       0.1       0.1       0.0
 3 C  dx2y2           0.0       0.3       0.0      10.9       2.3       0.0
 3 C  dxy             0.3       0.0       0.0       0.0       0.0       1.4
 4 C  s               5.1       2.2       0.0       0.8       0.4       0.6
 4 C  px              0.3       0.3       0.0       2.7       1.2       1.3
 4 C  py              0.8       0.8       0.0       0.2       0.1       0.2
 4 C  dz2            11.0       6.1       0.2       1.1       0.6       2.1
 4 C  dxz             0.0       0.0      13.4       0.0       0.0       0.1
 4 C  dyz             0.1       0.0       3.7       0.0       0.1       0.0
 4 C  dx2y2           0.3       0.0       0.0       0.0      16.7       7.3
 4 C  dxy             2.8       0.0       0.1       9.4       0.7       7.1
 5 C  s               3.5       0.1       0.0       1.7       0.6       3.8
 5 C  px              0.6       0.8       0.0       0.6       2.3       0.7
 5 C  py              0.1       0.5       0.0       0.3       0.5       0.6
 5 C  dz2             9.2       0.2       0.0       2.9       1.3       4.9
 5 C  dxz             0.1       0.0      12.3       0.1       0.0       0.0
 5 C  dyz             0.1       0.0       3.9       0.0       0.0       0.0
 5 C  dx2y2           1.1       0.1       0.0      10.8       6.3       1.6
 5 C  dxy             5.8       3.9       0.0       0.2       3.4      13.3
 6 N  s               0.0       4.4       0.0       0.1       0.4       0.0
 6 N  px              0.0       1.1       0.0       0.4       0.5       0.0
 6 N  dz2             0.0       8.8       0.0       0.2       0.0       0.0
 6 N  dyz             0.0       0.0       0.5       0.0       0.0       0.0
 6 N  dx2y2           0.0       4.8       0.0       2.4       0.9       0.0
 6 N  dxy             1.2       0.0       0.0       0.0       0.0       0.0
 7 H  s               0.2       0.3       0.0       0.1       0.0       0.0
 8 H  s               0.2       0.3       0.0       0.1       0.0       0.0
 9 H  s               1.3       0.2       0.0       0.8       0.3       0.7
10 H  s               1.2       0.2       0.0       0.0       0.0       0.4
11 H  s               1.3       0.2       0.0       0.8       0.3       0.7
12 H  s               0.0       0.4       0.0       1.4       1.2       0.0
13 H  s               1.2       0.2       0.0       0.0       0.0       0.4

                    108       109       110       111   
                   2.86602   2.89542   3.13298   3.42700
                   0.00000   0.00000   0.00000   0.00000
                  --------  --------  --------  --------
 0 C  s               1.0       3.5       0.1       1.6
 0 C  px              0.9       0.2       1.6       0.0
 0 C  py              1.6       0.2       0.4       0.1
 0 C  dz2             0.3       4.7       0.0       1.1
 0 C  dx2y2           6.8       0.8       4.8       3.0
 0 C  dxy             8.1       0.0       0.9      10.1
 1 C  s               0.9       2.8       0.1       1.6
 1 C  px              0.2       0.7       1.9       0.0
 1 C  py              0.5       0.1       1.3       0.1
 1 C  dz2             0.1       4.2       0.0       1.1
 1 C  dx2y2           0.6       0.6       9.8       4.2
 1 C  dxy             1.9       1.7       2.8       8.7
 2 C  s               0.0       2.0       0.0       1.7
 2 C  px              0.0       0.2       0.0       0.1
 2 C  py              6.0       0.0       1.3       0.0
 2 C  dz2             0.0       3.2       0.0       1.1
 2 C  dx2y2           0.0       1.2       0.0      12.9
 2 C  dxy            22.5       0.0       4.8       0.0
 3 C  s               0.0       6.8       0.0       0.8
 3 C  px              0.0       1.3       0.0       0.4
 3 C  py              0.1       0.0       2.2       0.0
 3 C  dz2             0.0       9.3       0.0       0.7
 3 C  dxz             0.0       0.1       0.1       0.0
 3 C  dx2y2           0.0      16.1       0.1      14.3
 3 C  dxy            12.1       0.0      30.8       0.0
 4 C  s               1.0       3.5       0.1       1.6
 4 C  px              1.0       0.2       1.6       0.0
 4 C  py              1.5       0.3       0.3       0.1
 4 C  dz2             0.3       4.7       0.0       1.1
 4 C  dx2y2           5.5       0.8       4.4       4.1
 4 C  dxy             9.4       0.1       1.3       9.0
 5 C  s               0.9       2.8       0.1       1.6
 5 C  px              0.2       0.7       1.8       0.0
 5 C  py              0.4       0.0       1.4       0.1
 5 C  dz2             0.1       4.1       0.0       1.1
 5 C  dx2y2           0.4       0.4      10.7       3.2
 5 C  dxy             2.1       1.8       1.9       9.8
 6 N  s               0.0       3.6       0.0       0.2
 6 N  px              0.0       3.1       0.0       0.5
 6 N  py              0.3       0.0       0.1       0.0
 6 N  dz2             0.0       3.8       0.0       0.0
 6 N  dx2y2           0.0       9.0       0.0       0.8
 6 N  dxy            10.6       0.0      11.1       0.0
 7 H  s               1.1       0.0       0.9       0.0
 8 H  s               1.1       0.0       0.9       0.0
 9 H  s               0.1       0.1       0.0       0.6
10 H  s               0.2       0.4       0.0       0.5
11 H  s               0.1       0.1       0.0       0.6
12 H  s               0.0       0.0       0.0       0.6
13 H  s               0.2       0.4       0.0       0.5


                      *****************************
                      * MAYER POPULATION ANALYSIS *
                      *****************************

  NA   - Mulliken gross atomic population
  ZA   - Total nuclear charge
  QA   - Mulliken gross atomic charge
  VA   - Mayer's total valence
  BVA  - Mayer's bonded valence
  FA   - Mayer's free valence

  ATOM       NA         ZA         QA         VA         BVA        FA
  0 C      6.1315     6.0000    -0.1315     3.9817     3.9817    -0.0000
  1 C      6.1861     6.0000    -0.1861     3.9118     3.9118    -0.0000
  2 C      6.1413     6.0000    -0.1413     3.9331     3.9331     0.0000
  3 C      5.6328     6.0000     0.3672     3.9050     3.9050    -0.0000
  4 C      6.1313     6.0000    -0.1313     3.9819     3.9819     0.0000
  5 C      6.1868     6.0000    -0.1868     3.9124     3.9124    -0.0000
  6 N      7.8210     7.0000    -0.8210     2.8256     2.8256     0.0000
  7 H      0.6698     1.0000     0.3302     0.8604     0.8604     0.0000
  8 H      0.6697     1.0000     0.3303     0.8603     0.8603     0.0000
  9 H      0.8802     1.0000     0.1198     0.9385     0.9385    -0.0000
 10 H      0.8924     1.0000     0.1076     0.9408     0.9408    -0.0000
 11 H      0.8804     1.0000     0.1196     0.9385     0.9385    -0.0000
 12 H      0.8847     1.0000     0.1153     0.9401     0.9401    -0.0000
 13 H      0.8921     1.0000     0.1079     0.9407     0.9407    -0.0000

  Mayer bond orders larger than 0.1
B(  0-C ,  1-C ) :   1.4725 B(  0-C ,  2-C ) :   1.4414 B(  0-C ,  9-H ) :   0.9304 
B(  1-C ,  3-C ) :   1.3787 B(  1-C , 10-H ) :   0.9257 B(  2-C ,  4-C ) :   1.4413 
B(  2-C , 12-H ) :   0.9319 B(  3-C ,  5-C ) :   1.3790 B(  3-C ,  6-N ) :   1.0063 
B(  4-C ,  5-C ) :   1.4728 B(  4-C , 11-H ) :   0.9304 B(  5-C , 13-H ) :   0.9256 
B(  6-N ,  7-H ) :   0.8454 B(  6-N ,  8-H ) :   0.8454 

-------
TIMINGS
-------

Total SCF time: 0 days 0 hours 0 min 16 sec 

Total time                  ....      16.019 sec
Sum of individual times     ....      15.306 sec  ( 95.6%)

Fock matrix formation       ....      13.093 sec  ( 81.7%)
  XC integration            ....       2.226 sec  ( 17.0% of F)
    Basis function eval.    ....       0.835 sec  ( 37.5% of XC)
    Density eval.           ....       0.564 sec  ( 25.3% of XC)
    XC-Functional eval.     ....       0.175 sec  (  7.9% of XC)
    XC-Potential eval.      ....       0.535 sec  ( 24.0% of XC)
Diagonalization             ....       0.003 sec  (  0.0%)
Density matrix formation    ....       0.001 sec  (  0.0%)
Population analysis         ....       0.031 sec  (  0.2%)
Initial guess               ....       0.004 sec  (  0.0%)
Orbital Transformation      ....       0.000 sec  (  0.0%)
Orbital Orthonormalization  ....       0.001 sec  (  0.0%)
DIIS solution               ....       0.001 sec  (  0.0%)
SOSCF solution              ....       0.009 sec  (  0.1%)
Grid generation             ....       2.164 sec  ( 13.5%)

-------------------------   --------------------
FINAL SINGLE POINT ENERGY      -287.409814288565
-------------------------   --------------------

                                *** OPTIMIZATION RUN DONE ***

                            ***************************************
                            *     ORCA property calculations      *
                            ***************************************

                                    ---------------------
                                    Active property flags
                                    ---------------------
   (+) Dipole Moment


------------------------------------------------------------------------------
                       ORCA ELECTRIC PROPERTIES CALCULATION
------------------------------------------------------------------------------

Dipole Moment Calculation                       ... on
Quadrupole Moment Calculation                   ... off
Polarizability Calculation                      ... off
GBWName                                         ... /Users/lailaal-madhagi/Desktop/Testing_XAS_Analysis_code/Aniline//Results_dir_Aniline_geom_element_C_2019-11-04_19-38-59//GTE1_Aniline_geom_2019-11-04_19-39-56//opt.gbw
Electron density file                           ... /Users/lailaal-madhagi/Desktop/Testing_XAS_Analysis_code/Aniline//Results_dir_Aniline_geom_element_C_2019-11-04_19-38-59//GTE1_Aniline_geom_2019-11-04_19-39-56//opt.scfp.tmp
The origin for moment calculation is the CENTER OF MASS  = (-2.590001, -0.323597 -0.081031)

-------------
DIPOLE MOMENT
-------------
                                X             Y             Z
Electronic contribution:     -0.06835      -0.00152       0.00335
Nuclear contribution   :      0.84356       0.01991      -0.03387
                        -----------------------------------------
Total Dipole Moment    :      0.77521       0.01839      -0.03052
                        -----------------------------------------
Magnitude (a.u.)       :      0.77603
Magnitude (Debye)      :      1.97251



--------------------
Rotational spectrum 
--------------------
 
Rotational constants in cm-1:     0.187156     0.086357     0.059091 
Rotational constants in MHz :  5610.782247  2588.906673  1771.505353 

 Dipole components along the rotational axes: 
x,y,z [a.u.] :    -0.776021    -0.000033    -0.003476 
x,y,z [Debye]:    -1.972488    -0.000084    -0.008834 

 

Timings for individual modules:

Sum of individual times         ...      209.544 sec (=   3.492 min)
GTO integral calculation        ...        4.044 sec (=   0.067 min)   1.9 %
SCF iterations                  ...      130.026 sec (=   2.167 min)  62.1 %
SCF Gradient evaluation         ...       73.717 sec (=   1.229 min)  35.2 %
Geometry relaxation             ...        1.756 sec (=   0.029 min)   0.8 %
                             ****ORCA TERMINATED NORMALLY****
TOTAL RUN TIME: 0 days 0 hours 3 minutes 30 seconds 711 msec
