
                                 *****************
                                 * O   R   C   A *
                                 *****************

           --- An Ab Initio, DFT and Semiempirical electronic structure package ---

                  #######################################################
                  #                        -***-                        #
                  #  Department of molecular theory and spectroscopy    #
                  #              Directorship: Frank Neese              #
                  # Max Planck Institute for Chemical Energy Conversion #
                  #                  D-45470 Muelheim/Ruhr              #
                  #                       Germany                       #
                  #                                                     #
                  #                  All rights reserved                #
                  #                        -***-                        #
                  #######################################################


                         Program Version 4.0.1.2 - RELEASE -


 With contributions from (in alphabetic order):
   Daniel Aravena         : Magnetic Properties
   Michael Atanasov       : Ab Initio Ligand Field Theory
   Ute Becker             : Parallelization
   Martin Brehm           : Molecular dynamics
   Dmytro Bykov           : SCF Hessian
   Vijay G. Chilkuri      : MRCI spin determinant printing
   Dipayan Datta          : RHF DLPNO-CCSD density
   Achintya Kumar Dutta   : EOM-CC, STEOM-CC
   Dmitry Ganyushin       : Spin-Orbit,Spin-Spin,Magnetic field MRCI
   Yang Guo               : DLPNO-NEVPT2, CIM, IAO-localization
   Andreas Hansen         : Spin unrestricted coupled pair/coupled cluster methods
   Lee Huntington         : MR-EOM, pCC
   Robert Izsak           : Overlap fitted RIJCOSX, COSX-SCS-MP3, EOM
   Christian Kollmar      : KDIIS, OOCD, Brueckner-CCSD(T), CCSD density
   Simone Kossmann        : Meta GGA functionals, TD-DFT gradient, OOMP2, MP2 Hessian
   Martin Krupicka        : AUTO-CI
   Dagmar Lenk            : GEPOL surface
   Dimitrios Liakos       : Extrapolation schemes; parallel MDCI
   Dimitrios Manganas     : ROCIS; embedding schemes
   Dimitrios Pantazis     : SARC Basis sets
   Taras Petrenko         : DFT Hessian,TD-DFT gradient, ASA, ECA, R-Raman, ABS, FL, XAS/XES, NRVS
   Peter Pinski           : DLPNO-MP2
   Christoph Reimann      : Effective Core Potentials
   Marius Retegan         : Local ZFS, SOC
   Christoph Riplinger    : Optimizer, TS searches, QM/MM, DLPNO-CCSD(T), (RO)-DLPNO pert. Triples
   Tobias Risthaus        : Range-separated hybrids, TD-DFT gradient, RPA, STAB
   Michael Roemelt        : Restricted open shell CIS
   Masaaki Saitow         : Open-shell DLPNO
   Barbara Sandhoefer     : DKH picture change effects
   Kantharuban Sivalingam : CASSCF convergence, NEVPT2, FIC-MRCI
   Georgi Stoychev        : AutoAux
   Boris Wezisla          : Elementary symmetry handling
   Frank Wennmohs         : Technical directorship


 We gratefully acknowledge several colleagues who have allowed us to
 interface, adapt or use parts of their codes:
   Stefan Grimme, W. Hujo, H. Kruse,             : VdW corrections, initial TS optimization,
                  C. Bannwarth                     DFT functionals, gCP, sTDA/sTD-DF
   Ed Valeev                                     : LibInt (2-el integral package), F12 methods
   Garnet Chan, S. Sharma, J. Yang, R. Olivares  : DMRG
   Ulf Ekstrom                                   : XCFun DFT Library
   Mihaly Kallay                                 : mrcc  (arbitrary order and MRCC methods)
   Andreas Klamt, Michael Diedenhofen            : otool_cosmo (COSMO solvation model)
   Jiri Pittner, Ondrej Demel                    : Mk-CCSD
   Frank Weinhold                                : gennbo (NPA and NBO analysis)
   Christopher J. Cramer and Donald G. Truhlar   : smd solvation model


 Your calculation uses the libint2 library for the computation of 2-el integrals
 For citations please refer to: http://libint.valeyev.net

 This ORCA versions uses:
   CBLAS   interface :  Fast vector & matrix operations
   LAPACKE interface :  Fast linear algebra routines




*****************************************
The coordinations will be read from file: C:\Users\dmg81179\Desktop\Code_Development\2018-March-28_ORCA_code\working_dir\Opt.xyz
*****************************************


Your calculation utilizes the atom-pairwise dispersion correction
with the Becke-Johnson damping scheme (D3BJ)
Cite in your paper:
S.Grimme, S.Ehrlich, L.Goerigk, J Comput Chem, (2011), 32, 1456–1465 
S.Grimme, J.Antony, S.Ehrlich and H.Krieg, J.Chem.Phys., 132, (2010), 154104 
   

Your calculation utilizes the basis: 6-31G*
   H-He, Li-Ne : W. J. Hehre, R. Ditchfield and J.A. Pople, J. Chem. Phys. 56, 2257 (1972).
                 Note: He and Ne are unpublished basis sets taken from the Gaussian program.
                 Note: Li and B from J. D. Dill and J. A. Pople, J. Chem. Phys. 62, 2921 (1975).
   Na - Ar     : M. M. Francl, W. J. Pietro, W. J. Hehre, J. S. Binkley, M. S. Gordon, 
                 D. J. DeFrees and J. A. Pople, J. Chem. Phys. 77, 3654 (1982).
   K - Zn      : V. A. Rassolov, J. A. Pople, M. A. Ratner, and T. L. Windus, J. Chem. Phys. 109, 1223 (1998).

================================================================================
                                        WARNINGS
                       Please study these warnings very carefully!
================================================================================

Warning: TCutStore was < 0. Adjusted to Thresh (uncritical)
INFO   : Checking CIS options ...

WARNING: CIS/ROCIS methods need fully converged wavefunctions
  ===> : Setting SCFConvForced true
         You can overwrite this default with %scf ConvForced false 


INFO   : the flag for use of LIBINT has been found!

================================================================================
                                       INPUT FILE
================================================================================
NAME = C:\Users\dmg81179\Desktop\Code_Development\2018-March-28_ORCA_code\working_dir\tddft.inp
|  1> ! B3LYP 6-31G* D3 TIGHTSCF Grid3 FinalGrid5 
|  2>  
|  3> !NormalPrint 
|  4> %output 
|  5> Print[P_Basis] 2 
|  6> Print[P_MOS] 1 
|  7> end 
|  8> 
|  9> %tddft 
| 10> orbwin[0]=0,1,-1,-1 
| 11> nroots=20 
| 12> maxdim=200 
| 13> end 
| 14> *xyzfile 0 1 C:\Users\dmg81179\Desktop\Code_Development\2018-March-28_ORCA_code\working_dir\Opt.xyz                           ****END OF INPUT****
================================================================================

                       ****************************
                       * Single Point Calculation *
                       ****************************

---------------------------------
CARTESIAN COORDINATES (ANGSTROEM)
---------------------------------
  C    -11.833355    8.425581   -0.107950
  C    -10.471566    8.274252   -0.020103
  N    -12.335004    7.138828   -0.156084
  C    -11.266934    6.285511   -0.095669
  N    -10.127490    6.938171   -0.012908
  H    -13.308452    6.880100   -0.222909
  H    -12.475109    9.293081   -0.140215
  H     -9.717858    9.047880    0.038815
  H    -11.384462    5.210105   -0.115807

----------------------------
CARTESIAN COORDINATES (A.U.)
----------------------------
  NO LB      ZA    FRAG     MASS         X           Y           Z
   0 C     6.0000    0    12.011  -22.361799   15.922041   -0.203996
   1 C     6.0000    0    12.011  -19.788392   15.636070   -0.037988
   2 N     7.0000    0    14.007  -23.309780   13.490430   -0.294956
   3 C     6.0000    0    12.011  -21.291419   11.877895   -0.180789
   4 N     7.0000    0    14.007  -19.138183   13.111243   -0.024393
   5 H     1.0000    0     1.008  -25.149329   13.001505   -0.421238
   6 H     1.0000    0     1.008  -23.574539   17.561378   -0.264969
   7 H     1.0000    0     1.008  -18.364091   17.098015    0.073350
   8 H     1.0000    0     1.008  -21.513515    9.845672   -0.218843

--------------------------------
INTERNAL COORDINATES (ANGSTROEM)
--------------------------------
 C      0   0   0     0.000000000000     0.00000000     0.00000000
 C      1   0   0     1.372984251911     0.00000000     0.00000000
 N      1   2   0     1.381919718115   105.04923188     0.00000000
 C      3   1   2     1.368420677171   107.20331432     0.00000000
 N      4   3   1     1.315729954202   111.67814693     0.00000000
 H      3   1   2     1.009458266793   126.22934997   179.98026789
 H      1   2   3     1.079558146693   132.85097424   180.01600242
 H      2   1   3     1.081687355171   128.00736172   180.01500438
 H      4   3   1     1.081996458354   122.28814015   179.98741065

---------------------------
INTERNAL COORDINATES (A.U.)
---------------------------
 C      0   0   0     0.000000000000     0.00000000     0.00000000
 C      1   0   0     2.594564222298     0.00000000     0.00000000
 N      1   2   0     2.611449806303   105.04923188     0.00000000
 C      3   1   2     2.585940315848   107.20331432     0.00000000
 N      4   3   1     2.486369279638   111.67814693     0.00000000
 H      3   1   2     1.907599667862   126.22934997   179.98026789
 H      1   2   3     2.040069242894   132.85097424   180.01600242
 H      2   1   3     2.044092863799   128.00736172   180.01500438
 H      4   3   1     2.044676984161   122.28814015   179.98741065

---------------------
BASIS SET INFORMATION
---------------------
There are 3 groups of distinct atoms

 Group   1 Type C   : 10s4p1d contracted to 3s2p1d pattern {631/31/1}
 Group   2 Type N   : 10s4p1d contracted to 3s2p1d pattern {631/31/1}
 Group   3 Type H   : 4s contracted to 2s pattern {31}

Atom   0C    basis set group =>   1
Atom   1C    basis set group =>   1
Atom   2N    basis set group =>   2
Atom   3C    basis set group =>   1
Atom   4N    basis set group =>   2
Atom   5H    basis set group =>   3
Atom   6H    basis set group =>   3
Atom   7H    basis set group =>   3
Atom   8H    basis set group =>   3

-------------------------
BASIS SET IN INPUT FORMAT
-------------------------

 # Basis set for element : H 
 NewGTO H 
 S 3 
   1      18.7311370000      0.0334945995
   2       2.8253937000      0.2347269467
   3       0.6401217000      0.8137573184
 S 1 
   1       0.1612778000      1.0000000000
  end;

 # Basis set for element : C 
 NewGTO C 
 S 6 
   1    3047.5249000000      0.0018347002
   2     457.3695100000      0.0140373012
   3     103.9486900000      0.0688426061
   4      29.2101550000      0.2321844206
   5       9.2866630000      0.4679413416
   6       3.1639270000      0.3623120322
 S 3 
   1       7.8682724000     -0.1193324086
   2       1.8812885000     -0.1608542116
   3       0.5442493000      1.1434564826
 P 3 
   1       7.8682724000      0.0689990956
   2       1.8812885000      0.3164239798
   3       0.5442493000      0.7443082524
 S 1 
   1       0.1687144000      1.0000000000
 P 1 
   1       0.1687144000      1.0000000000
 D 1 
   1       0.8000000000      1.0000000000
  end;

 # Basis set for element : N 
 NewGTO N 
 S 6 
   1    4173.5110000000      0.0018347994
   2     627.4579000000      0.0139949958
   3     142.9021000000      0.0685869792
   4      40.2343300000      0.2322409295
   5      12.8202100000      0.4690698576
   6       4.3904370000      0.3604548906
 S 3 
   1      11.6263580000     -0.1149610229
   2       2.7162800000     -0.1691180337
   3       0.7722180000      1.1458522281
 P 3 
   1      11.6263580000      0.0675800232
   2       2.7162800000      0.3239071114
   3       0.7722180000      0.7408952549
 S 1 
   1       0.2120313000      1.0000000000
 P 1 
   1       0.2120313000      1.0000000000
 D 1 
   1       0.8000000000      1.0000000000
  end;

------------------------------------------------------------------------------
                           ORCA GTO INTEGRAL CALCULATION
------------------------------------------------------------------------------

                         BASIS SET STATISTICS AND STARTUP INFO

 # of primitive gaussian shells          ...   91
 # of primitive gaussian functions       ...  151
 # of contracted shells                  ...   38
 # of contracted basis functions         ...   78
 Highest angular momentum                ...    2
 Maximum contraction depth               ...    6
 Integral package used                   ... LIBINT
 Integral threshhold            Thresh   ... 2.500e-011
 Primitive cut-off              TCut     ... 2.500e-012


------------------------------ INTEGRAL EVALUATION ----------------------------


 * One electron integrals 
 Pre-screening matrix                    ... done
 Shell pair data                         ... done (   0.001 sec)

Timings:
 Total evaluation time               ...     0.006 sec (   0.000 min)
 One electron matrix time            ...     0.014 sec (   0.000 min) =233.3%
 Schwartz matrix evaluation time     ...     0.130 sec (   0.002 min) =2166.7%

-------------------------------------------------------------------------------
                                 ORCA SCF
-------------------------------------------------------------------------------

------------
SCF SETTINGS
------------
Hamiltonian:
 Density Functional     Method          .... DFT(GTOs)
 Exchange Functional    Exchange        .... B88
   X-Alpha parameter    XAlpha          ....  0.666667
   Becke's b parameter  XBeta           ....  0.004200
 Correlation Functional Correlation     .... LYP
 LDA part of GGA corr.  LDAOpt          .... VWN-5
 Gradients option       PostSCFGGA      .... off
 Hybrid DFT is turned on
   Fraction HF Exchange ScalHFX         ....  0.200000
   Scaling of DF-GGA-X  ScalDFX         ....  0.720000
   Scaling of DF-GGA-C  ScalDFC         ....  0.810000
   Scaling of DF-LDA-C  ScalLDAC        ....  1.000000
   Perturbative correction              ....  0.000000
   NL short-range parameter             ....  4.800000


General Settings:
 Integral files         IntName         .... C:\Users\dmg81179\Desktop\Code_Development\2018-March-28_ORCA_code\working_dir\tddft
 Hartree-Fock type      HFTyp           .... RHF
 Total Charge           Charge          ....    0
 Multiplicity           Mult            ....    1
 Number of Electrons    NEL             ....   36
 Basis Dimension        Dim             ....   78
 Nuclear Repulsion      ENuc            ....    162.8939370694 Eh

Convergence Acceleration:
 DIIS                   CNVDIIS         .... on
   Start iteration      DIISMaxIt       ....    12
   Startup error        DIISStart       ....  0.200000
   # of expansion vecs  DIISMaxEq       ....     5
   Bias factor          DIISBfac        ....   1.050
   Max. coefficient     DIISMaxC        ....  10.000
 Newton-Raphson         CNVNR           .... off
 SOSCF                  CNVSOSCF        .... on
   Start iteration      SOSCFMaxIt      ....   150
   Startup grad/error   SOSCFStart      ....  0.003300
 Level Shifting         CNVShift        .... on
   Level shift para.    LevelShift      ....    0.2500
   Turn off err/grad.   ShiftErr        ....    0.0010
 Zerner damping         CNVZerner       .... off
 Static damping         CNVDamp         .... on
   Fraction old density DampFac         ....    0.7000
   Max. Damping (<1)    DampMax         ....    0.9800
   Min. Damping (>=0)   DampMin         ....    0.0000
   Turn off err/grad.   DampErr         ....    0.1000
 Fernandez-Rico         CNVRico         .... off

SCF Procedure:
 Maximum # iterations   MaxIter         ....   125
 SCF integral mode      SCFMode         .... Direct
   Integral package                     .... LIBINT
 Reset frequeny         DirectResetFreq ....    20
 Integral Threshold     Thresh          .... 2.500e-011 Eh
 Primitive CutOff       TCut            .... 2.500e-012 Eh

Convergence Tolerance:
 Convergence Check Mode ConvCheckMode   .... Total+1el-Energy
 Convergence forced     ConvForced      .... 1
 Energy Change          TolE            .... 1.000e-008 Eh
 1-El. energy change                    .... 1.000e-005 Eh
 Orbital Gradient       TolG            .... 1.000e-005
 Orbital Rotation angle TolX            .... 1.000e-005
 DIIS Error             TolErr          .... 5.000e-007


Diagonalization of the overlap matrix:
Smallest eigenvalue                        ... 2.106e-003
Time for diagonalization                   ...    0.002 sec
Threshold for overlap eigenvalues          ... 1.000e-008
Number of eigenvalues below threshold      ... 0
Time for construction of square roots      ...    0.003 sec
Total time needed                          ...    0.005 sec

-------------------
DFT GRID GENERATION
-------------------

General Integration Accuracy     IntAcc      ...  4.340
Radial Grid Type                 RadialGrid  ... Gauss-Chebyshev
Angular Grid (max. acc.)         AngularGrid ... Lebedev-194
Angular grid pruning method      GridPruning ... 3 (G Style)
Weight generation scheme         WeightScheme... Becke
Basis function cutoff            BFCut       ...   1.0000e-011
Integration weight cutoff        WCut        ...   1.0000e-014
Grids for H and He will be reduced by one unit

# of grid points (after initial pruning)     ...  22610 (   0.0 sec)
# of grid points (after weights+screening)   ...  21442 (   0.0 sec)
nearest neighbour list constructed           ...    0.0 sec
Grid point re-assignment to atoms done       ...    0.0 sec
Grid point division into batches done        ...    0.1 sec
Reduced shell lists constructed in    0.2 sec

Total number of grid points                  ...    21442
Total number of batches                      ...      341
Average number of points per batch           ...       62
Average number of grid points per atom       ...     2382
Average number of shells per batch           ...    30.32 (79.78%)
Average number of basis functions per batch  ...    64.74 (83.00%)
Average number of large shells per batch     ...    26.09 (86.06%)
Average number of large basis fcns per batch ...    56.17 (86.76%)
Maximum spatial batch extension              ...  19.35, 18.97, 21.54 au
Average spatial batch extension              ...   3.31,  3.23,  3.89 au

Time for grid setup =    0.259 sec

------------------------------
INITIAL GUESS: MODEL POTENTIAL
------------------------------
Loading Hartree-Fock densities                     ... done
Calculating cut-offs                               ... done
Setting up the integral package                    ... done
Initializing the effective Hamiltonian             ... done
Starting the Coulomb interaction                   ... done (   0.0 sec)
Reading the grid                                   ... done
Mapping shells                                     ... done
Starting the XC term evaluation                    ... done (   0.2 sec)
  promolecular density results
     # of electrons  =     35.998612311
     EX              =    -29.766820578
     EC              =     -1.217792366
     EX+EC           =    -30.984612944
Transforming the Hamiltonian                       ... done (   0.0 sec)
Diagonalizing the Hamiltonian                      ... done (   0.0 sec)
Back transforming the eigenvectors                 ... done (   0.0 sec)
Now organizing SCF variables                       ... done
                      ------------------
                      INITIAL GUESS DONE (   0.7 sec)
                      ------------------
--------------
SCF ITERATIONS
--------------
               ***  Starting incremental Fock matrix formation  ***

                         ----------------------------
                         !        ITERATION     0   !
                         ----------------------------
   Total Energy        :    -225.934403417506 Eh
   Energy Change       :    -225.934403417506 Eh
   MAX-DP              :       0.084420846704
   RMS-DP              :       0.003757642000
   Actual Damping      :       0.7000
   Actual Level Shift  :       0.2500 Eh
   Int. Num. El.       :    35.99996205 (UP=   17.99998102 DN=   17.99998102)
   Exchange            :   -24.37520290
   Correlation         :    -1.45504273


                         ----------------------------
                         !        ITERATION     1   !
                         ----------------------------
   Total Energy        :    -226.001127656984 Eh
   Energy Change       :      -0.066724239478 Eh
   MAX-DP              :       0.055697653534
   RMS-DP              :       0.002668177251
   Actual Damping      :       0.7000
   Actual Level Shift  :       0.2500 Eh
   Int. Num. El.       :    35.99996830 (UP=   17.99998415 DN=   17.99998415)
   Exchange            :   -24.20039528
   Correlation         :    -1.44810011

                               ***Turning on DIIS***

                         ----------------------------
                         !        ITERATION     2   !
                         ----------------------------
   Total Energy        :    -226.026942986519 Eh
   Energy Change       :      -0.025815329536 Eh
   MAX-DP              :       0.076523410216
   RMS-DP              :       0.004131895440
   Actual Damping      :       0.0000
   Actual Level Shift  :       0.2500 Eh
   Int. Num. El.       :    35.99997927 (UP=   17.99998964 DN=   17.99998964)
   Exchange            :   -24.08565006
   Correlation         :    -1.44329106
   DIIS-Error          :       0.037332476845


                         ----------------------------
                         !        ITERATION     3   !
                         ----------------------------
   Total Energy        :    -226.066091036119 Eh
   Energy Change       :      -0.039148049599 Eh
   MAX-DP              :       0.037874355656
   RMS-DP              :       0.001926001218
   Actual Damping      :       0.0000
   Actual Level Shift  :       0.2500 Eh
   Int. Num. El.       :    36.00001733 (UP=   18.00000866 DN=   18.00000866)
   Exchange            :   -23.91697716
   Correlation         :    -1.43582095
   DIIS-Error          :       0.049908318021
   DIIS coefficients:
      0.59678   0.40322


                         ----------------------------
                         !        ITERATION     4   !
                         ----------------------------
   Total Energy        :    -226.075883910412 Eh
   Energy Change       :      -0.009792874293 Eh
   MAX-DP              :       0.009085106470
   RMS-DP              :       0.000586491740
   Actual Damping      :       0.0000
   Actual Level Shift  :       0.2500 Eh
   Int. Num. El.       :    36.00001882 (UP=   18.00000941 DN=   18.00000941)
   Exchange            :   -23.98708266
   Correlation         :    -1.43890447
   DIIS-Error          :       0.012950324069
   DIIS coefficients:
      0.23785   0.04817   0.71398


                         ----------------------------
                         !        ITERATION     5   !
                         ----------------------------
   Total Energy        :    -226.076501208162 Eh
   Energy Change       :      -0.000617297750 Eh
   MAX-DP              :       0.002746415642
   RMS-DP              :       0.000184671118
   Actual Damping      :       0.0000
   Actual Level Shift  :       0.2500 Eh
   Int. Num. El.       :    36.00001230 (UP=   18.00000615 DN=   18.00000615)
   Exchange            :   -24.00337545
   Correlation         :    -1.43973775
   DIIS-Error          :       0.003527688860
   DIIS coefficients:
      0.06848  -0.00893   0.21623   0.72423

                      *** Initiating the SOSCF procedure ***
                           *** Shutting down DIIS ***
                      *** Re-Reading the Fockian *** 
                      *** Removing any level shift *** 

                         ----------------------------
                         !        ITERATION     6   !
                         ----------------------------
   Total Energy        :    -226.076544378054 Eh
   Energy Change       :      -0.000043169892 Eh
   MAX-DP              :       0.002078312895
   RMS-DP              :       0.000093299282
   Orbital gradient    :       0.000437536193
   Orbital Rotation    :       0.000437536193
   Actual Damping      :       0.0000
   Int. Num. El.       :    36.00001256 (UP=   18.00000628 DN=   18.00000628)
   Exchange            :   -24.00666686
   Correlation         :    -1.43986542

               *** Restarting incremental Fock matrix formation ***

                         ----------------------------
                         !        ITERATION     7   !
                         ----------------------------
   Total Energy        :    -226.076546157196 Eh
   Energy Change       :      -0.000001779142 Eh
   MAX-DP              :       0.001196220166
   RMS-DP              :       0.000039333920
   Orbital gradient    :       0.000311930340
   Orbital Rotation    :       0.000682978810
   Actual Damping      :       0.0000
   Int. Num. El.       :    36.00001284 (UP=   18.00000642 DN=   18.00000642)
   Exchange            :   -24.00743863
   Correlation         :    -1.43989007


                         ----------------------------
                         !        ITERATION     8   !
                         ----------------------------
   Total Energy        :    -226.076544883335 Eh
   Energy Change       :       0.000001273861 Eh
   MAX-DP              :       0.000697841373
   RMS-DP              :       0.000023839148
   Orbital gradient    :       0.000488812119
   Orbital Rotation    :       0.000420132234
   Actual Damping      :       0.0000
   Int. Num. El.       :    36.00001298 (UP=   18.00000649 DN=   18.00000649)
   Exchange            :   -24.00663712
   Correlation         :    -1.43986856


                         ----------------------------
                         !        ITERATION     9   !
                         ----------------------------
   Total Energy        :    -226.076547135314 Eh
   Energy Change       :      -0.000002251979 Eh
   MAX-DP              :       0.000092829324
   RMS-DP              :       0.000003129292
   Orbital gradient    :       0.000019517972
   Orbital Rotation    :       0.000072696733
   Actual Damping      :       0.0000
   Int. Num. El.       :    36.00001297 (UP=   18.00000649 DN=   18.00000649)
   Exchange            :   -24.00713910
   Correlation         :    -1.43988267


                         ----------------------------
                         !        ITERATION    10   !
                         ----------------------------
   Total Energy        :    -226.076547129556 Eh
   Energy Change       :       0.000000005758 Eh
   MAX-DP              :       0.000060389676
   RMS-DP              :       0.000001850288
   Orbital gradient    :       0.000032726635
   Orbital Rotation    :       0.000047105191
   Actual Damping      :       0.0000
   Int. Num. El.       :    36.00001298 (UP=   18.00000649 DN=   18.00000649)
   Exchange            :   -24.00711751
   Correlation         :    -1.43988141

                  ***Gradient check signals convergence***
              ***Rediagonalizing the Fockian in SOSCF/NRSCF***

               *****************************************************
               *                     SUCCESS                       *
               *           SCF CONVERGED AFTER  11 CYCLES          *
               *****************************************************

Setting up the final grid:

General Integration Accuracy     IntAcc      ...  5.010
Radial Grid Type                 RadialGrid  ... Gauss-Chebyshev
Angular Grid (max. acc.)         AngularGrid ... Lebedev-434
Angular grid pruning method      GridPruning ... 3 (G Style)
Weight generation scheme         WeightScheme... Becke
Basis function cutoff            BFCut       ...   1.0000e-011
Integration weight cutoff        WCut        ...   1.0000e-014
Grids for H and He will be reduced by one unit

# of grid points (after initial pruning)     ...  80042 (   0.0 sec)
# of grid points (after weights+screening)   ...  75374 (   0.1 sec)
nearest neighbour list constructed           ...    0.0 sec
Grid point re-assignment to atoms done       ...    0.0 sec
Grid point division into batches done        ...    0.7 sec
Reduced shell lists constructed in    1.3 sec

Total number of grid points                  ...    75374
Total number of batches                      ...     1182
Average number of points per batch           ...       63
Average number of grid points per atom       ...     8375
Average number of shells per batch           ...    28.23 (74.29%)
Average number of basis functions per batch  ...    60.31 (77.32%)
Average number of large shells per batch     ...    23.81 (84.32%)
Average number of large basis fcns per batch ...    51.19 (84.87%)
Maximum spatial batch extension              ...  20.82, 17.68, 19.91 au
Average spatial batch extension              ...   2.28,  2.24,  2.48 au

Final grid set up in    1.5 sec
Final integration                            ... done (   1.0 sec)
Change in XC energy                          ...    -0.000080769
Integrated number of electrons               ...    35.999996379
Previous integrated no of electrons          ...    36.000012972

----------------
TOTAL SCF ENERGY
----------------

Total Energy       :         -226.07662791 Eh           -6151.85780 eV

Components:
Nuclear Repulsion  :          162.89393707 Eh            4432.56938 eV
Electronic Energy  :         -388.97056498 Eh          -10584.42717 eV
One Electron Energy:         -627.53909382 Eh          -17076.20688 eV
Two Electron Energy:          238.56852885 Eh            6491.77971 eV

Virial components:
Potential Energy   :         -450.79590142 Eh          -12266.78011 eV
Kinetic Energy     :          224.71927351 Eh            6114.92231 eV
Virial Ratio       :            2.00604022


DFT components:
N(Alpha)           :       17.999998189270 electrons
N(Beta)            :       17.999998189270 electrons
N(Total)           :       35.999996378539 electrons
E(X)               :      -24.007200067767 Eh       
E(C)               :       -1.439886513497 Eh       
E(XC)              :      -25.447086581264 Eh       

---------------
SCF CONVERGENCE
---------------

  Last Energy change         ...  -9.8450e-009  Tolerance :  1.0000e-008
  Last MAX-Density change    ...   9.3204e-006  Tolerance :  1.0000e-007
  Last RMS-Density change    ...   3.5817e-007  Tolerance :  5.0000e-009
  Last Orbital Gradient      ...   2.0537e-006  Tolerance :  1.0000e-005
  Last Orbital Rotation      ...   4.6940e-006  Tolerance :  1.0000e-005

             **** THE GBW FILE WAS UPDATED (C:\Users\dmg81179\Desktop\Code_Development\2018-March-28_ORCA_code\working_dir\tddft.gbw) ****
             **** DENSITY FILE WAS UPDATED (C:\Users\dmg81179\Desktop\Code_Development\2018-March-28_ORCA_code\working_dir\tddft.scfp.tmp) ****
             **** ENERGY FILE WAS UPDATED (C:\Users\dmg81179\Desktop\Code_Development\2018-March-28_ORCA_code\working_dir\tddft.en.tmp) ****
----------------
ORBITAL ENERGIES
----------------

  NO   OCC          E(Eh)            E(eV) 
   0   2.0000     -14.381432      -391.3387 
   1   2.0000     -14.300114      -389.1259 
   2   2.0000     -10.226127      -278.2671 
   3   2.0000     -10.202769      -277.6315 
   4   2.0000     -10.183223      -277.0996 
   5   2.0000      -1.003730       -27.3129 
   6   2.0000      -0.860461       -23.4143 
   7   2.0000      -0.734089       -19.9756 
   8   2.0000      -0.608935       -16.5700 
   9   2.0000      -0.581141       -15.8136 
  10   2.0000      -0.554802       -15.0969 
  11   2.0000      -0.432938       -11.7808 
  12   2.0000      -0.430880       -11.7248 
  13   2.0000      -0.420142       -11.4326 
  14   2.0000      -0.398805       -10.8520 
  15   2.0000      -0.272608        -7.4181 
  16   2.0000      -0.258140        -7.0244 
  17   2.0000      -0.221516        -6.0278 
  18   0.0000       0.036530         0.9940 
  19   0.0000       0.075940         2.0664 
  20   0.0000       0.078656         2.1403 
  21   0.0000       0.137259         3.7350 
  22   0.0000       0.153835         4.1861 
  23   0.0000       0.173670         4.7258 
  24   0.0000       0.225449         6.1348 
  25   0.0000       0.245346         6.6762 
  26   0.0000       0.313741         8.5373 
  27   0.0000       0.353461         9.6182 
  28   0.0000       0.460645        12.5348 
  29   0.0000       0.528425        14.3792 
  30   0.0000       0.544724        14.8227 
  31   0.0000       0.565782        15.3957 
  32   0.0000       0.591428        16.0936 
  33   0.0000       0.617213        16.7952 
  34   0.0000       0.638745        17.3811 
  35   0.0000       0.646901        17.6031 
  36   0.0000       0.661089        17.9891 
  37   0.0000       0.676739        18.4150 
  38   0.0000       0.761894        20.7322 
  39   0.0000       0.807434        21.9714 
  40   0.0000       0.830911        22.6102 
  41   0.0000       0.835311        22.7300 
  42   0.0000       0.845512        23.0076 
  43   0.0000       0.870667        23.6921 
  44   0.0000       0.909371        24.7452 
  45   0.0000       0.924650        25.1610 
  46   0.0000       1.001512        27.2525 
  47   0.0000       1.038717        28.2649 
  48   0.0000       1.190176        32.3863 
  49   0.0000       1.260741        34.3065 
  50   0.0000       1.313190        35.7337 
  51   0.0000       1.331305        36.2266 
  52   0.0000       1.370032        37.2805 
  53   0.0000       1.393441        37.9175 
  54   0.0000       1.483674        40.3728 
  55   0.0000       1.559185        42.4276 
  56   0.0000       1.559265        42.4297 
  57   0.0000       1.572280        42.7839 
  58   0.0000       1.757146        47.8144 
  59   0.0000       1.883917        51.2640 
  60   0.0000       1.991083        54.1801 
  61   0.0000       2.032142        55.2974 
  62   0.0000       2.080457        56.6121 
  63   0.0000       2.109769        57.4097 
  64   0.0000       2.212187        60.1967 
  65   0.0000       2.249093        61.2009 
  66   0.0000       2.284957        62.1768 
  67   0.0000       2.297776        62.5257 
  68   0.0000       2.334371        63.5215 
  69   0.0000       2.415544        65.7303 
  70   0.0000       2.566795        69.8460 
  71   0.0000       2.597019        70.6685 
  72   0.0000       2.613653        71.1211 
  73   0.0000       2.698243        73.4229 
  74   0.0000       2.741981        74.6131 
  75   0.0000       2.955599        80.4259 
  76   0.0000       3.000426        81.6457 
  77   0.0000       3.059153        83.2438 
------------------
MOLECULAR ORBITALS
------------------
                      0         1         2         3         4         5   
                 -14.38143 -14.30011 -10.22613 -10.20277 -10.18322  -1.00373
                   2.00000   2.00000   2.00000   2.00000   2.00000   2.00000
                  --------  --------  --------  --------  --------  --------
  0C   1s        -0.000038  0.000063 -0.000001  0.994909 -0.014355 -0.076525
  0C   2s         0.000816  0.000333 -0.000339  0.035634 -0.002116  0.145749
  0C   1pz       -0.000003 -0.000027 -0.000028 -0.000022 -0.000105 -0.000682
  0C   1px       -0.000031 -0.000391 -0.000376 -0.000006 -0.001583  0.006126
  0C   1py       -0.000092 -0.000148 -0.000229 -0.001828 -0.000094 -0.092302
  0C   3s        -0.013385 -0.006996  0.002803 -0.019311  0.009629  0.029271
  0C   2pz       -0.000082 -0.000145  0.000115 -0.000160  0.000236 -0.000465
  0C   2px       -0.002689 -0.003067  0.002308 -0.002298  0.003671 -0.010766
  0C   2py        0.008139  0.004876 -0.003212 -0.000790 -0.000488  0.020289
  0C   1dz2      -0.000156  0.000042 -0.000253 -0.000986  0.000691 -0.010422
  0C   1dxz      -0.000011 -0.000013  0.000016  0.000100 -0.000150  0.000740
  0C   1dyz       0.000051  0.000003  0.000002  0.000022  0.000019  0.000399
  0C   1dx2y2    -0.000544 -0.000133 -0.000184 -0.000189 -0.001124 -0.007155
  0C   1dxy       0.000627  0.000040 -0.000081 -0.000013  0.000302  0.001564
  1C   1s        -0.000047  0.000056 -0.000047  0.014287  0.994932 -0.060898
  1C   2s        -0.000287 -0.000718 -0.000327 -0.001037  0.035799  0.112217
  1C   1pz       -0.000021 -0.000006  0.000019  0.000095 -0.000060 -0.003146
  1C   1px       -0.000360 -0.000116  0.000335  0.001520 -0.000676 -0.037028
  1C   1py        0.000255  0.000103 -0.000238 -0.000396 -0.001297 -0.061255
  1C   3s         0.007006  0.014525  0.000332  0.006563 -0.021928  0.061402
  1C   2pz       -0.000262 -0.000339 -0.000105 -0.000160  0.000258 -0.000985
  1C   2px       -0.003396 -0.003690 -0.001189 -0.002649  0.003994 -0.014140
  1C   2py       -0.003280 -0.008281 -0.002225  0.001212 -0.000348 -0.004476
  1C   1dz2       0.000006  0.000188 -0.000217  0.000640 -0.000936 -0.008813
  1C   1dxz       0.000006  0.000033  0.000015 -0.000142  0.000102  0.000823
  1C   1dyz      -0.000015  0.000026  0.000015  0.000010  0.000009  0.000414
  1C   1dx2y2     0.000141  0.000718 -0.000166 -0.001071 -0.000052 -0.003365
  1C   1dxy      -0.000194  0.000576  0.000138  0.000160 -0.000162  0.002995
  2N   1s        -0.995282  0.000111  0.000133  0.000135  0.000048 -0.148339
  2N   2s        -0.033270 -0.000249  0.000521  0.000455  0.000487  0.304923
  2N   1pz       -0.000053 -0.000009 -0.000021 -0.000015  0.000008  0.004407
  2N   1px       -0.000772 -0.000186 -0.000450 -0.000114  0.000117  0.065065
  2N   1py       -0.000183  0.000252  0.000752 -0.000675  0.000042  0.008685
  2N   3s         0.029756 -0.000190 -0.004276 -0.003618 -0.005106  0.318263
  2N   2pz        0.000519 -0.000051 -0.000398 -0.000324 -0.000195  0.003108
  2N   2px        0.007446 -0.000951 -0.005894 -0.004590 -0.002977  0.045577
  2N   2py        0.002360  0.001006 -0.000905 -0.001907  0.000115  0.009100
  2N   1dz2      -0.000029 -0.000184  0.001150  0.001144 -0.000013 -0.014212
  2N   1dxz      -0.000001  0.000019 -0.000136 -0.000076  0.000009  0.002066
  2N   1dyz       0.000004  0.000023  0.000071 -0.000097  0.000011  0.000368
  2N   1dx2y2    -0.000074 -0.000081 -0.000306  0.001007  0.000082  0.006293
  2N   1dxy       0.000036  0.000278  0.001381 -0.000939  0.000181  0.002318
  3C   1s        -0.000076  0.000149  0.994950 -0.000172 -0.000128 -0.100313
  3C   2s         0.000628 -0.000678  0.035211 -0.000500 -0.000585  0.194501
  3C   1pz       -0.000004 -0.000032  0.000004 -0.000001 -0.000008  0.000154
  3C   1px       -0.000073 -0.000444 -0.000262 -0.000014 -0.000119 -0.015906
  3C   1py        0.000087 -0.000238  0.001802 -0.000005 -0.000003  0.102603
  3C   3s        -0.010658  0.011674 -0.010926  0.006548  0.006197  0.028670
  3C   2pz        0.000045  0.000308  0.000098  0.000183  0.000084 -0.000804
  3C   2px        0.001829  0.003508  0.000803  0.001573  0.000111 -0.005658
  3C   2py       -0.006525  0.006608  0.003928  0.006819  0.006588 -0.037710
  3C   1dz2      -0.000215  0.000433 -0.001291 -0.000370 -0.000351 -0.013278
  3C   1dxz       0.000035 -0.000109  0.000163  0.000033  0.000031  0.001406
  3C   1dyz      -0.000055 -0.000063  0.000026  0.000011  0.000005  0.000095
  3C   1dx2y2     0.000303 -0.000721  0.000220 -0.000141 -0.000132 -0.001227
  3C   1dxy      -0.000841 -0.000946  0.000037  0.000020 -0.000055 -0.002887
  4N   1s         0.000122  0.995362  0.000054  0.000043  0.000125 -0.086193
  4N   2s         0.000197  0.033441  0.000296  0.000405  0.000490  0.172328
  4N   1pz       -0.000017 -0.000166  0.000073  0.000003  0.000007 -0.005676
  4N   1px       -0.000226 -0.002661  0.000996  0.000055  0.000233 -0.089814
  4N   1py       -0.000198  0.000827  0.000662 -0.000024 -0.000722  0.021354
  4N   3s         0.000971 -0.031560 -0.004770 -0.005232 -0.003824  0.169871
  4N   2pz       -0.000074  0.000544  0.000221  0.000160  0.000133 -0.002720
  4N   2px       -0.000984  0.008975  0.003444  0.002341  0.002271 -0.042990
  4N   2py       -0.000757 -0.004127 -0.000589  0.000466 -0.001438  0.009853
  4N   1dz2       0.000162  0.000116  0.001094 -0.000040  0.001126 -0.007800
  4N   1dxz      -0.000003 -0.000014 -0.000187  0.000001 -0.000052  0.001188
  4N   1dyz       0.000005  0.000030 -0.000074 -0.000007  0.000012  0.000031
  4N   1dx2y2     0.000207 -0.000091 -0.000769 -0.000027  0.001034  0.004598
  4N   1dxy       0.000157  0.000468 -0.000926 -0.000116  0.000708 -0.001113
  5H   1s         0.000979 -0.000214 -0.000770 -0.000617 -0.000208  0.067905
  5H   2s        -0.001581  0.000054 -0.001517 -0.001303 -0.000552  0.004813
  6H   1s         0.000047 -0.000267  0.000190 -0.001534 -0.000207  0.018068
  6H   2s        -0.002097 -0.001734  0.001640  0.004339 -0.000084 -0.009683
  7H   1s         0.000238 -0.000093  0.000158 -0.000317 -0.001501  0.012585
  7H   2s         0.001157  0.002138  0.001183 -0.000248  0.003681  0.001261
  8H   1s         0.000114 -0.000079 -0.001420  0.000287  0.000269  0.023830
  8H   2s        -0.001563  0.001734  0.005492  0.002563  0.002411 -0.014741
                      6         7         8         9        10        11   
                  -0.86046  -0.73409  -0.60893  -0.58114  -0.55480  -0.43294
                   2.00000   2.00000   2.00000   2.00000   2.00000   2.00000
                  --------  --------  --------  --------  --------  --------
  0C   1s        -0.030509 -0.141361  0.069025 -0.044243  0.062494  0.017461
  0C   2s         0.062069  0.282300 -0.138168  0.095628 -0.125018 -0.027861
  0C   1pz       -0.005772  0.003640 -0.002531 -0.015028 -0.000245 -0.016254
  0C   1px       -0.078203  0.057941 -0.042897 -0.219765  0.038516 -0.204106
  0C   1py       -0.052883 -0.013423  0.022873 -0.046199 -0.238754 -0.237280
  0C   3s         0.013575  0.183262 -0.122057  0.041330 -0.134133 -0.049009
  0C   2pz       -0.000657  0.000035 -0.000752 -0.004799  0.001268 -0.005082
  0C   2px       -0.013530 -0.003686 -0.010554 -0.075507  0.031297 -0.065631
  0C   2py        0.020036  0.022684 -0.005253  0.014154 -0.066462 -0.065143
  0C   1dz2      -0.003730 -0.010613  0.004747 -0.004542  0.001446 -0.002250
  0C   1dxz      -0.000031  0.001438  0.000147 -0.000002 -0.000841 -0.000326
  0C   1dyz       0.000790 -0.000150  0.000454  0.000450  0.000494  0.001390
  0C   1dx2y2    -0.008603  0.004180  0.008677 -0.008627 -0.011196 -0.012123
  0C   1dxy       0.009330 -0.004815  0.009942  0.003934  0.005849  0.018137
  1C   1s         0.073922 -0.112002 -0.048032  0.114479  0.019838 -0.009790
  1C   2s        -0.143883  0.220559  0.099708 -0.232461 -0.037877  0.019081
  1C   1pz       -0.000708 -0.005376  0.010316 -0.003180 -0.001548  0.017460
  1C   1px       -0.028258 -0.087486  0.169565 -0.030490  0.004529  0.263734
  1C   1py        0.100047  0.031102 -0.075180 -0.096987 -0.156569  0.007401
  1C   3s        -0.051972  0.170756  0.096226 -0.177276 -0.057768  0.058233
  1C   2pz       -0.000609 -0.000873  0.002138 -0.002892 -0.000161  0.005448
  1C   2px       -0.006587 -0.014177  0.034019 -0.036163  0.005455  0.086330
  1C   2py       -0.015320  0.007244 -0.008384 -0.046000 -0.047974 -0.017016
  1C   1dz2       0.008758 -0.008030 -0.004323  0.005223 -0.000555 -0.002024
  1C   1dxz      -0.000099  0.001554 -0.000269 -0.000993 -0.000234  0.000254
  1C   1dyz      -0.000258  0.000145 -0.000082 -0.000531  0.000256  0.000437
  1C   1dx2y2     0.013492  0.009314 -0.010830 -0.004624 -0.004981 -0.000823
  1C   1dxy       0.001150  0.001312 -0.004488 -0.007171  0.002918  0.005808
  2N   1s        -0.128580  0.026151 -0.042349  0.000841 -0.031323 -0.013041
  2N   2s         0.276694 -0.059822  0.092095 -0.001794  0.075182  0.040251
  2N   1pz       -0.003625  0.002847 -0.023772 -0.003688  0.014858  0.010920
  2N   1px       -0.057573  0.007173 -0.354103 -0.105651  0.215500  0.113483
  2N   1py        0.011939  0.204381 -0.044334  0.279100  0.059714  0.304250
  2N   3s         0.292267 -0.056280  0.128075  0.003231  0.089106  0.019621
  2N   2pz       -0.001704  0.001825 -0.011002 -0.001690  0.006511  0.003524
  2N   2px       -0.027187  0.012536 -0.162950 -0.048863  0.094391  0.026340
  2N   2py        0.007619  0.086387 -0.023001  0.132688  0.024810  0.158608
  2N   1dz2      -0.008065  0.000664 -0.003691 -0.000427  0.001871  0.003603
  2N   1dxz       0.001060 -0.000383  0.001247 -0.000031  0.000167 -0.001538
  2N   1dyz       0.000461  0.000740  0.000393  0.000221  0.000066 -0.000193
  2N   1dx2y2     0.001339 -0.006478  0.011423 -0.001683  0.005271 -0.016196
  2N   1dxy       0.004756  0.010268  0.006849  0.002884  0.002484 -0.004717
  3C   1s         0.038804  0.113257  0.088084  0.029079  0.064528 -0.012448
  3C   2s        -0.076105 -0.232605 -0.182899 -0.059912 -0.130468  0.019634
  3C   1pz       -0.011597  0.000896  0.002633  0.017484 -0.002508 -0.005884
  3C   1px       -0.170092  0.012657  0.041627  0.259097 -0.082296 -0.045589
  3C   1py       -0.033136  0.006531 -0.009311  0.035225  0.252543 -0.243981
  3C   3s        -0.036620 -0.152840 -0.149081 -0.022046 -0.151947  0.088023
  3C   2pz       -0.000558  0.000624  0.000740  0.004469  0.000683 -0.001595
  3C   2px       -0.008593  0.006206  0.009427  0.063001 -0.002656 -0.015292
  3C   2py        0.000557  0.018411  0.008732  0.025875  0.074367 -0.047974
  3C   1dz2       0.004027  0.008701  0.006015  0.002369  0.001608 -0.001274
  3C   1dxz      -0.000649 -0.001412  0.000238  0.000207 -0.000388 -0.001201
  3C   1dyz      -0.001541 -0.000100  0.000270  0.000795 -0.000734  0.000067
  3C   1dx2y2     0.001116 -0.006277  0.012615  0.004797 -0.001168 -0.019886
  3C   1dxy      -0.021955  0.000011  0.008108  0.013589 -0.010907 -0.002764
  4N   1s         0.147283  0.029782 -0.066721 -0.063236  0.003170  0.000222
  4N   2s        -0.308798 -0.065759  0.149667  0.146538 -0.005824  0.002122
  4N   1pz        0.006289  0.004916  0.006560 -0.006074  0.000396  0.011450
  4N   1px        0.102358  0.054464  0.074056 -0.067534 -0.017770  0.160505
  4N   1py       -0.040138  0.113824  0.144450 -0.138876  0.135274  0.077426
  4N   3s        -0.291657 -0.066981  0.166223  0.115954 -0.022940 -0.035083
  4N   2pz        0.002172  0.001424  0.002353 -0.000561 -0.000220  0.005987
  4N   2px        0.037365  0.015766  0.027891  0.000032 -0.011182  0.088110
  4N   2py       -0.025105  0.032165  0.044962 -0.046766  0.046122  0.015649
  4N   1dz2       0.007455 -0.000522  0.001193  0.002099 -0.001918  0.002585
  4N   1dxz      -0.000747 -0.000606 -0.000998  0.000300  0.000377 -0.001292
  4N   1dyz      -0.000088 -0.000651 -0.000192  0.000378 -0.000823  0.000563
  4N   1dx2y2     0.001464 -0.008018 -0.012199  0.006786  0.004518 -0.016203
  4N   1dxy       0.001198 -0.011464 -0.004673  0.007580 -0.012235  0.006474
  5H   1s         0.106928 -0.046334  0.223566  0.015851 -0.092249 -0.120429
  5H   2s         0.008684 -0.006808  0.086824  0.007257 -0.050804 -0.097864
  6H   1s         0.017625  0.083591 -0.041381  0.082225 -0.161764 -0.068792
  6H   2s        -0.004353  0.014229 -0.013994  0.034500 -0.088543 -0.060669
  7H   1s        -0.026102  0.061808  0.064886 -0.136767 -0.065502  0.122722
  7H   2s         0.002155  0.013362  0.027362 -0.054334 -0.034951  0.096515
  8H   1s        -0.008242 -0.081000 -0.074828 -0.054514 -0.173308  0.169781
  8H   2s         0.001473 -0.017554 -0.029463 -0.026739 -0.093490  0.145739
                     12        13        14        15        16        17   
                  -0.43088  -0.42014  -0.39881  -0.27261  -0.25814  -0.22152
                   2.00000   2.00000   2.00000   2.00000   2.00000   2.00000
                  --------  --------  --------  --------  --------  --------
  0C   1s         0.007371  0.000015  0.028751 -0.000002 -0.029250  0.000013
  0C   2s        -0.006550 -0.000020 -0.058869  0.000020  0.064926 -0.000057
  0C   1pz        0.016264 -0.213543 -0.004843 -0.095362  0.009254 -0.372902
  0C   1px        0.285522  0.014416 -0.074281  0.006353  0.142878  0.024511
  0C   1py       -0.238150  0.002304  0.002375  0.001136 -0.014390  0.004356
  0C   3s        -0.071095  0.000032 -0.119985 -0.000183  0.184407  0.000312
  0C   2pz        0.004490 -0.104078 -0.001813 -0.064594  0.006810 -0.291926
  0C   2px        0.074191  0.007066 -0.032059  0.004231  0.097978  0.019445
  0C   2py       -0.040191  0.001069  0.023395  0.000723  0.030198  0.003077
  0C   1dz2       0.004060  0.000188 -0.000081  0.002022  0.001587 -0.001499
  0C   1dxz       0.000529 -0.001339 -0.000191  0.015447 -0.000197 -0.012662
  0C   1dyz       0.001002  0.016520  0.000906  0.012143  0.000348 -0.002076
  0C   1dx2y2     0.011765  0.000297 -0.005360 -0.000882 -0.001103  0.000810
  0C   1dxy       0.018736 -0.001060  0.012786 -0.000980  0.005626  0.000281
  1C   1s        -0.034681 -0.000043 -0.000145  0.000013  0.027696 -0.000008
  1C   2s         0.070650  0.000105 -0.009525 -0.000048 -0.068477  0.000020
  1C   1pz       -0.013910 -0.168802  0.015559  0.225745 -0.006717 -0.320776
  1C   1px       -0.230288  0.010820  0.174286 -0.014917 -0.122825  0.021144
  1C   1py        0.093733  0.002073  0.344470 -0.002570  0.127461  0.003683
  1C   3s         0.090786 -0.000080  0.020873  0.000088 -0.077044 -0.000307
  1C   2pz       -0.005043 -0.086514  0.002280  0.163895  0.001821 -0.223310
  1C   2px       -0.082665  0.005734  0.015851 -0.011024  0.028244  0.015023
  1C   2py        0.025051  0.001227  0.110566 -0.001989  0.005332  0.003046
  1C   1dz2       0.000724  0.001109 -0.001694  0.000379  0.002945  0.001617
  1C   1dxz       0.000829  0.007802  0.000600  0.006352  0.000451  0.015483
  1C   1dyz       0.000560  0.010431  0.001566 -0.017171 -0.001593 -0.008035
  1C   1dx2y2     0.012023 -0.000381  0.001888 -0.000610  0.015606 -0.001116
  1C   1dxy       0.010983 -0.000767  0.023425  0.001048 -0.020591  0.000351
  2N   1s         0.002278 -0.000008 -0.024125 -0.000018 -0.026260  0.000004
  2N   2s        -0.013792  0.000020  0.056103  0.000046  0.064116  0.000010
  2N   1pz       -0.009623 -0.377844  0.004893 -0.395488  0.005891  0.107585
  2N   1px       -0.181928  0.024637  0.069369  0.026050  0.100296 -0.007061
  2N   1py        0.165117  0.004517  0.026269  0.004567 -0.074955 -0.001238
  2N   3s         0.027354 -0.000043  0.130088  0.000046  0.169022 -0.000210
  2N   2pz       -0.002810 -0.247009  0.002736 -0.323118  0.002010  0.095226
  2N   2px       -0.062679  0.016074  0.037568  0.021163  0.043709 -0.006311
  2N   2py        0.089905  0.002981  0.021554  0.003761 -0.087769 -0.001199
  2N   1dz2      -0.002885 -0.001243  0.001769  0.000516  0.002980 -0.000112
  2N   1dxz       0.001188 -0.010466  0.000092  0.005224 -0.000778  0.003121
  2N   1dyz       0.000950 -0.001582 -0.000406 -0.003780  0.000283 -0.023155
  2N   1dx2y2     0.010145  0.000688  0.005264 -0.000394 -0.007273 -0.000472
  2N   1dxy       0.015278  0.000251 -0.004715  0.000193  0.003944  0.001486
  3C   1s        -0.000489 -0.000003 -0.013982  0.000023  0.038805  0.000004
  3C   2s        -0.004398  0.000007  0.039498 -0.000052 -0.099882 -0.000009
  3C   1pz        0.012030 -0.256750  0.013073  0.097928 -0.008574  0.336447
  3C   1px        0.202785  0.017164  0.156422 -0.006508 -0.122413 -0.022184
  3C   1py       -0.138708  0.002899  0.236551 -0.001149 -0.042059 -0.003902
  3C   3s         0.000534  0.000070  0.046786  0.000085 -0.073084 -0.000018
  3C   2pz        0.004103 -0.127285  0.006522  0.080284  0.002232  0.252580
  3C   2px        0.066878  0.008428  0.087816 -0.005264  0.036672 -0.016585
  3C   2py       -0.038383  0.001481  0.061422 -0.000935 -0.015708 -0.002852
  3C   1dz2       0.000343  0.000118  0.001569  0.003427 -0.000405 -0.000061
  3C   1dxz      -0.000299  0.004123  0.001049  0.029540  0.001325 -0.000932
  3C   1dyz       0.000798 -0.017270 -0.000642  0.002009 -0.001533  0.002255
  3C   1dx2y2    -0.005789 -0.000471  0.019586 -0.001921  0.022919  0.000082
  3C   1dxy       0.010925  0.001099 -0.005877 -0.000488 -0.019347 -0.000136
  4N   1s         0.026171  0.000023  0.006626 -0.000040 -0.084261  0.000002
  4N   2s        -0.060258 -0.000066 -0.012455  0.000099  0.177379 -0.000023
  4N   1pz       -0.007257 -0.211162 -0.009595  0.407575  0.028685  0.118136
  4N   1px       -0.085598  0.013802 -0.093550 -0.026707  0.474942 -0.007832
  4N   1py       -0.157762  0.002249 -0.296494 -0.004817 -0.213911 -0.001346
  4N   3s        -0.094891  0.000048 -0.054305  0.000053  0.311337  0.000197
  4N   2pz       -0.002962 -0.112714 -0.002238  0.275608  0.019908  0.079637
  4N   2px       -0.036419  0.007350 -0.015424 -0.017992  0.330064 -0.005322
  4N   2py       -0.058221  0.001280 -0.107050 -0.003245 -0.151249 -0.000808
  4N   1dz2      -0.002107  0.002026  0.000750 -0.002260  0.016211 -0.001628
  4N   1dxz       0.000484  0.018583  0.000927 -0.021699 -0.002720 -0.011476
  4N   1dyz       0.000099 -0.005122  0.001085  0.011067  0.000755 -0.015137
  4N   1dx2y2     0.003719 -0.001285  0.012018  0.001558 -0.015522  0.000584
  4N   1dxy       0.001406  0.000117  0.018703 -0.000468  0.013739  0.001126
  5H   1s         0.096447  0.000095 -0.023121 -0.000066 -0.043387  0.000004
  5H   2s         0.078712  0.000127 -0.026638 -0.000014 -0.076064  0.000024
  6H   1s        -0.238743 -0.000235 -0.013680 -0.000013 -0.046412  0.000034
  6H   2s        -0.215421 -0.000153 -0.012171  0.000029 -0.086961  0.000162
  7H   1s        -0.010965 -0.000039  0.238390 -0.000003 -0.063917 -0.000044
  7H   2s        -0.011238 -0.000100  0.221414  0.000042 -0.076801 -0.000220
  8H   1s         0.073388  0.000030 -0.155850 -0.000027 -0.056001  0.000019
  8H   2s         0.065298  0.000040 -0.155317 -0.000050 -0.059942  0.000060
                     18        19        20        21        22        23   
                   0.03653   0.07594   0.07866   0.13726   0.15383   0.17367
                   0.00000   0.00000   0.00000   0.00000   0.00000   0.00000
                  --------  --------  --------  --------  --------  --------
  0C   1s         0.000003  0.005046 -0.000017 -0.080240 -0.067063  0.040377
  0C   2s         0.000033 -0.003033  0.000083  0.124131  0.130320 -0.096915
  0C   1pz       -0.335450 -0.000762 -0.271721 -0.010141 -0.006175 -0.001075
  0C   1px        0.022050  0.032497  0.017771 -0.168037 -0.128979 -0.027088
  0C   1py        0.003878 -0.136648  0.003912  0.085488  0.202903  0.061977
  0C   3s        -0.000366 -0.300319  0.001011  1.010646  0.952189 -0.047436
  0C   2pz       -0.476796 -0.007167 -0.441925 -0.040445 -0.019683 -0.001262
  0C   2px        0.031295 -0.044053  0.029356 -0.672124 -0.457251  0.045824
  0C   2py        0.005394 -0.176480  0.006046  0.344034  0.902931 -0.353224
  0C   1dz2      -0.000269  0.000712  0.003351  0.008119  0.003706 -0.007158
  0C   1dxz       0.000581 -0.000371  0.029333  0.000044 -0.000714  0.000768
  0C   1dyz      -0.016340 -0.000762 -0.000263 -0.000022  0.000242  0.001217
  0C   1dx2y2    -0.000237 -0.004464 -0.001926  0.013747 -0.005152 -0.003728
  0C   1dxy       0.001070 -0.012190 -0.000261  0.004618  0.003892  0.015675
  1C   1s         0.000013  0.020213 -0.000087 -0.024834  0.051404 -0.092652
  1C   2s        -0.000024 -0.046423  0.000261  0.008902 -0.096381  0.170324
  1C   1pz        0.157428  0.000447  0.416539  0.006925  0.002162  0.016956
  1C   1px       -0.010354 -0.024510 -0.027317  0.093391  0.024412  0.213823
  1C   1py       -0.001820 -0.007435 -0.004798  0.058422  0.044663  0.230007
  1C   3s        -0.000200 -0.063025  0.000164  0.725795 -0.231273  1.281211
  1C   2pz        0.232203 -0.001794  0.623128  0.006489 -0.009396  0.067507
  1C   2px       -0.015700 -0.063722 -0.041255  0.102474 -0.108183  0.843884
  1C   2py       -0.002551 -0.075353 -0.007415 -0.041742 -0.191764  0.994457
  1C   1dz2       0.002332 -0.002103  0.001129  0.001619 -0.007579  0.007159
  1C   1dxz       0.022815  0.000831  0.006425  0.000020 -0.000108 -0.001063
  1C   1dyz      -0.013975  0.000789  0.019519 -0.000687 -0.000302 -0.000335
  1C   1dx2y2    -0.001657  0.006563 -0.000233  0.004643 -0.013157 -0.003104
  1C   1dxy       0.000660  0.010880 -0.001424 -0.009174 -0.009232 -0.003600
  2N   1s         0.000027  0.085827 -0.000465  0.067765 -0.000507 -0.017450
  2N   2s        -0.000059 -0.157836  0.000877 -0.137742 -0.004007  0.071015
  2N   1pz        0.359893  0.018397  0.005910  0.000080  0.001068  0.007071
  2N   1px       -0.023621  0.270802 -0.001825  0.001272  0.021602  0.098051
  2N   1py       -0.004145  0.053306 -0.000369  0.001065 -0.028543  0.049788
  2N   3s        -0.000094 -1.165269  0.006270 -0.830666  0.076281 -0.134663
  2N   2pz        0.484209  0.046354  0.016137  0.012728  0.006453  0.005128
  2N   2px       -0.031470  0.682153 -0.004837  0.185883  0.107654  0.084507
  2N   2py       -0.005754  0.150495 -0.001005  0.050456 -0.063773 -0.037410
  2N   1dz2      -0.002549 -0.001087  0.000381  0.002743 -0.001568  0.007414
  2N   1dxz      -0.021814  0.000714  0.008203 -0.001833 -0.000059 -0.000421
  2N   1dyz      -0.002429  0.000180 -0.027794 -0.000787  0.000266 -0.001109
  2N   1dx2y2     0.001422  0.007059 -0.000904 -0.020475 -0.004089  0.008736
  2N   1dxy       0.000411  0.005809  0.001711 -0.014646  0.002860 -0.012972
  3C   1s        -0.000010  0.008853 -0.000022 -0.087699  0.065901  0.016589
  3C   2s         0.000037 -0.020135  0.000125  0.139029 -0.106821 -0.035624
  3C   1pz       -0.399329 -0.000370  0.221295 -0.006890  0.003073  0.004626
  3C   1px        0.026310 -0.043560 -0.014344 -0.083481  0.004101  0.047967
  3C   1py        0.004661  0.108769 -0.003156 -0.126230  0.243585  0.126818
  3C   3s        -0.000166 -0.293921  0.001296  1.055007 -1.145762 -0.390210
  3C   2pz       -0.526522 -0.003986  0.334701 -0.026657  0.001590  0.019458
  3C   2px        0.034847 -0.106799 -0.021574 -0.320636 -0.106595  0.208424
  3C   2py        0.005686  0.091565 -0.004350 -0.491506  0.751877  0.494090
  3C   1dz2       0.000095  0.001285 -0.003359  0.010262 -0.003386 -0.000167
  3C   1dxz      -0.002437 -0.000921 -0.027242 -0.000549  0.000479 -0.000097
  3C   1dyz       0.018165 -0.000109 -0.011110  0.000217  0.000625 -0.000922
  3C   1dx2y2     0.000366 -0.009115  0.001723  0.008209 -0.000173  0.000823
  3C   1dxy      -0.001163 -0.001919  0.001057  0.007968  0.008416 -0.013917
  4N   1s        -0.000010  0.002047 -0.000016  0.012175 -0.033538  0.012979
  4N   2s        -0.000009 -0.016905  0.000119 -0.021641  0.088586 -0.034344
  4N   1pz        0.212695  0.002243 -0.403836  0.001287 -0.004858  0.000223
  4N   1px       -0.013983  0.074923  0.026235  0.019709 -0.082118  0.012218
  4N   1py       -0.002461 -0.043701  0.004930  0.005819  0.046259 -0.043654
  4N   3s         0.000358  0.045279 -0.000380 -0.087285  0.179573 -0.043662
  4N   2pz        0.257072  0.001204 -0.528632 -0.003447 -0.005724 -0.005097
  4N   2px       -0.016946  0.080553  0.034515 -0.041010 -0.069693 -0.069656
  4N   2py       -0.002730 -0.102717  0.006553 -0.051440 -0.101324 -0.036757
  4N   1dz2       0.001131  0.001668  0.001022  0.004094  0.000499 -0.001512
  4N   1dxz       0.005877  0.000275  0.007683 -0.000375  0.000927 -0.000130
  4N   1dyz       0.022766 -0.000066  0.007347  0.000679 -0.000012  0.000499
  4N   1dx2y2    -0.000131  0.006337 -0.000457 -0.000597  0.014407 -0.005635
  4N   1dxy      -0.001574  0.000137 -0.000566  0.011443  0.002470  0.006014
  5H   1s         0.000122  0.130470 -0.000715  0.018602  0.001283 -0.015735
  5H   2s         0.000426  1.660424 -0.008968  0.552123  0.067437  0.176689
  6H   1s         0.000059  0.016747 -0.000019 -0.083080 -0.054872  0.010973
  6H   2s         0.000130  0.380289 -0.001756 -1.397249 -1.668189  0.308003
  7H   1s         0.000054  0.038934 -0.000075 -0.020326  0.022626 -0.073877
  7H   2s         0.000193  0.251284 -0.000692 -0.463528  0.341744 -2.195268
  8H   1s        -0.000034  0.002581  0.000032 -0.090818  0.054083  0.011762
  8H   2s        -0.000225  0.306596 -0.001501 -1.273370  1.508616  0.768199
                     24        25        26        27        28        29   
                   0.22545   0.24535   0.31374   0.35346   0.46064   0.52843
                   0.00000   0.00000   0.00000   0.00000   0.00000   0.00000
                  --------  --------  --------  --------  --------  --------
  0C   1s        -0.058763 -0.020497 -0.041424 -0.064941 -0.095367  0.000243
  0C   2s         0.072140  0.042096  0.156741 -0.003123 -0.018541  0.449952
  0C   1pz       -0.008935  0.009867 -0.005837  0.010731 -0.000318  0.031105
  0C   1px       -0.101144  0.117334 -0.063731  0.173319  0.030216  0.446986
  0C   1py       -0.187993  0.191046 -0.147897 -0.046412 -0.235475  0.209326
  0C   3s         1.408278  0.425431  0.630166  2.773638  2.648614 -0.225734
  0C   2pz       -0.044802  0.054268  0.050305  0.163779  0.009395 -0.031673
  0C   2px       -0.509167  0.651639  0.787794  2.621834  0.577922 -0.453704
  0C   2py       -0.956817  0.964503 -0.130704 -0.766124 -2.413299 -0.212584
  0C   1dz2       0.005814  0.002512 -0.006401 -0.002174  0.033976 -0.058999
  0C   1dxz      -0.000090 -0.002474 -0.000355 -0.000874 -0.003782  0.008078
  0C   1dyz      -0.002564 -0.000516 -0.000308  0.000873  0.000577 -0.001026
  0C   1dx2y2     0.014931 -0.030912 -0.014836 -0.018890 -0.002145  0.026403
  0C   1dxy      -0.034530 -0.012622 -0.009308  0.009387  0.019212 -0.029754
  1C   1s        -0.054898  0.019661  0.015757  0.060895  0.106453  0.030130
  1C   2s         0.084547 -0.025386  0.122410 -0.075017 -0.128795  0.354553
  1C   1pz       -0.000268  0.010501  0.009705  0.012516  0.009038 -0.018068
  1C   1px        0.028263  0.188106  0.156182  0.180845  0.086942 -0.310604
  1C   1py       -0.172474 -0.169199 -0.053786  0.035770  0.252066  0.314081
  1C   3s         0.910086 -0.467293 -1.232519 -2.342589 -2.815087 -0.557938
  1C   2pz        0.018988  0.022690  0.049313  0.173025  0.076716  0.039545
  1C   2px        0.412296  0.492009  0.646366  2.686658  0.772164  0.606757
  1C   2py       -0.717780 -0.820634  0.587535 -0.319557  2.255430 -0.142761
  1C   1dz2       0.010183 -0.003333 -0.004349  0.010099 -0.018775 -0.072556
  1C   1dxz       0.000607  0.001096  0.000941 -0.000044  0.002020  0.011430
  1C   1dyz       0.001382 -0.000878  0.001090 -0.000668 -0.000603  0.001611
  1C   1dx2y2     0.021615  0.012823  0.004029  0.017301  0.001100  0.044396
  1C   1dxy       0.028067 -0.012051  0.015927 -0.003667 -0.014497  0.009901
  2N   1s         0.027216 -0.056083 -0.052720  0.041871  0.044562 -0.016993
  2N   2s        -0.029363  0.066303  0.081059 -0.021926 -0.081793  0.096969
  2N   1pz       -0.005994  0.011050  0.009796 -0.007168 -0.003809 -0.001843
  2N   1px       -0.029080  0.170839  0.165853 -0.144968 -0.005294 -0.022790
  2N   1py       -0.349870 -0.008447 -0.086611  0.201311 -0.296092 -0.017355
  2N   3s        -0.677615  1.416078  1.231817 -1.540210 -1.359867  0.461659
  2N   2pz       -0.031633  0.043692  0.074023 -0.072865 -0.056615  0.039430
  2N   2px       -0.273656  0.659697  1.187545 -1.183931 -0.617964  0.578942
  2N   2py       -1.171243  0.020214 -0.364197  0.435988 -1.368488  0.127400
  2N   1dz2       0.006249 -0.002268 -0.021916  0.022987  0.021718 -0.049096
  2N   1dxz      -0.001263  0.002260  0.000825 -0.002319 -0.002402  0.009622
  2N   1dyz       0.001519  0.000689  0.003935  0.001604  0.001487 -0.001713
  2N   1dx2y2    -0.012209  0.027688 -0.034169 -0.000752 -0.004098  0.066093
  2N   1dxy       0.022904  0.014836  0.046916  0.031443  0.028366 -0.029319
  3C   1s         0.049969 -0.015704  0.092821 -0.035422 -0.024369  0.002852
  3C   2s        -0.120867  0.049109  0.008898 -0.035971 -0.014607  0.515367
  3C   1pz        0.007136  0.016690  0.007142  0.007520  0.017990 -0.002047
  3C   1px        0.111608  0.264609  0.158378  0.100393  0.269135 -0.053495
  3C   1py       -0.012007 -0.066050 -0.289183  0.083883  0.006001  0.160903
  3C   3s        -0.680679  0.272246 -2.911839  0.880756  0.828684 -1.360042
  3C   2pz        0.032666  0.095214 -0.071104 -0.093375  0.087602 -0.011246
  3C   2px        0.445501  1.480728 -0.681877 -1.581023  1.239529 -0.021237
  3C   2py        0.287616 -0.205316 -2.233649  0.927456  0.523954 -0.881485
  3C   1dz2      -0.007110  0.000836 -0.017767  0.013747  0.009244 -0.026457
  3C   1dxz       0.002298 -0.001736  0.002484 -0.001533 -0.001883  0.000546
  3C   1dyz      -0.000869 -0.001790 -0.000205  0.000248 -0.001045  0.001379
  3C   1dx2y2     0.024292 -0.019512  0.007918 -0.000769 -0.009763 -0.038912
  3C   1dxy      -0.011162 -0.030175 -0.007198  0.007659 -0.014743  0.005804
  4N   1s         0.058255  0.082969 -0.086140  0.011030 -0.029889 -0.036525
  4N   2s        -0.075856 -0.108695  0.062849 -0.047299  0.065468  0.114906
  4N   1pz       -0.005468  0.005293 -0.010749 -0.003670  0.010101  0.003196
  4N   1px       -0.040325  0.062635 -0.148629 -0.036115  0.086195  0.044344
  4N   1py       -0.245666  0.100218 -0.083111 -0.120213  0.384971  0.017866
  4N   3s        -1.182453 -1.702744  2.698052  0.071979  0.663997  0.721292
  4N   2pz        0.001786  0.031354 -0.093304 -0.024157  0.033491 -0.030258
  4N   2px        0.142422  0.439589 -1.399892 -0.263615  0.220167 -0.491354
  4N   2py       -0.655250  0.193870 -0.083896 -0.577018  1.621006  0.217638
  4N   1dz2       0.004961 -0.002261 -0.045851  0.001431 -0.004376 -0.031024
  4N   1dxz      -0.001124 -0.000541  0.004589  0.001941  0.000781  0.007376
  4N   1dyz       0.000073  0.000652  0.001760  0.002218  0.000969  0.000717
  4N   1dx2y2    -0.008653 -0.013239 -0.011830  0.025082  0.002118  0.055058
  4N   1dxy       0.001129  0.006765  0.010548  0.038261  0.013471  0.011697
  5H   1s        -0.017953  0.123449 -0.007609  0.015092  0.031939  0.140753
  5H   2s        -0.420190  0.481250  0.558748 -0.473872 -0.402770  0.115612
  6H   1s         0.067577  0.060426  0.039844 -0.008718 -0.217868  0.247297
  6H   2s        -0.024901 -0.526813  0.252173  1.015034  1.093317 -0.123368
  7H   1s         0.054971 -0.045661  0.063437 -0.008383  0.093768  0.256321
  7H   2s        -0.027913  0.231203 -0.409255 -0.748423 -0.857472 -0.189123
  8H   1s        -0.059620  0.022215  0.059879 -0.051798 -0.003232  0.253972
  8H   2s         0.547302 -0.227294 -1.007775  0.354280  0.254801 -0.376877
                     30        31        32        33        34        35   
                   0.54472   0.56578   0.59143   0.61721   0.63874   0.64690
                   0.00000   0.00000   0.00000   0.00000   0.00000   0.00000
                  --------  --------  --------  --------  --------  --------
  0C   1s        -0.000024  0.021863 -0.000034 -0.071907  0.000347  0.017219
  0C   2s        -0.000679 -0.431983  0.000283 -0.211782 -0.001490 -0.280536
  0C   1pz       -0.585676  0.034938  0.603524  0.021147 -0.589814 -0.019099
  0C   1px        0.037992  0.447068 -0.039608  0.339199  0.035168 -0.344405
  0C   1py        0.006301  0.473221 -0.006621  0.046387  0.003728 -0.176092
  0C   3s         0.000352  0.641583  0.001227  0.991018 -0.004067 -0.226795
  0C   2pz        0.564087 -0.052348 -0.703165  0.015387  1.001669 -0.004223
  0C   2px       -0.036893 -0.703113  0.047431  0.246385 -0.068441 -0.032829
  0C   2py       -0.005838 -0.519507  0.006221 -0.293966 -0.001243  0.652833
  0C   1dz2      -0.002177  0.008904  0.003124  0.090550  0.002556  0.014278
  0C   1dxz      -0.023439 -0.000981  0.033458 -0.009859  0.020181  0.001724
  0C   1dyz       0.019233  0.003872 -0.033689  0.000496  0.021952 -0.000930
  0C   1dx2y2     0.001725 -0.010095 -0.002592  0.001321 -0.000190  0.053350
  0C   1dxy      -0.000924  0.060152  0.001763  0.034834 -0.001669  0.003010
  1C   1s         0.000009  0.007276  0.000017  0.020984 -0.000523 -0.049823
  1C   2s        -0.000315 -0.030551 -0.000204 -0.109583 -0.003983 -0.469839
  1C   1pz       -0.468138 -0.005398  0.364116  0.021727  0.844609 -0.023506
  1C   1px        0.031528 -0.071029 -0.024246  0.375281 -0.061105 -0.280262
  1C   1py        0.005747 -0.063611 -0.004840 -0.357184 -0.006906  0.292833
  1C   3s         0.000117  0.279764 -0.000837 -0.489118  0.014449  1.225548
  1C   2pz        0.370564  0.011270 -0.327679  0.033076 -1.288214  0.004309
  1C   2px       -0.026233  0.151211  0.023910  0.460564  0.088383  0.005258
  1C   2py       -0.005025  0.111211  0.005778  0.409425  0.008513 -0.774494
  1C   1dz2       0.003502  0.000291 -0.005277 -0.000199  0.000104  0.081110
  1C   1dxz       0.029294 -0.000164 -0.042648  0.004040  0.000547 -0.011289
  1C   1dyz       0.004954 -0.004948 -0.019586 -0.001683 -0.033075 -0.002640
  1C   1dx2y2    -0.001982  0.010920  0.002648  0.062614 -0.000765 -0.026164
  1C   1dxy      -0.000694 -0.072896  0.001830 -0.014139  0.001890 -0.024848
  2N   1s         0.000031 -0.062415  0.000010  0.020885 -0.000157 -0.007195
  2N   2s        -0.000168  0.215303  0.000118 -0.093859  0.001199  0.113079
  2N   1pz       -0.182434  0.012445 -0.047524 -0.004477 -0.212452  0.009663
  2N   1px        0.011963  0.188025  0.003149 -0.030107  0.014883  0.161120
  2N   1py        0.002048 -0.028062  0.000418 -0.211579  0.000052 -0.283455
  2N   3s        -0.000582 -0.702126 -0.000666  0.214157  0.005255  0.173684
  2N   2pz       -0.086870 -0.008957  0.006026  0.000027  0.093252  0.004019
  2N   2px        0.005138 -0.125010 -0.000679 -0.043429 -0.002239  0.013315
  2N   2py        0.000443 -0.024757  0.000156  0.276908  0.002276  0.376849
  2N   1dz2      -0.004794  0.142332 -0.001769 -0.040076 -0.006071 -0.024149
  2N   1dxz      -0.041248 -0.017524 -0.021076  0.004570 -0.044921  0.003323
  2N   1dyz      -0.007206 -0.004658  0.035241 -0.004986 -0.024799  0.002529
  2N   1dx2y2     0.002544 -0.013258  0.001875  0.015709  0.002346 -0.003289
  2N   1dxy       0.001055 -0.029425 -0.002167 -0.084213  0.002400  0.026757
  3C   1s        -0.000007  0.034438  0.000014  0.018890  0.000227  0.040659
  3C   2s        -0.000723 -0.266578  0.001033  0.480631  0.004852  0.490135
  3C   1pz       -0.679756  0.026555 -0.747262 -0.032432 -0.038943  0.017616
  3C   1px        0.045069  0.443382  0.048610 -0.528099  0.005977  0.259321
  3C   1py        0.007440 -0.198060  0.008668  0.184765  0.000987  0.001258
  3C   3s         0.001774  0.303503 -0.001994 -1.020863 -0.006842 -0.562920
  3C   2pz        0.780114 -0.032802  0.991978  0.012562  0.033408 -0.024129
  3C   2px       -0.051101 -0.524981 -0.065320  0.285104 -0.005043 -0.358707
  3C   2py       -0.007467  0.109681 -0.011198 -0.506190 -0.002502 -0.005602
  3C   1dz2      -0.000122 -0.014542 -0.001290 -0.048097  0.000772 -0.087961
  3C   1dxz       0.001555  0.003436 -0.002219  0.007548  0.014134  0.007922
  3C   1dyz      -0.017643 -0.003212 -0.046496  0.002044 -0.009504  0.001813
  3C   1dx2y2    -0.000287  0.035466 -0.000428  0.026754 -0.001137 -0.029333
  3C   1dxy       0.001145 -0.047211  0.003102  0.020563  0.000443 -0.006186
  4N   1s         0.000015  0.001888 -0.000028 -0.014727  0.000164  0.008853
  4N   2s        -0.000005  0.067370  0.000028  0.076332 -0.000356  0.003860
  4N   1pz       -0.108169 -0.006164 -0.044403 -0.009386  0.137772 -0.012927
  4N   1px        0.007142 -0.099479  0.002885 -0.101201 -0.010788 -0.143162
  4N   1py        0.001590  0.032296  0.000167 -0.247340 -0.002482 -0.180859
  4N   3s        -0.001363  0.001153  0.001302  0.483874 -0.003659 -0.410149
  4N   2pz       -0.131694  0.002241 -0.062184 -0.024657  0.069460  0.016411
  4N   2px        0.009562  0.054016  0.003324 -0.374927 -0.002272  0.260087
  4N   2py        0.001454 -0.103357  0.000622 -0.013304 -0.000671 -0.003577
  4N   1dz2       0.004377 -0.000794  0.004781 -0.026416 -0.002601  0.015627
  4N   1dxz       0.037981 -0.001285  0.037787  0.000570 -0.030330  0.002610
  4N   1dyz      -0.003101  0.002868  0.024550 -0.000769  0.039907  0.001243
  4N   1dx2y2    -0.002590 -0.027901 -0.002215 -0.031515  0.003105  0.054805
  4N   1dxy      -0.000215  0.038153 -0.002125 -0.026030 -0.001805  0.039055
  5H   1s        -0.000034 -0.544120  0.000231  0.024366  0.000298  0.103827
  5H   2s        -0.000256  0.304019 -0.000163 -0.024035  0.002208  0.004348
  6H   1s        -0.000384 -0.186020  0.000116 -0.522921 -0.000345 -0.094362
  6H   2s        -0.000032 -0.049758  0.000958  0.422136 -0.004710 -0.226308
  7H   1s        -0.000022 -0.118410 -0.000049 -0.043420 -0.005321 -0.466285
  7H   2s         0.000840  0.091127 -0.001544 -0.249094  0.001459  0.334873
  8H   1s        -0.000222 -0.053157  0.000563  0.168092  0.002982  0.472521
  8H   2s         0.000618 -0.029875  0.000279 -0.086764 -0.001698 -0.215478
                     36        37        38        39        40        41   
                   0.66109   0.67674   0.76189   0.80743   0.83091   0.83531
                   0.00000   0.00000   0.00000   0.00000   0.00000   0.00000
                  --------  --------  --------  --------  --------  --------
  0C   1s         0.003647  0.010282  0.000071 -0.031805 -0.002017 -0.023161
  0C   2s         0.408435 -0.076118  0.000528 -0.048687 -0.077142  0.070260
  0C   1pz       -0.003481  0.000958 -0.220943 -0.010913  0.004553 -0.035762
  0C   1px       -0.015895  0.017088  0.014822 -0.241893  0.102316 -0.635091
  0C   1py       -0.354432  0.040043  0.001543  0.489535 -0.193720  0.554724
  0C   3s        -0.928833 -0.581552 -0.000529  0.140917 -1.721657  1.821462
  0C   2pz       -0.015954 -0.029853  0.767497  0.013469 -0.037053  0.155133
  0C   2px       -0.386807 -0.463678 -0.050747  0.513398 -0.826963  2.794140
  0C   2py        1.068859 -0.030534 -0.005367 -1.912754  1.479861 -2.530459
  0C   1dz2      -0.025538  0.006569 -0.000271  0.019192  0.036576 -0.022708
  0C   1dxz       0.009310 -0.003403  0.000422 -0.001983 -0.005003  0.008495
  0C   1dyz       0.001976 -0.005078 -0.010181  0.005295 -0.004809 -0.000950
  0C   1dx2y2     0.090395 -0.025994 -0.000179 -0.011975 -0.000926  0.090555
  0C   1dxy       0.039272 -0.080216  0.000445  0.083958 -0.062383 -0.004249
  1C   1s        -0.028312 -0.034598  0.000071 -0.040348  0.009398  0.020484
  1C   2s         0.361038  0.245191  0.000165  0.041254  0.152758  0.083161
  1C   1pz       -0.020178  0.009860  0.153055  0.022127  0.012832 -0.045510
  1C   1px       -0.242160  0.214877 -0.010592  0.283723  0.225705 -0.607757
  1C   1py       -0.146923 -0.426650 -0.002001  0.211352 -0.181940 -0.442419
  1C   3s         0.189015 -0.246575  0.000312 -0.325270  1.220421 -2.661121
  1C   2pz        0.010857 -0.042329 -0.408069 -0.071112 -0.096970  0.212533
  1C   2px        0.103771 -0.778405  0.028524 -0.932975 -1.390637  2.851215
  1C   2py        0.013888  0.862877  0.005087 -0.658080 -0.477244  2.167302
  1C   1dz2      -0.006034  0.032550  0.000517  0.031526 -0.083596  0.036855
  1C   1dxz       0.002583  0.002178  0.001224 -0.006310  0.010085 -0.007473
  1C   1dyz      -0.003710 -0.000052  0.024185 -0.004847  0.009525  0.004050
  1C   1dx2y2     0.038026  0.085006  0.000199 -0.028064 -0.013362 -0.060651
  1C   1dxy      -0.052838  0.024418 -0.001482 -0.068451  0.115909  0.061718
  2N   1s        -0.006452  0.011687  0.000029  0.008208 -0.024824 -0.014597
  2N   2s        -0.040347 -0.045537 -0.000260 -0.050146 -0.022025  0.056246
  2N   1pz       -0.012323 -0.001337  0.938353  0.004606 -0.035174 -0.015002
  2N   1px       -0.196767  0.003827 -0.061156 -0.001080 -0.498262 -0.215793
  2N   1py       -0.002544 -0.108925 -0.011348  0.299945 -0.239930 -0.074324
  2N   3s         1.187292 -0.368573  0.000242  0.169817  0.537701 -0.734702
  2N   2pz        0.054290 -0.003018 -1.460280 -0.000249  0.090630  0.001274
  2N   2px        0.796564 -0.118678  0.094210  0.193612  1.233623  0.022350
  2N   2py        0.194202  0.390997  0.018779 -0.931070  0.866278 -0.015246
  2N   1dz2      -0.077079  0.005336  0.004528 -0.008504  0.012265  0.046939
  2N   1dxz       0.003023  0.005240  0.038385  0.005446 -0.001568 -0.009306
  2N   1dyz      -0.000170  0.001733  0.011320 -0.003256  0.001865 -0.005841
  2N   1dx2y2    -0.082849  0.081835 -0.002455  0.074296 -0.007780 -0.046356
  2N   1dxy      -0.042262  0.042767 -0.000990 -0.039020  0.030858 -0.083500
  3C   1s        -0.052847 -0.042540 -0.000056  0.029658  0.005527 -0.006448
  3C   2s         0.407026  0.317962 -0.000315 -0.080382  0.000243  0.099395
  3C   1pz        0.018066  0.034778 -0.159001  0.016648  0.022146 -0.005457
  3C   1px        0.201540  0.507562  0.010290  0.125755  0.300727 -0.083915
  3C   1py        0.432458  0.109436  0.000847  0.752865  0.214375 -0.030744
  3C   3s        -0.726876 -0.195269  0.002281 -0.728213  0.503229 -0.258503
  3C   2pz       -0.013508 -0.058144  0.587447 -0.047138 -0.030602  0.019381
  3C   2px       -0.001730 -0.919480 -0.039043 -0.207362 -0.448142  0.295219
  3C   2py       -1.186398  0.222459 -0.002187 -2.972255 -0.163296  0.133783
  3C   1dz2       0.056365  0.030719 -0.001390  0.005796 -0.045591  0.001680
  3C   1dxz      -0.001729 -0.006895 -0.012353 -0.007937  0.000993 -0.000637
  3C   1dyz      -0.002710 -0.007039  0.001385  0.001790  0.006936 -0.000638
  3C   1dx2y2     0.074343 -0.032955  0.000929 -0.111629 -0.078009 -0.004172
  3C   1dxy      -0.011033 -0.102869 -0.000060  0.009722  0.077962 -0.010638
  4N   1s         0.036050  0.014842 -0.000034  0.011214  0.051551  0.000067
  4N   2s        -0.156849 -0.140463  0.000137 -0.093548 -0.212514 -0.046081
  4N   1pz        0.001189  0.040875 -0.098710  0.006097 -0.019980  0.004373
  4N   1px        0.011057  0.669163  0.006682  0.070756 -0.339392  0.115210
  4N   1py        0.088744 -0.288205  0.001268  0.136473  0.129171 -0.089444
  4N   3s         0.436575  1.151942 -0.001396  0.872131 -0.224574  0.954880
  4N   2pz       -0.003875 -0.022741  0.078020 -0.018846  0.072884 -0.019549
  4N   2px       -0.079236 -0.418254 -0.005368 -0.251898  1.190659 -0.421047
  4N   2py        0.126995  0.409493 -0.001291 -0.216333 -0.372584  0.435411
  4N   1dz2      -0.070543 -0.103592  0.001653 -0.043232 -0.062701 -0.036703
  4N   1dxz       0.008431  0.010035  0.017235  0.008515  0.010860  0.004300
  4N   1dyz       0.005405  0.006038 -0.019222  0.001197 -0.003190 -0.004193
  4N   1dx2y2    -0.007378 -0.036866 -0.001437  0.051308  0.065335  0.013239
  4N   1dxy       0.060638  0.052927  0.001049  0.013877 -0.055952 -0.072063
  5H   1s        -0.233175  0.166558  0.000092  0.105687 -0.269552 -0.237420
  5H   2s         0.471981 -0.277189 -0.000779 -0.252860  0.923632  0.526634
  6H   1s        -0.163419  0.112916  0.000560 -0.191199  0.113257 -0.214355
[...]
Population analysis         ....       0.056 sec  (  0.3%)
Initial guess               ....       0.460 sec  (  2.1%)
Orbital Transformation      ....       0.000 sec  (  0.0%)
Orbital Orthonormalization  ....       0.000 sec  (  0.0%)
DIIS solution               ....       0.027 sec  (  0.1%)
SOSCF solution              ....       0.009 sec  (  0.0%)
Grid generation             ....       1.727 sec  (  7.9%)
------------------------------------------------------------------------------
                        ORCA TD-DFT/TDA CALCULATION
------------------------------------------------------------------------------

Input orbitals are from        ... C:\Users\dmg81179\Desktop\Code_Development\2018-March-28_ORCA_code\working_dir\tddft.gbw
CI-vector output               ... C:\Users\dmg81179\Desktop\Code_Development\2018-March-28_ORCA_code\working_dir\tddft.cis
Tamm-Dancoff approximation     ... operative
CIS-Integral strategy          ... AO-integrals
Integral handling              ... AO integral Direct
Max. core memory used          ... 512 MB
Reference state                ... RHF
Generation of triplets         ... off
Number of operators            ... 1
Orbital ranges used for CIS calculation:
 Operator 0:  Orbitals   0...  1  to  18... 77
XAS localization array:
 Operator 0:  Orbitals  -1... -1
-------------------
XC-INTEGRATION GRID
-------------------

General Integration Accuracy     IntAcc      ...  3.670
Radial Grid Type                 RadialGrid  ... Gauss-Chebyshev
Angular Grid (max. acc.)         AngularGrid ... Lebedev-50
Angular grid pruning method      GridPruning ... 3 (G Style)
Weight generation scheme         WeightScheme... Becke
Basis function cutoff            BFCut       ...   1.0000e-011
Integration weight cutoff        WCut        ...   1.0000e-014
Grids for H and He will be reduced by one unit

# of grid points (after initial pruning)     ...   5274 (   0.0 sec)
# of grid points (after weights+screening)   ...   5046 (   0.0 sec)
nearest neighbour list constructed           ...    0.0 sec
Grid point re-assignment to atoms done       ...    0.0 sec
Grid point division into batches done        ...    0.0 sec
Reduced shell lists constructed in    0.0 sec

Total number of grid points                  ...     5046
Total number of batches                      ...       84
Average number of points per batch           ...       60
Average number of grid points per atom       ...      561
Average number of shells per batch           ...    32.68 (86.01%)
Average number of basis functions per batch  ...    69.74 (89.41%)
Average number of large shells per batch     ...    28.44 (87.01%)
Average number of large basis fcns per batch ...    60.79 (87.16%)
Maximum spatial batch extension              ...  19.47, 15.83, 33.72 au
Average spatial batch extension              ...   5.09,  4.59,  7.09 au


---------------
TD-DFT XC SETUP
---------------

DFT calculation                         ... on
Name of the grid file                   ... C:\Users\dmg81179\Desktop\Code_Development\2018-March-28_ORCA_code\working_dir\tddft.grid_cis.tmp
Exchange functional (SCF)               ... B88
Exchange functional (TD-DFT)            ... B88
   X-Alpha parameter    XAlpha (SCF)    ...  0.666667
   X-Alpha parameter    XAlpha (TD-DFT) ...  0.666667
   Becke's b parameter  XBeta (SCF)     ...  0.004200
   Becke's b parameter  XBeta (TD-DFT)  ...  0.004200
Correlation functional (SCF)            ... LYP
Correlation functional (TD-DFT)         ... LYP
 LDA part of GGA corr.  LDAOpt (SCF)    ... VWN-5
 LDA part of GGA corr.  LDAOpt (TD-DFT) ... VWN-5
Hybrid DFT                              ... on
   Exchange mixing (SCF)                ...  0.200
   Exchange mixing (TD-DFT)             ...  0.200
   GGA exch. scaling(SCF)               ...  0.720
   GGA exch. scaling (TD-DFT)           ...  0.720
   GGA corr. scaling (SCF)              ...  0.810
   GGA corr. scaling (TD-DFT)           ...  0.810

Building densities             ... done
Calculating rho(r) on the grid ... done
Building xc-kernel on the grid ... done
                    *** TD-DFT CALCULATION INITIALIZED ***


------------------------
DAVIDSON-DIAGONALIZATION
------------------------

Dimension of the eigenvalue problem            ...    120
Number of roots to be determined               ...     20
Maximum size of the expansion space            ...    120
Convergence tolerance for the residual         ...   2.500e-007
Convergence tolerance for the energies         ...   2.500e-007
Orthogonality tolerance                        ...   1.000e-014
Level Shift                                    ...   0.000e+000
Constructing the preconditioner                ... o.k.
Building the initial guess                     ... o.k.
Number of trial vectors determined             ...    120


                       ****Iteration    0****

   Memory handling for direct AO based CIS:
   Memory per vector needed      ...     1 MB
   Memory needed                 ...    11 MB
   Memory available              ...   512 MB
   Number of vectors per batch   ...   512
   Number of batches             ...     1
   Time for densities:     0.018
   Using LibInt in JK Direct
   Time for J+K (Direct):    42.555
   Time for XC-Integration:     3.028
   Time for Sigma-Completion:     0.205
   Size of expansion space: 60
   Lowest Energy          :    14.259686053214
   Maximum Energy change  :    14.679314401877 (vector 19)
   Maximum residual norm  :     0.000321400499

                       ****Iteration    1****
   Time for densities:     0.008
   Using LibInt in JK Direct
   Time for J+K (Direct):     9.075
   Time for XC-Integration:     1.165
   Time for Sigma-Completion:     0.063
   Size of expansion space: 80
   Lowest Energy          :    14.259503935773
   Maximum Energy change  :     0.000212533991 (vector 18)
   Maximum residual norm  :     0.000000254029

                       ****Iteration    2****
   Time for densities:     0.009
   Using LibInt in JK Direct
   Time for J+K (Direct):     9.607
   Time for XC-Integration:     1.019
   Time for Sigma-Completion:     0.067
   Size of expansion space: 100
   Lowest Energy          :    14.259503831976
   Maximum Energy change  :     0.000000129020 (vector 2)

         *** CONVERGENCE OF ENERGIES REACHED ***

Storing the converged CI vectors               ... C:\Users\dmg81179\Desktop\Code_Development\2018-March-28_ORCA_code\working_dir\tddft.cis1

                 *** DAVIDSON DONE ***

Total time for solving the CIS problem:    71.807sec

------------------------------------
TD-DFT/TDA EXCITED STATES (SINGLETS)
------------------------------------

the weight of the individual excitations are printed if larger than 0.01

STATE  1:  E=  14.259504 au    388.021 eV  3129599.3 cm**-1
     1a ->  18a  :     0.724435 (c= -0.85113732)
     1a ->  20a  :     0.274007 (c=  0.52345708)

STATE  2:  E=  14.302119 au    389.180 eV  3138952.3 cm**-1
     1a ->  18a  :     0.274973 (c=  0.52437888)
     1a ->  20a  :     0.724237 (c=  0.85102143)

STATE  3:  E=  14.335851 au    390.098 eV  3146355.6 cm**-1
     0a ->  18a  :     0.998435 (c=  0.99921706)

STATE  4:  E=  14.340354 au    390.221 eV  3147343.9 cm**-1
     1a ->  19a  :     0.995806 (c=  0.99790104)

STATE  5:  E=  14.386027 au    391.464 eV  3157367.9 cm**-1
     0a ->  19a  :     0.989227 (c=  0.99459902)

STATE  6:  E=  14.396050 au    391.736 eV  3159567.7 cm**-1
     1a ->  21a  :     0.868683 (c=  0.93203179)
     1a ->  22a  :     0.127025 (c= -0.35640545)

STATE  7:  E=  14.407409 au    392.046 eV  3162060.9 cm**-1
     0a ->  20a  :     0.999768 (c= -0.99988423)

STATE  8:  E=  14.414425 au    392.236 eV  3163600.5 cm**-1
     1a ->  21a  :     0.125582 (c= -0.35437519)
     1a ->  22a  :     0.856147 (c= -0.92528212)
     1a ->  24a  :     0.011672 (c=  0.10803489)

STATE  9:  E=  14.428218 au    392.612 eV  3166627.9 cm**-1
     1a ->  23a  :     0.991990 (c=  0.99598715)

STATE 10:  E=  14.463074 au    393.560 eV  3174277.8 cm**-1
     1a ->  22a  :     0.010654 (c= -0.10321597)
     1a ->  24a  :     0.957746 (c= -0.97864509)
     1a ->  28a  :     0.010398 (c=  0.10197030)

STATE 11:  E=  14.469920 au    393.747 eV  3175780.3 cm**-1
     0a ->  21a  :     0.988791 (c=  0.99437960)

STATE 12:  E=  14.489774 au    394.287 eV  3180137.7 cm**-1
     1a ->  25a  :     0.985928 (c=  0.99293908)

STATE 13:  E=  14.489934 au    394.291 eV  3180172.8 cm**-1
     0a ->  22a  :     0.991362 (c= -0.99567170)

STATE 14:  E=  14.515818 au    394.995 eV  3185853.9 cm**-1
     0a ->  23a  :     0.794057 (c=  0.89109863)
     0a ->  24a  :     0.175902 (c= -0.41940672)

STATE 15:  E=  14.533248 au    395.470 eV  3189679.3 cm**-1
     0a ->  23a  :     0.183077 (c=  0.42787551)
     0a ->  24a  :     0.779210 (c=  0.88272888)
     0a ->  26a  :     0.019112 (c=  0.13824592)

STATE 16:  E=  14.553223 au    396.013 eV  3194063.4 cm**-1
     1a ->  24a  :     0.010686 (c=  0.10337488)
     1a ->  26a  :     0.976691 (c= -0.98827683)

STATE 17:  E=  14.566615 au    396.378 eV  3197002.4 cm**-1
     0a ->  25a  :     0.973174 (c=  0.98649577)

STATE 18:  E=  14.598870 au    397.255 eV  3204081.6 cm**-1
     1a ->  27a  :     0.990675 (c= -0.99532637)

STATE 19:  E=  14.626553 au    398.009 eV  3210157.3 cm**-1
     0a ->  24a  :     0.028271 (c= -0.16813980)
     0a ->  26a  :     0.956566 (c=  0.97804180)

STATE 20:  E=  14.679234 au    399.442 eV  3221719.4 cm**-1
     0a ->  27a  :     0.987924 (c= -0.99394352)


-----------------------------
TD-DFT/TDA-EXCITATION SPECTRA
-----------------------------

Center of mass = (-21.2382, 13.9880, -0.1526)
Calculating the Dipole integrals                  ... done
Transforming integrals                            ... done
Calculating the Linear Momentum integrals         ... done
Transforming integrals                            ... done
Calculating angular momentum integrals            ... done
Transforming integrals                            ... done

-----------------------------------------------------------------------------
         ABSORPTION SPECTRUM VIA TRANSITION ELECTRIC DIPOLE MOMENTS
-----------------------------------------------------------------------------
State   Energy  Wavelength   fosc         T2         TX        TY        TZ  
        (cm-1)    (nm)                  (au**2)     (au)      (au)      (au) 
-----------------------------------------------------------------------------
   1 3129599.3      3.2   0.033545898   0.00353   0.00391   0.00069  -0.05927
   2 3138952.3      3.2   0.011678002   0.00122   0.00231   0.00041  -0.03492
   3 3146355.7      3.2   0.027922679   0.00292   0.00354   0.00062  -0.05393
   4 3147343.9      3.2   0.001890254   0.00020   0.01208  -0.00715   0.00073
   5 3157367.9      3.2   0.019727668   0.00206  -0.04428  -0.00934  -0.00301
   6 3159567.7      3.2   0.000572166   0.00006   0.00765  -0.00093   0.00049
   7 3162060.9      3.2   0.000009123   0.00000  -0.00009  -0.00002   0.00097
   8 3163600.5      3.2   0.002125780   0.00022   0.01022  -0.01079   0.00055
   9 3166627.9      3.2   0.001190934   0.00012   0.00056  -0.01111  -0.00010
  10 3174277.8      3.2   0.018192528   0.00189   0.01110   0.04198   0.00121
  11 3175780.3      3.1   0.000049326   0.00001   0.00213   0.00075   0.00015
  12 3180137.7      3.1   0.003536743   0.00037   0.00936   0.01667   0.00081
  13 3180172.8      3.1   0.000951140   0.00010   0.00480  -0.00868   0.00021
  14 3185853.9      3.1   0.010737300   0.00111  -0.01219  -0.03098  -0.00117
  15 3189679.3      3.1   0.022879103   0.00236  -0.00697   0.04809   0.00010
  16 3194063.4      3.1   0.005278817   0.00054   0.02165   0.00853   0.00152
  17 3197002.4      3.1   0.006203685   0.00064  -0.02463   0.00545  -0.00154
  18 3204081.6      3.1   0.003387027   0.00035   0.00643   0.01750   0.00061
  19 3210157.3      3.1   0.005541432   0.00057  -0.02307   0.00582  -0.00144
  20 3221719.4      3.1   0.010176645   0.00104  -0.02001   0.02527  -0.00102

-----------------------------------------------------------------------------
         ABSORPTION SPECTRUM VIA TRANSITION VELOCITY DIPOLE MOMENTS
-----------------------------------------------------------------------------
State   Energy  Wavelength   fosc         P2         PX        PY        PZ  
        (cm-1)    (nm)                  (au**2)     (au)      (au)      (au) 
-----------------------------------------------------------------------------
   1 3129599.3      3.2   0.032684008   0.69909  -0.05497  -0.00966   0.83425
   2 3138952.3      3.2   0.011425110   0.24510  -0.03269  -0.00576   0.49397
   3 3146355.7      3.2   0.027182044   0.58452  -0.05003  -0.00879   0.76285
   4 3147343.9      3.2   0.001791670   0.03854  -0.16564   0.10490  -0.00994
   5 3157367.9      3.2   0.019440188   0.41950   0.63217   0.13424   0.04298
   6 3159567.7      3.2   0.000690945   0.01492  -0.11873   0.02772  -0.00742
   7 3162060.9      3.2   0.000009434   0.00020   0.00131   0.00029  -0.01422
   8 3163600.5      3.2   0.002060759   0.04456  -0.14921   0.14908  -0.00812
   9 3166627.9      3.2   0.001064862   0.02305  -0.01870   0.15065   0.00061
  10 3174277.8      3.2   0.018098854   0.39265  -0.16307  -0.60477  -0.01770
  11 3175780.3      3.1   0.000098204   0.00213  -0.04383  -0.01419  -0.00308
  12 3180137.7      3.1   0.003592754   0.07809  -0.14576  -0.23809  -0.01238
  13 3180172.8      3.1   0.000773062   0.01680  -0.06569   0.11171  -0.00298
  14 3185853.9      3.1   0.010384027   0.22610   0.17916   0.44013   0.01698
  15 3189679.3      3.1   0.022877047   0.49872   0.10302  -0.69864  -0.00135
  16 3194063.4      3.1   0.005469595   0.11940  -0.32141  -0.12484  -0.02262
  17 3197002.4      3.1   0.006133616   0.13402   0.35646  -0.08037   0.02233
  18 3204081.6      3.1   0.003751428   0.08215  -0.10097  -0.26807  -0.00958
  19 3210157.3      3.1   0.005501599   0.12070   0.33952  -0.07054   0.02136
  20 3221719.4      3.1   0.010642206   0.23433   0.30260  -0.37752   0.01552

-------------------------------------------------------------------
                             CD SPECTRUM
-------------------------------------------------------------------
State   Energy Wavelength       R         MX        MY        MZ   
        (cm-1)   (nm)       (1e40*cgs)   (au)      (au)      (au)  
-------------------------------------------------------------------
   1 3129599.3      3.2     -0.00003   0.36501   0.87999   0.03424
   2 3138952.3      3.2      0.00016   0.21619   0.52210   0.02040
   3 3146355.7      3.2      0.00006   0.19049  -0.79237   0.00336
   4 3147343.9      3.2     -0.00006   0.00235   0.00018  -0.03720
   5 3157367.9      3.2      0.00001   0.00112   0.00047  -0.01797
   6 3159567.7      3.2      0.00002  -0.00156  -0.00019   0.02426
   7 3162060.9      3.2      0.00000  -0.00359   0.01460  -0.00003
   8 3163600.5      3.2      0.00000   0.00599   0.00104  -0.09105
   9 3166627.9      3.2     -0.00000   0.00999   0.00185  -0.15100
  10 3174277.8      3.2      0.00000  -0.04654  -0.00814   0.70657
  11 3175780.3      3.1      0.00000   0.00024   0.00007  -0.00380
  12 3180137.7      3.1     -0.00002  -0.02108  -0.00373   0.31980
  13 3180172.8      3.1      0.00005  -0.00788  -0.00144   0.11978
  14 3185853.9      3.1     -0.00000  -0.02711  -0.00484   0.41147
  15 3189679.3      3.1      0.00015   0.04937   0.00873  -0.74904
  16 3194063.4      3.1     -0.00005  -0.01787  -0.00314   0.27131
  17 3197002.4      3.1     -0.00003   0.01123   0.00224  -0.17129
  18 3204081.6      3.1     -0.00011  -0.02139  -0.00359   0.32578
  19 3210157.3      3.1      0.00005   0.01034   0.00204  -0.15755
  20 3221719.4      3.1     -0.00008   0.03129   0.00556  -0.47479

Total run time:       72.425 sec

           *** ORCA-CIS/TD-DFT FINISHED WITHOUT ERROR ***

-----------------------
CIS/TD-DFT TOTAL ENERGY
-----------------------

    E(SCF)  =   -226.076627909 Eh
    DE(CIS) =     14.259503832 Eh (Root  1)
    ----------------------------- ---------
    E(tot)  =   -211.817124077 Eh



-------------------------------------------------------------------------------
                          DFT DISPERSION CORRECTION                            
                                                                               
                              DFTD3 V3.1  Rev 1                                
                          USING Becke-Johnson damping                          
-------------------------------------------------------------------------------
The B3LYP functional is recognized
Active option DFTDOPT                   ...         4   

molecular C6(AA) [au] = 891.601940 


            DFT-D V3
 parameters
 s6 scaling factor         :     1.0000 
 a1 scaling factor         :     0.3981 
 s8 scaling factor         :     1.9889 
 a2 scaling factor         :     4.4211 
 ad hoc parameters k1-k3   :    16.0000     1.3333    -4.0000 

 Edisp/kcal,au: -7.123499622224  -0.011352018028 
 E6   /kcal   :  -3.364470147 
 E8   /kcal   :  -3.759029476 
 % E8         :  52.769420578 

-------------------------   ----------------
Dispersion correction           -0.011352018
-------------------------   ----------------


-------------------------   --------------------
FINAL SINGLE POINT ENERGY      -226.087979926563
-------------------------   --------------------


                            ***************************************
                            *     ORCA property calculations      *
                            ***************************************

                                    ---------------------
                                    Active property flags
                                    ---------------------
   (+) Dipole Moment


------------------------------------------------------------------------------
                       ORCA ELECTRIC PROPERTIES CALCULATION
------------------------------------------------------------------------------

Dipole Moment Calculation                       ... on
Quadrupole Moment Calculation                   ... off
Polarizability Calculation                      ... off
GBWName                                         ... C:\Users\dmg81179\Desktop\Code_Development\2018-March-28_ORCA_code\working_dir\tddft.gbw
Electron density file                           ... C:\Users\dmg81179\Desktop\Code_Development\2018-March-28_ORCA_code\working_dir\tddft.scfp.tmp
The origin for moment calculation is the CENTER OF MASS  = (-21.238210, 13.987957 -0.152608)

-------------
DIPOLE MOMENT
-------------
                                X             Y             Z
Electronic contribution:      0.35798      -0.68826       0.01541
Nuclear contribution   :     -1.81132       0.76787      -0.10989
                        -----------------------------------------
Total Dipole Moment    :     -1.45335       0.07960      -0.09448
                        -----------------------------------------
Magnitude (a.u.)       :      1.45859
Magnitude (Debye)      :      3.70744


Timings for individual modules:

Sum of individual times         ...       95.907 sec (=   1.598 min)
GTO integral calculation        ...        0.499 sec (=   0.008 min)   0.5 %
SCF iterations                  ...       21.939 sec (=   0.366 min)  22.9 %
CIS module                      ...       73.469 sec (=   1.224 min)  76.6 %
                             ****ORCA TERMINATED NORMALLY****
TOTAL RUN TIME: 0 days 0 hours 1 minutes 36 seconds 469 msec
