
                                 *****************
                                 * O   R   C   A *
                                 *****************

           --- An Ab Initio, DFT and Semiempirical electronic structure package ---

                  #######################################################
                  #                        -***-                        #
                  #          Department of theory and spectroscopy      #
                  #               Directorship: Frank Neese             #
                  #        Max Planck Institute fuer Kohlenforschung    #
                  #                Kaiser Wilhelm Platz 1               #
                  #                 D-45470 Muelheim/Ruhr               #
                  #                      Germany                        #
                  #                                                     #
                  #                  All rights reserved                #
                  #                        -***-                        #
                  #######################################################


                         Program Version 4.1.0  - RELEASE  -


 With contributions from (in alphabetic order):
   Daniel Aravena         : Magnetic Properties
   Michael Atanasov       : Ab Initio Ligand Field Theory
   Alexander A. Auer      : GIAO ZORA
   Ute Becker             : Parallelization
   Giovanni Bistoni       : ED, Open-shell LED
   Martin Brehm           : Molecular dynamics
   Dmytro Bykov           : SCF Hessian
   Vijay G. Chilkuri      : MRCI spin determinant printing
   Dipayan Datta          : RHF DLPNO-CCSD density
   Achintya Kumar Dutta   : EOM-CC, STEOM-CC
   Dmitry Ganyushin       : Spin-Orbit,Spin-Spin,Magnetic field MRCI
   Miquel Garcia          : C-PCM Hessian
   Yang Guo               : DLPNO-NEVPT2, CIM, IAO-localization
   Andreas Hansen         : Spin unrestricted coupled pair/coupled cluster methods
   Benjamin Helmich-Paris : CASSCF linear response (MC-RPA)
   Lee Huntington         : MR-EOM, pCC
   Robert Izsak           : Overlap fitted RIJCOSX, COSX-SCS-MP3, EOM
   Christian Kollmar      : KDIIS, OOCD, Brueckner-CCSD(T), CCSD density
   Simone Kossmann        : Meta GGA functionals, TD-DFT gradient, OOMP2, MP2 Hessian
   Martin Krupicka        : AUTO-CI
   Lucas Lang             : DCDCAS
   Dagmar Lenk            : GEPOL surface, SMD
   Dimitrios Liakos       : Extrapolation schemes; parallel MDCI
   Dimitrios Manganas     : ROCIS; embedding schemes
   Dimitrios Pantazis     : SARC Basis sets
   Taras Petrenko         : DFT Hessian,TD-DFT gradient, ASA, ECA, R-Raman, ABS, FL, XAS/XES, NRVS
   Peter Pinski           : DLPNO-MP2, DLPNO-MP2 Gradient
   Christoph Reimann      : Effective Core Potentials
   Marius Retegan         : Local ZFS, SOC
   Christoph Riplinger    : Optimizer, TS searches, QM/MM, DLPNO-CCSD(T), (RO)-DLPNO pert. Triples
   Tobias Risthaus        : Range-separated hybrids, TD-DFT gradient, RPA, STAB
   Michael Roemelt        : Restricted open shell CIS
   Masaaki Saitow         : Open-shell DLPNO
   Barbara Sandhoefer     : DKH picture change effects
   Avijit Sen             : IP-ROCIS
   Kantharuban Sivalingam : CASSCF convergence, NEVPT2, FIC-MRCI
   Bernardo de Souza      : ESD, SOC TD-DFT
   Georgi Stoychev        : AutoAux, RI-MP2 NMR
   Willem Van den Heuvel  : Paramagnetic NMR
   Boris Wezisla          : Elementary symmetry handling
   Frank Wennmohs         : Technical directorship


 We gratefully acknowledge several colleagues who have allowed us to
 interface, adapt or use parts of their codes:
   Stefan Grimme, W. Hujo, H. Kruse,             : VdW corrections, initial TS optimization,
                  C. Bannwarth                     DFT functionals, gCP, sTDA/sTD-DF
   Ed Valeev                                     : LibInt (2-el integral package), F12 methods
   Garnet Chan, S. Sharma, J. Yang, R. Olivares  : DMRG
   Ulf Ekstrom                                   : XCFun DFT Library
   Mihaly Kallay                                 : mrcc  (arbitrary order and MRCC methods)
   Andreas Klamt, Michael Diedenhofen            : otool_cosmo (COSMO solvation model)
   Jiri Pittner, Ondrej Demel                    : Mk-CCSD
   Frank Weinhold                                : gennbo (NPA and NBO analysis)
   Christopher J. Cramer and Donald G. Truhlar   : smd solvation model
   Lars Goerigk                                  : TD-DFT with DH, B97 family of functionals
   V. Asgeirsson, H. Jonsson                     : NEB implementation
   FAccTs GmbH                                   : IRC, NEB, NEB-TS, Multilevel


 Your calculation uses the libint2 library for the computation of 2-el integrals
 For citations please refer to: http://libint.valeyev.net

 This ORCA versions uses:
   CBLAS   interface :  Fast vector & matrix operations
   LAPACKE interface :  Fast linear algebra routines
   SCALAPACK package :  Parallel linear algebra routines




***************************************
The coordinates will be read from file: /Users/lailaal-madhagi/Desktop/Testing_XAS_Analysis_code/2-1-3_Benzotrithiadizole//Results_dir_Benzotrithiadizole_geom_element_N_2019-11-14_07-17-39//GTE1_Benzotrithiadizole_geom_2019-11-14_07-17-55//opt.xyz
***************************************


----- Orbital basis set information -----
Your calculation utilizes the basis: 6-31G*
   H-He, Li-Ne : W. J. Hehre, R. Ditchfield and J.A. Pople, J. Chem. Phys. 56, 2257 (1972).
                 Note: He and Ne are unpublished basis sets taken from the Gaussian program.
                 Note: Li and B from J. D. Dill and J. A. Pople, J. Chem. Phys. 62, 2921 (1975).
   Na - Ar     : M. M. Francl, W. J. Pietro, W. J. Hehre, J. S. Binkley, M. S. Gordon, 
                 D. J. DeFrees and J. A. Pople, J. Chem. Phys. 77, 3654 (1982).
   K - Zn      : V. A. Rassolov, J. A. Pople, M. A. Ratner, and T. L. Windus, J. Chem. Phys. 109, 1223 (1998).

================================================================================
                                        WARNINGS
                       Please study these warnings very carefully!
================================================================================


INFO   : the flag for use of LIBINT has been found!

================================================================================
                                       INPUT FILE
================================================================================
NAME = /Users/lailaal-madhagi/Desktop/Testing_XAS_Analysis_code/2-1-3_Benzotrithiadizole//Results_dir_Benzotrithiadizole_geom_element_N_2019-11-14_07-17-39//GTE1_Benzotrithiadizole_geom_2019-11-14_07-17-55//freq.inp
|  1> ! B3LYP 6-31G* TIGHTSCF Grid3 FinalGrid5 Freq 
|  2> !NormalPrint 
|  3> %output 
|  4> Print[P_Basis] 2 
|  5> Print[P_MOS] 1 
|  6> end 
|  7> *xyzfile 0 1 /Users/lailaal-madhagi/Desktop/Testing_XAS_Analysis_code/2-1-3_Benzotrithiadizole//Results_dir_Benzotrithiadizole_geom_element_N_2019-11-14_07-17-39//GTE1_Benzotrithiadizole_geom_2019-11-14_07-17-55//opt.xyz                           ****END OF INPUT****
================================================================================

                       ****************************
                       * Single Point Calculation *
                       ****************************

---------------------------------
CARTESIAN COORDINATES (ANGSTROEM)
---------------------------------
  C     -3.734880    0.662097   -0.000014
  C     -3.562554   -0.761766    0.000299
  C     -2.665345    1.520162   -0.001911
  C     -2.319211   -1.339966   -0.001284
  C     -1.179553   -0.482501   -0.003283
  C     -1.354051    0.959321   -0.003598
  N     -0.200288    1.639779   -0.005547
  N      0.103234   -0.868064   -0.004995
  S      0.996620    0.512343   -0.006846
  H     -2.786792    2.598509   -0.002163
  H     -4.745339    1.061934    0.001297
  H     -4.448493   -1.391139    0.001838
  H     -2.179839   -2.416159   -0.001062

----------------------------
CARTESIAN COORDINATES (A.U.)
----------------------------
  NO LB      ZA    FRAG     MASS         X           Y           Z
   0 C     6.0000    0    12.011   -7.057899    1.251183   -0.000026
   1 C     6.0000    0    12.011   -6.732251   -1.439529    0.000564
   2 C     6.0000    0    12.011   -5.036772    2.872690   -0.003611
   3 C     6.0000    0    12.011   -4.382673   -2.532170   -0.002426
   4 C     6.0000    0    12.011   -2.229032   -0.911795   -0.006203
   5 C     6.0000    0    12.011   -2.558786    1.812853   -0.006800
   6 N     7.0000    0    14.007   -0.378490    3.098734   -0.010482
   7 N     7.0000    0    14.007    0.195083   -1.640404   -0.009440
   8 S    16.0000    0    32.060    1.883338    0.968188   -0.012938
   9 H     1.0000    0     1.008   -5.266274    4.910471   -0.004087
  10 H     1.0000    0     1.008   -8.967391    2.006765    0.002450
  11 H     1.0000    0     1.008   -8.406433   -2.628871    0.003473
  12 H     1.0000    0     1.008   -4.119298   -4.565878   -0.002007

--------------------------------
INTERNAL COORDINATES (ANGSTROEM)
--------------------------------
 C      0   0   0     0.000000000000     0.00000000     0.00000000
 C      1   0   0     1.434253634610     0.00000000     0.00000000
 C      1   2   0     1.371197861770   121.83854623     0.00000000
 C      2   1   3     1.371211271568   121.84088373     0.00000000
 C      4   2   1     1.426208401664   118.10252166     0.00000000
 C      3   1   2     1.426196717977   118.10429413     0.00000000
 N      6   3   1     1.339476202118   126.31263765   180.00005068
 N      5   4   2     1.339478673651   126.31364373   179.99984005
 S      8   5   4     1.644283031110   106.18157068   179.99990225
 H      3   1   2     1.085164656402   122.31352615   179.99987752
 H      1   2   3     1.086691660791   118.48933289   179.99982029
 H      2   1   3     1.086738099738   118.48928645   179.99998621
 H      4   2   1     1.085179376036   122.31911807   180.00005905

---------------------------
INTERNAL COORDINATES (A.U.)
---------------------------
 C      0   0   0     0.000000000000     0.00000000     0.00000000
 C      1   0   0     2.710346575995     0.00000000     0.00000000
 C      1   2   0     2.591188434164   121.83854623     0.00000000
 C      2   1   3     2.591213775010   121.84088373     0.00000000
 C      4   2   1     2.695143289043   118.10252166     0.00000000
 C      3   1   2     2.695121210073   118.10429413     0.00000000
 N      6   3   1     2.531243184909   126.31263765   180.00005068
 N      5   4   2     2.531247855428   126.31364373   179.99984005
 S      8   5   4     3.107244615451   106.18157068   179.99990225
 H      3   1   2     2.050664010810   122.31352615   179.99987752
 H      1   2   3     2.053549630911   118.48933289   179.99982029
 H      2   1   3     2.053637387802   118.48928645   179.99998621
 H      4   2   1     2.050691826888   122.31911807   180.00005905

---------------------
BASIS SET INFORMATION
---------------------
There are 4 groups of distinct atoms

 Group   1 Type C   : 10s4p1d contracted to 3s2p1d pattern {631/31/1}
 Group   2 Type N   : 10s4p1d contracted to 3s2p1d pattern {631/31/1}
 Group   3 Type S   : 16s10p1d contracted to 4s3p1d pattern {6631/631/1}
 Group   4 Type H   : 4s contracted to 2s pattern {31}

Atom   0C    basis set group =>   1
Atom   1C    basis set group =>   1
Atom   2C    basis set group =>   1
Atom   3C    basis set group =>   1
Atom   4C    basis set group =>   1
Atom   5C    basis set group =>   1
Atom   6N    basis set group =>   2
Atom   7N    basis set group =>   2
Atom   8S    basis set group =>   3
Atom   9H    basis set group =>   4
Atom  10H    basis set group =>   4
Atom  11H    basis set group =>   4
Atom  12H    basis set group =>   4

-------------------------
BASIS SET IN INPUT FORMAT
-------------------------

 # Basis set for element : H 
 NewGTO H 
 S 3 
   1      18.7311370000      0.0334945995
   2       2.8253937000      0.2347269467
   3       0.6401217000      0.8137573184
 S 1 
   1       0.1612778000      1.0000000000
  end;

 # Basis set for element : C 
 NewGTO C 
 S 6 
   1    3047.5249000000      0.0018347002
   2     457.3695100000      0.0140373012
   3     103.9486900000      0.0688426061
   4      29.2101550000      0.2321844206
   5       9.2866630000      0.4679413416
   6       3.1639270000      0.3623120322
 S 3 
   1       7.8682724000     -0.1193324086
   2       1.8812885000     -0.1608542116
   3       0.5442493000      1.1434564826
 P 3 
   1       7.8682724000      0.0689990956
   2       1.8812885000      0.3164239798
   3       0.5442493000      0.7443082524
 S 1 
   1       0.1687144000      1.0000000000
 P 1 
   1       0.1687144000      1.0000000000
 D 1 
   1       0.8000000000      1.0000000000
  end;

 # Basis set for element : N 
 NewGTO N 
 S 6 
   1    4173.5110000000      0.0018347994
   2     627.4579000000      0.0139949958
   3     142.9021000000      0.0685869792
   4      40.2343300000      0.2322409295
   5      12.8202100000      0.4690698576
   6       4.3904370000      0.3604548906
 S 3 
   1      11.6263580000     -0.1149610229
   2       2.7162800000     -0.1691180337
   3       0.7722180000      1.1458522281
 P 3 
   1      11.6263580000      0.0675800232
   2       2.7162800000      0.3239071114
   3       0.7722180000      0.7408952549
 S 1 
   1       0.2120313000      1.0000000000
 P 1 
   1       0.2120313000      1.0000000000
 D 1 
   1       0.8000000000      1.0000000000
  end;

 # Basis set for element : S 
 NewGTO S 
 S 6 
   1   21917.1000000000      0.0018690012
   2    3301.4900000000      0.0142300092
   3     754.1460000000      0.0696960451
   4     212.7110000000      0.2384871542
   5      67.9896000000      0.4833073125
   6      23.0515000000      0.3380742186
 S 6 
   1     423.7350000000     -0.0023767005
   2     100.7100000000     -0.0316930066
   3      32.1599000000     -0.1133170236
   4      11.8079000000      0.0560900117
   5       4.6311000000      0.5922551234
   6       1.8702500000      0.4550060948
 P 6 
   1     423.7350000000      0.0040610003
   2     100.7100000000      0.0306810024
   3      32.1599000000      0.1304520103
   4      11.8079000000      0.3272050259
   5       4.6311000000      0.4528510358
   6       1.8702500000      0.2560420203
 S 3 
   1       2.6158400000     -0.2503731142
   2       0.9221670000      0.0669567631
   3       0.3412870000      1.0545062691
 P 3 
   1       2.6158400000     -0.0145109929
   2       0.9221670000      0.3102628472
   3       0.3412870000      0.7544826285
 S 1 
   1       0.1171670000      1.0000000000
 P 1 
   1       0.1171670000      1.0000000000
 D 1 
   1       0.6500000000      1.0000000000
  end;

------------------------------------------------------------------------------
                           ORCA GTO INTEGRAL CALCULATION
------------------------------------------------------------------------------

                         BASIS SET STATISTICS AND STARTUP INFO

 # of primitive gaussian shells          ...  163
 # of primitive gaussian functions       ...  283
 # of contracted shells                  ...   64
 # of contracted basis functions         ...  138
 Highest angular momentum                ...    2
 Maximum contraction depth               ...    6
 Integral package used                   ... LIBINT
 Integral threshhold            Thresh   ...  2.500e-11
 Primitive cut-off              TCut     ...  2.500e-12


------------------------------ INTEGRAL EVALUATION ----------------------------


 * One electron integrals 
 Pre-screening matrix                    ... done
 Shell pair data                         ... done (   0.001 sec)

-------------------------------------------------------------------------------
                                 ORCA SCF
-------------------------------------------------------------------------------

------------
SCF SETTINGS
------------
Hamiltonian:
 Density Functional     Method          .... DFT(GTOs)
 Exchange Functional    Exchange        .... B88
   X-Alpha parameter    XAlpha          ....  0.666667
   Becke's b parameter  XBeta           ....  0.004200
 Correlation Functional Correlation     .... LYP
 LDA part of GGA corr.  LDAOpt          .... VWN-5
 Gradients option       PostSCFGGA      .... off
 Hybrid DFT is turned on
   Fraction HF Exchange ScalHFX         ....  0.200000
   Scaling of DF-GGA-X  ScalDFX         ....  0.720000
   Scaling of DF-GGA-C  ScalDFC         ....  0.810000
   Scaling of DF-LDA-C  ScalLDAC        ....  1.000000
   Perturbative correction              ....  0.000000
   Density functional embedding theory  .... OFF
   NL short-range parameter             ....  4.800000


General Settings:
 Integral files         IntName         .... /Users/lailaal-madhagi/Desktop/Testing_XAS_Analysis_code/2-1-3_Benzotrithiadizole//Results_dir_Benzotrithiadizole_geom_element_N_2019-11-14_07-17-39//GTE1_Benzotrithiadizole_geom_2019-11-14_07-17-55//freq
 Hartree-Fock type      HFTyp           .... RHF
 Total Charge           Charge          ....    0
 Multiplicity           Mult            ....    1
 Number of Electrons    NEL             ....   70
 Basis Dimension        Dim             ....  138
 Nuclear Repulsion      ENuc            ....    475.4011106440 Eh

Convergence Acceleration:
 DIIS                   CNVDIIS         .... on
   Start iteration      DIISMaxIt       ....    12
   Startup error        DIISStart       ....  0.200000
   # of expansion vecs  DIISMaxEq       ....     5
   Bias factor          DIISBfac        ....   1.050
   Max. coefficient     DIISMaxC        ....  10.000
 Newton-Raphson         CNVNR           .... off
 SOSCF                  CNVSOSCF        .... on
   Start iteration      SOSCFMaxIt      ....   150
   Startup grad/error   SOSCFStart      ....  0.003300
 Level Shifting         CNVShift        .... on
   Level shift para.    LevelShift      ....    0.2500
   Turn off err/grad.   ShiftErr        ....    0.0010
 Zerner damping         CNVZerner       .... off
 Static damping         CNVDamp         .... on
   Fraction old density DampFac         ....    0.7000
   Max. Damping (<1)    DampMax         ....    0.9800
   Min. Damping (>=0)   DampMin         ....    0.0000
   Turn off err/grad.   DampErr         ....    0.1000
 Fernandez-Rico         CNVRico         .... off

SCF Procedure:
 Maximum # iterations   MaxIter         ....   125
 SCF integral mode      SCFMode         .... Direct
   Integral package                     .... LIBINT
 Reset frequency        DirectResetFreq ....    20
 Integral Threshold     Thresh          ....  2.500e-11 Eh
 Primitive CutOff       TCut            ....  2.500e-12 Eh

Convergence Tolerance:
 Convergence Check Mode ConvCheckMode   .... Total+1el-Energy
 Convergence forced     ConvForced      .... 0
 Energy Change          TolE            ....  1.000e-08 Eh
 1-El. energy change                    ....  1.000e-05 Eh
 Orbital Gradient       TolG            ....  1.000e-05
 Orbital Rotation angle TolX            ....  1.000e-05
 DIIS Error             TolErr          ....  5.000e-07


Diagonalization of the overlap matrix:
Smallest eigenvalue                        ... 4.593e-04
Time for diagonalization                   ...    0.003 sec
Threshold for overlap eigenvalues          ... 1.000e-08
Number of eigenvalues below threshold      ... 0
Time for construction of square roots      ...    0.002 sec
Total time needed                          ...    0.006 sec

-------------------
DFT GRID GENERATION
-------------------

General Integration Accuracy     IntAcc      ...  4.340
Radial Grid Type                 RadialGrid  ... Gauss-Chebyshev
Angular Grid (max. acc.)         AngularGrid ... Lebedev-194
Angular grid pruning method      GridPruning ... 3 (G Style)
Weight generation scheme         WeightScheme... Becke
Basis function cutoff            BFCut       ...    1.0000e-11
Integration weight cutoff        WCut        ...    1.0000e-14
Grids for H and He will be reduced by one unit

# of grid points (after initial pruning)     ...  36028 (   0.0 sec)
# of grid points (after weights+screening)   ...  33489 (   0.0 sec)
nearest neighbour list constructed           ...    0.0 sec
Grid point re-assignment to atoms done       ...    0.0 sec
Grid point division into batches done        ...    0.1 sec
Reduced shell lists constructed in    0.2 sec

Total number of grid points                  ...    33489
Total number of batches                      ...      529
Average number of points per batch           ...       63
Average number of grid points per atom       ...     2576
Average number of shells per batch           ...    43.84 (68.51%)
Average number of basis functions per batch  ...    97.67 (70.78%)
Average number of large shells per batch     ...    34.57 (78.85%)
Average number of large basis fcns per batch ...    77.24 (79.08%)
Maximum spatial batch extension              ...  20.36, 17.90, 22.17 au
Average spatial batch extension              ...   3.13,  3.11,  3.81 au

Time for grid setup =    0.269 sec

------------------------------
INITIAL GUESS: MODEL POTENTIAL
------------------------------
Loading Hartree-Fock densities                     ... done
Calculating cut-offs                               ... done
Setting up the integral package                    ... done
Initializing the effective Hamiltonian             ... done
Starting the Coulomb interaction                   ... done (   0.1 sec)
Reading the grid                                   ... done
Mapping shells                                     ... done
Starting the XC term evaluation                    ... done (   0.2 sec)
  promolecular density results
     # of electrons  =     69.997731191
     EX              =    -70.199503389
     EC              =     -2.511679128
     EX+EC           =    -72.711182517
Transforming the Hamiltonian                       ... done (   0.0 sec)
Diagonalizing the Hamiltonian                      ... done (   0.0 sec)
Back transforming the eigenvectors                 ... done (   0.0 sec)
Now organizing SCF variables                       ... done
                      ------------------
                      INITIAL GUESS DONE (   0.7 sec)
                      ------------------
--------------
SCF ITERATIONS
--------------
               ***  Starting incremental Fock matrix formation  ***

                         ----------------------------
                         !        ITERATION     0   !
                         ----------------------------
   Total Energy        :    -738.141881462010 Eh
   Energy Change       :    -738.141881462010 Eh
   MAX-DP              :       0.156894520937
   RMS-DP              :       0.003509122970
   Actual Damping      :       0.7000
   Actual Level Shift  :       0.2500 Eh
   Int. Num. El.       :    69.99995752 (UP=   34.99997876 DN=   34.99997876)
   Exchange            :   -56.72379010
   Correlation         :    -2.97255317


                         ----------------------------
                         !        ITERATION     1   !
                         ----------------------------
   Total Energy        :    -738.294247397578 Eh
   Energy Change       :      -0.152365935568 Eh
   MAX-DP              :       0.105408048467
   RMS-DP              :       0.002333285057
   Actual Damping      :       0.7000
   Actual Level Shift  :       0.2500 Eh
   Int. Num. El.       :    69.99996425 (UP=   34.99998213 DN=   34.99998213)
   Exchange            :   -56.49606292
   Correlation         :    -2.96295327

                               ***Turning on DIIS***

                         ----------------------------
                         !        ITERATION     2   !
                         ----------------------------
   Total Energy        :    -738.345174438406 Eh
   Energy Change       :      -0.050927040828 Eh
   MAX-DP              :       0.129332840548
   RMS-DP              :       0.003450391796
   Actual Damping      :       0.0000
   Actual Level Shift  :       0.2500 Eh
   Int. Num. El.       :    69.99997434 (UP=   34.99998717 DN=   34.99998717)
   Exchange            :   -56.35126710
   Correlation         :    -2.95644272
   DIIS-Error          :       0.031571380190


                         ----------------------------
                         !        ITERATION     3   !
                         ----------------------------
   Total Energy        :    -738.415157774289 Eh
   Energy Change       :      -0.069983335883 Eh
   MAX-DP              :       0.079506791155
   RMS-DP              :       0.001798155871
   Actual Damping      :       0.0000
   Actual Level Shift  :       0.2500 Eh
   Int. Num. El.       :    69.99999969 (UP=   34.99999985 DN=   34.99999985)
   Exchange            :   -56.13827528
   Correlation         :    -2.94659170
   DIIS-Error          :       0.056843625016
   DIIS coefficients:
      0.71026   0.28974


                         ----------------------------
                         !        ITERATION     4   !
                         ----------------------------
   Total Energy        :    -738.442931293497 Eh
   Energy Change       :      -0.027773519208 Eh
   MAX-DP              :       0.011412126393
   RMS-DP              :       0.000570120086
   Actual Damping      :       0.0000
   Actual Level Shift  :       0.2500 Eh
   Int. Num. El.       :    69.99999554 (UP=   34.99999777 DN=   34.99999777)
   Exchange            :   -56.20326827
   Correlation         :    -2.94991962
   DIIS-Error          :       0.012130054005
   DIIS coefficients:
      0.21498  -0.14394   0.92896


                         ----------------------------
                         !        ITERATION     5   !
                         ----------------------------
   Total Energy        :    -738.444982153838 Eh
   Energy Change       :      -0.002050860341 Eh
   MAX-DP              :       0.005677941915
   RMS-DP              :       0.000230193804
   Actual Damping      :       0.0000
   Actual Level Shift  :       0.2500 Eh
   Int. Num. El.       :    69.99999406 (UP=   34.99999703 DN=   34.99999703)
   Exchange            :   -56.23239296
   Correlation         :    -2.95124083
   DIIS-Error          :       0.005851584990
   DIIS coefficients:
      0.04510  -0.09743   0.23231   0.82002

                      *** Initiating the SOSCF procedure ***
                           *** Shutting down DIIS ***
                      *** Re-Reading the Fockian *** 
                      *** Removing any level shift *** 

                         ----------------------------
                         !        ITERATION     6   !
                         ----------------------------
   Total Energy        :    -738.445273964713 Eh
   Energy Change       :      -0.000291810875 Eh
   MAX-DP              :       0.001334503352
   RMS-DP              :       0.000066867632
   Orbital gradient    :       0.000980138318
   Orbital Rotation    :       0.000980138318
   Actual Damping      :       0.0000
   Int. Num. El.       :    69.99999308 (UP=   34.99999654 DN=   34.99999654)
   Exchange            :   -56.24137432
   Correlation         :    -2.95163084

               *** Restarting incremental Fock matrix formation ***

                         ----------------------------
                         !        ITERATION     7   !
                         ----------------------------
   Total Energy        :    -738.445297467418 Eh
   Energy Change       :      -0.000023502704 Eh
   MAX-DP              :       0.001435985169
   RMS-DP              :       0.000049390565
   Orbital gradient    :       0.000309303419
   Orbital Rotation    :       0.001649364045
   Actual Damping      :       0.0000
   Int. Num. El.       :    69.99999344 (UP=   34.99999672 DN=   34.99999672)
   Exchange            :   -56.24184989
   Correlation         :    -2.95166762


                         ----------------------------
                         !        ITERATION     8   !
                         ----------------------------
   Total Energy        :    -738.445299583457 Eh
   Energy Change       :      -0.000002116039 Eh
   MAX-DP              :       0.001307744136
   RMS-DP              :       0.000028187572
   Orbital gradient    :       0.000293907957
   Orbital Rotation    :       0.000592493426
   Actual Damping      :       0.0000
   Int. Num. El.       :    69.99999354 (UP=   34.99999677 DN=   34.99999677)
   Exchange            :   -56.24314261
   Correlation         :    -2.95173599


                         ----------------------------
                         !        ITERATION     9   !
                         ----------------------------
   Total Energy        :    -738.445301116838 Eh
   Energy Change       :      -0.000001533381 Eh
   MAX-DP              :       0.000765537199
   RMS-DP              :       0.000015905284
   Orbital gradient    :       0.000132595254
   Orbital Rotation    :       0.000276559004
   Actual Damping      :       0.0000
   Int. Num. El.       :    69.99999383 (UP=   34.99999692 DN=   34.99999692)
   Exchange            :   -56.24267243
   Correlation         :    -2.95170609


                         ----------------------------
                         !        ITERATION    10   !
                         ----------------------------
   Total Energy        :    -738.445301402890 Eh
   Energy Change       :      -0.000000286052 Eh
   MAX-DP              :       0.000148073347
   RMS-DP              :       0.000005693147
   Orbital gradient    :       0.000080548104
   Orbital Rotation    :       0.000114436582
   Actual Damping      :       0.0000
   Int. Num. El.       :    69.99999380 (UP=   34.99999690 DN=   34.99999690)
   Exchange            :   -56.24230970
   Correlation         :    -2.95169367


                         ----------------------------
                         !        ITERATION    11   !
                         ----------------------------
   Total Energy        :    -738.445301531564 Eh
   Energy Change       :      -0.000000128674 Eh
   MAX-DP              :       0.000193820204
   RMS-DP              :       0.000004125865
   Orbital gradient    :       0.000033088785
   Orbital Rotation    :       0.000086112527
   Actual Damping      :       0.0000
   Int. Num. El.       :    69.99999380 (UP=   34.99999690 DN=   34.99999690)
   Exchange            :   -56.24254019
   Correlation         :    -2.95170280


                         ----------------------------
                         !        ITERATION    12   !
                         ----------------------------
   Total Energy        :    -738.445301554342 Eh
   Energy Change       :      -0.000000022778 Eh
   MAX-DP              :       0.000075398839
   RMS-DP              :       0.000002223702
   Orbital gradient    :       0.000019147859
   Orbital Rotation    :       0.000067072890
   Actual Damping      :       0.0000
   Int. Num. El.       :    69.99999380 (UP=   34.99999690 DN=   34.99999690)
   Exchange            :   -56.24256948
   Correlation         :    -2.95170479


                         ----------------------------
                         !        ITERATION    13   !
                         ----------------------------
   Total Energy        :    -738.445301558401 Eh
   Energy Change       :      -0.000000004058 Eh
   MAX-DP              :       0.000068582715
   RMS-DP              :       0.000001921373
   Orbital gradient    :       0.000023002329
   Orbital Rotation    :       0.000052290406
   Actual Damping      :       0.0000
   Int. Num. El.       :    69.99999380 (UP=   34.99999690 DN=   34.99999690)
   Exchange            :   -56.24252445
   Correlation         :    -2.95170215


                         ----------------------------
                         !        ITERATION    14   !
                         ----------------------------
   Total Energy        :    -738.445301563541 Eh
   Energy Change       :      -0.000000005140 Eh
   MAX-DP              :       0.000043677397
   RMS-DP              :       0.000001260484
   Orbital gradient    :       0.000009863813
   Orbital Rotation    :       0.000016895068
   Actual Damping      :       0.0000
   Int. Num. El.       :    69.99999381 (UP=   34.99999690 DN=   34.99999690)
   Exchange            :   -56.24250227
   Correlation         :    -2.95170103


                         ----------------------------
                         !        ITERATION    15   !
                         ----------------------------
   Total Energy        :    -738.445301567692 Eh
   Energy Change       :      -0.000000004151 Eh
   MAX-DP              :       0.000013666747
   RMS-DP              :       0.000000709475
   Orbital gradient    :       0.000008400050
   Orbital Rotation    :       0.000012680426
   Actual Damping      :       0.0000
   Int. Num. El.       :    69.99999381 (UP=   34.99999690 DN=   34.99999690)
   Exchange            :   -56.24252911
   Correlation         :    -2.95170286


                         ----------------------------
                         !        ITERATION    16   !
                         ----------------------------
   Total Energy        :    -738.445301567517 Eh
   Energy Change       :       0.000000000175 Eh
   MAX-DP              :       0.000016790666
   RMS-DP              :       0.000000422843
   Orbital gradient    :       0.000003667203
   Orbital Rotation    :       0.000006394871
   Actual Damping      :       0.0000
   Int. Num. El.       :    69.99999380 (UP=   34.99999690 DN=   34.99999690)
   Exchange            :   -56.24254008
   Correlation         :    -2.95170298

                  ***Gradient check signals convergence***
              ***Rediagonalizing the Fockian in SOSCF/NRSCF***

               *****************************************************
               *                     SUCCESS                       *
               *           SCF CONVERGED AFTER  17 CYCLES          *
               *****************************************************

Setting up the final grid:

General Integration Accuracy     IntAcc      ...  5.010
Radial Grid Type                 RadialGrid  ... Gauss-Chebyshev
Angular Grid (max. acc.)         AngularGrid ... Lebedev-434
Angular grid pruning method      GridPruning ... 3 (G Style)
Weight generation scheme         WeightScheme... Becke
Basis function cutoff            BFCut       ...    1.0000e-11
Integration weight cutoff        WCut        ...    1.0000e-14
Grids for H and He will be reduced by one unit

# of grid points (after initial pruning)     ... 123876 (   0.0 sec)
# of grid points (after weights+screening)   ... 114171 (   0.1 sec)
nearest neighbour list constructed           ...    0.0 sec
Grid point re-assignment to atoms done       ...    0.0 sec
Grid point division into batches done        ...    0.6 sec
Reduced shell lists constructed in    1.2 sec

Total number of grid points                  ...   114171
Total number of batches                      ...     1791
Average number of points per batch           ...       63
Average number of grid points per atom       ...     8782
Average number of shells per batch           ...    40.63 (63.48%)
Average number of basis functions per batch  ...    90.13 (65.31%)
Average number of large shells per batch     ...    31.57 (77.71%)
Average number of large basis fcns per batch ...    70.21 (77.90%)
Maximum spatial batch extension              ...  21.72, 18.84, 21.88 au
Average spatial batch extension              ...   2.16,  2.13,  2.36 au

Final grid set up in    1.4 sec
Final integration                            ... done (   0.9 sec)
Change in XC energy                          ...     0.000115108
Integrated number of electrons               ...    69.999986694
Previous integrated no of electrons          ...    69.999993804

----------------
TOTAL SCF ENERGY
----------------

Total Energy       :         -738.44518646 Eh          -20094.11509 eV

Components:
Nuclear Repulsion  :          475.40111064 Eh           12936.32189 eV
Electronic Energy  :        -1213.84629710 Eh          -33030.43698 eV
One Electron Energy:        -1952.69474053 Eh          -53135.52525 eV
Two Electron Energy:          738.84844343 Eh           20105.08827 eV

Virial components:
Potential Energy   :        -1474.10846983 Eh          -40112.53075 eV
Kinetic Energy     :          735.66328337 Eh           20018.41566 eV
Virial Ratio       :            2.00378149


DFT components:
N(Alpha)           :       34.999993346788 electrons
N(Beta)            :       34.999993346788 electrons
N(Total)           :       69.999986693576 electrons
E(X)               :      -56.242399730642 Eh       
E(C)               :       -2.951707958716 Eh       
E(XC)              :      -59.194107689358 Eh       
DFET-embed. en.    :        0.000000000000 Eh       

---------------
SCF CONVERGENCE
---------------

  Last Energy change         ...   -8.6970e-10  Tolerance :   1.0000e-08
  Last MAX-Density change    ...    6.1664e-06  Tolerance :   1.0000e-07
  Last RMS-Density change    ...    1.9303e-07  Tolerance :   5.0000e-09
  Last Orbital Gradient      ...    1.7612e-06  Tolerance :   1.0000e-05
  Last Orbital Rotation      ...    6.0753e-06  Tolerance :   1.0000e-05

             **** THE GBW FILE WAS UPDATED (/Users/lailaal-madhagi/Desktop/Testing_XAS_Analysis_code/2-1-3_Benzotrithiadizole//Results_dir_Benzotrithiadizole_geom_element_N_2019-11-14_07-17-39//GTE1_Benzotrithiadizole_geom_2019-11-14_07-17-55//freq.gbw) ****
             **** DENSITY FILE WAS UPDATED (/Users/lailaal-madhagi/Desktop/Testing_XAS_Analysis_code/2-1-3_Benzotrithiadizole//Results_dir_Benzotrithiadizole_geom_element_N_2019-11-14_07-17-39//GTE1_Benzotrithiadizole_geom_2019-11-14_07-17-55//freq.scfp.tmp) ****
             **** ENERGY FILE WAS UPDATED (/Users/lailaal-madhagi/Desktop/Testing_XAS_Analysis_code/2-1-3_Benzotrithiadizole//Results_dir_Benzotrithiadizole_geom_element_N_2019-11-14_07-17-39//GTE1_Benzotrithiadizole_geom_2019-11-14_07-17-55//freq.en.tmp) ****
----------------
ORBITAL ENERGIES
----------------

  NO   OCC          E(Eh)            E(eV) 
   0   2.0000     -88.949037     -2420.4263 
   1   2.0000     -14.361849      -390.8058 
   2   2.0000     -14.361809      -390.8047 
   3   2.0000     -10.234609      -278.4979 
   4   2.0000     -10.234344      -278.4907 
   5   2.0000     -10.201916      -277.6083 
   6   2.0000     -10.201616      -277.6001 
   7   2.0000     -10.199537      -277.5435 
   8   2.0000     -10.199518      -277.5430 
   9   2.0000      -8.018670      -218.1991 
  10   2.0000      -5.983250      -162.8125 
  11   2.0000      -5.977465      -162.6551 
  12   2.0000      -5.975294      -162.5960 
  13   2.0000      -1.012730       -27.5578 
  14   2.0000      -0.886062       -24.1110 
  15   2.0000      -0.854842       -23.2614 
  16   2.0000      -0.757182       -20.6040 
  17   2.0000      -0.753106       -20.4931 
  18   2.0000      -0.645244       -17.5580 
  19   2.0000      -0.608161       -16.5489 
  20   2.0000      -0.597542       -16.2600 
  21   2.0000      -0.506962       -13.7951 
  22   2.0000      -0.495313       -13.4781 
  23   2.0000      -0.479990       -13.0612 
  24   2.0000      -0.448480       -12.2037 
  25   2.0000      -0.445698       -12.1281 
  26   2.0000      -0.389096       -10.5878 
  27   2.0000      -0.383844       -10.4449 
  28   2.0000      -0.376445       -10.2436 
  29   2.0000      -0.353659        -9.6236 
  30   2.0000      -0.327978        -8.9247 
  31   2.0000      -0.316705        -8.6180 
  32   2.0000      -0.296362        -8.0644 
  33   2.0000      -0.261546        -7.1170 
  34   2.0000      -0.239322        -6.5123 
  35   0.0000      -0.082539        -2.2460 
  36   0.0000       0.010887         0.2962 
  37   0.0000       0.011732         0.3193 
  38   0.0000       0.015748         0.4285 
  39   0.0000       0.075306         2.0492 
  40   0.0000       0.093669         2.5489 
  41   0.0000       0.139034         3.7833 
  42   0.0000       0.157437         4.2841 
  43   0.0000       0.172981         4.7071 
  44   0.0000       0.173507         4.7214 
  45   0.0000       0.244347         6.6490 
  46   0.0000       0.245936         6.6923 
  47   0.0000       0.270643         7.3646 
  48   0.0000       0.288304         7.8451 
  49   0.0000       0.292339         7.9549 
  50   0.0000       0.331495         9.0204 
  51   0.0000       0.342836         9.3290 
  52   0.0000       0.375367        10.2143 
  53   0.0000       0.378195        10.2912 
  54   0.0000       0.420507        11.4426 
  55   0.0000       0.497771        13.5450 
  56   0.0000       0.507953        13.8221 
  57   0.0000       0.508347        13.8328 
  58   0.0000       0.544805        14.8249 
  59   0.0000       0.556638        15.1469 
  60   0.0000       0.560158        15.2427 
  61   0.0000       0.582746        15.8573 
  62   0.0000       0.586497        15.9594 
  63   0.0000       0.586757        15.9665 
  64   0.0000       0.614702        16.7269 
  65   0.0000       0.618771        16.8376 
  66   0.0000       0.624074        16.9819 
  67   0.0000       0.637351        17.3432 
  68   0.0000       0.641923        17.4676 
  69   0.0000       0.663827        18.0636 
  70   0.0000       0.730630        19.8815 
  71   0.0000       0.735296        20.0084 
  72   0.0000       0.763350        20.7718 
  73   0.0000       0.782906        21.3039 
  74   0.0000       0.805577        21.9209 
  75   0.0000       0.834183        22.6993 
  76   0.0000       0.835929        22.7468 
  77   0.0000       0.861930        23.4543 
  78   0.0000       0.868906        23.6441 
  79   0.0000       0.884592        24.0710 
  80   0.0000       0.900285        24.4980 
  81   0.0000       0.919629        25.0244 
  82   0.0000       0.967737        26.3335 
  83   0.0000       0.978224        26.6188 
  84   0.0000       0.989385        26.9225 
  85   0.0000       1.014381        27.6027 
  86   0.0000       1.038510        28.2593 
  87   0.0000       1.073032        29.1987 
  88   0.0000       1.113657        30.3041 
  89   0.0000       1.126551        30.6550 
  90   0.0000       1.133440        30.8425 
  91   0.0000       1.217304        33.1245 
  92   0.0000       1.228515        33.4296 
  93   0.0000       1.259171        34.2638 
  94   0.0000       1.329580        36.1797 
  95   0.0000       1.372338        37.3432 
  96   0.0000       1.388316        37.7780 
  97   0.0000       1.401374        38.1333 
  98   0.0000       1.429539        38.8997 
  99   0.0000       1.463681        39.8288 
 100   0.0000       1.481753        40.3205 
 101   0.0000       1.510528        41.1036 
 102   0.0000       1.675377        45.5893 
 103   0.0000       1.702297        46.3219 
 104   0.0000       1.777215        48.3605 
 105   0.0000       1.788139        48.6577 
 106   0.0000       1.820720        49.5443 
 107   0.0000       1.872979        50.9664 
 108   0.0000       1.874806        51.0161 
 109   0.0000       1.874831        51.0167 
 110   0.0000       1.891748        51.4771 
 111   0.0000       1.925060        52.3836 
 112   0.0000       1.955183        53.2032 
 113   0.0000       1.971423        53.6451 
 114   0.0000       2.033351        55.3303 
 115   0.0000       2.084395        56.7193 
 116   0.0000       2.087390        56.8008 
 117   0.0000       2.194629        59.7189 
 118   0.0000       2.216513        60.3144 
 119   0.0000       2.273872        61.8752 
 120   0.0000       2.282641        62.1138 
 121   0.0000       2.285178        62.1829 
 122   0.0000       2.314560        62.9824 
 123   0.0000       2.376059        64.6559 
 124   0.0000       2.425806        66.0095 
 125   0.0000       2.521935        68.6253 
 126   0.0000       2.533395        68.9372 
 127   0.0000       2.545596        69.2692 
 128   0.0000       2.611729        71.0688 
 129   0.0000       2.623597        71.3917 
 130   0.0000       2.672779        72.7300 
 131   0.0000       2.737467        74.4903 
 132   0.0000       2.763935        75.2105 
 133   0.0000       2.800531        76.2063 
 134   0.0000       2.858093        77.7727 
 135   0.0000       2.960003        80.5458 
 136   0.0000       3.147444        85.6463 
 137   0.0000       3.390083        92.2488 
------------------
MOLECULAR ORBITALS
------------------
                      0         1         2         3         4         5   
                 -88.94904 -14.36185 -14.36181 -10.23461 -10.23434 -10.20192
                   2.00000   2.00000   2.00000   2.00000   2.00000   2.00000
                  --------  --------  --------  --------  --------  --------
  0C   1s         0.000000  0.000047  0.000025  0.000274  0.000278 -0.648414
  0C   2s         0.000021  0.000315  0.000275  0.000632  0.000500 -0.022144
  0C   1pz       -0.000000  0.000000 -0.000000 -0.000001  0.000000  0.000001
  0C   1px        0.000044 -0.000110  0.000237  0.000380 -0.000169 -0.000369
  0C   1py        0.000006 -0.000115 -0.000002 -0.000044 -0.000188 -0.000667
  0C   3s         0.000589 -0.008788  0.002406  0.001024 -0.012646  0.010593
  0C   2pz       -0.000000  0.000006 -0.000001  0.000001  0.000009 -0.000001
  0C   2px        0.000080 -0.004329  0.000388 -0.000640 -0.006637  0.000594
  0C   2py        0.000212  0.000860  0.000243  0.000519  0.001213  0.001291
  0C   1dz2       0.000004  0.000045  0.000087  0.000159  0.000053 -0.000098
  0C   1dxz      -0.000000  0.000000  0.000000  0.000000  0.000000  0.000001
  0C   1dyz      -0.000000  0.000000  0.000000  0.000000  0.000000  0.000000
  0C   1dx2y2     0.000005  0.000014  0.000027  0.000019  0.000013 -0.000709
  0C   1dxy       0.000012 -0.000045 -0.000019  0.000029 -0.000125 -0.000346
  1C   1s         0.000000 -0.000039  0.000036  0.000279 -0.000274 -0.746046
  1C   2s         0.000021 -0.000233  0.000348  0.000640 -0.000490 -0.025884
  1C   1pz       -0.000000 -0.000000 -0.000000 -0.000001 -0.000000  0.000001
  1C   1px        0.000044  0.000190  0.000187  0.000356  0.000215 -0.000569
  1C   1py        0.000004 -0.000068  0.000079  0.000136 -0.000140  0.000399
  1C   3s         0.000589  0.009112  0.000032  0.000825  0.012661  0.014901
  1C   2pz       -0.000000 -0.000006  0.000001  0.000001 -0.000010 -0.000002
  1C   2px        0.000129  0.003974 -0.000622 -0.000595  0.006147  0.001726
  1C   2py       -0.000187  0.001765 -0.000626 -0.000700  0.002750 -0.000179
  1C   1dz2       0.000004 -0.000021  0.000096  0.000160 -0.000051  0.000010
  1C   1dxz      -0.000000 -0.000000  0.000000  0.000000 -0.000000  0.000001
  1C   1dyz       0.000000  0.000000  0.000000  0.000000  0.000000 -0.000000
  1C   1dx2y2     0.000010  0.000012  0.000012  0.000029  0.000047 -0.000678
  1C   1dxy      -0.000009 -0.000037  0.000041 -0.000015 -0.000117  0.000056
  2C   1s         0.000004 -0.000073  0.000051 -0.003190  0.003230 -0.074847
  2C   2s         0.000034 -0.000422  0.000500  0.001289 -0.001506 -0.001254
  2C   1pz        0.000000 -0.000000  0.000000 -0.000001  0.000001  0.000001
  2C   1px       -0.000041  0.000289  0.000020  0.000894 -0.000426 -0.000803
  2C   1py       -0.000028 -0.000136 -0.000091 -0.000558  0.000189 -0.000718
  2C   3s        -0.000782  0.014499 -0.004670 -0.004766  0.020701 -0.002091
  2C   2pz       -0.000001  0.000002 -0.000001  0.000000  0.000002 -0.000002
  2C   2px        0.000287  0.001069 -0.000265 -0.001046  0.001794  0.001061
  2C   2py        0.000636 -0.009200  0.004356  0.002647 -0.012109  0.000825
  2C   1dz2       0.000006 -0.000157  0.000143 -0.000394  0.000350 -0.000336
  2C   1dxz      -0.000000  0.000000 -0.000000 -0.000002  0.000002 -0.000001
  2C   1dyz       0.000000  0.000000 -0.000000  0.000001 -0.000001 -0.000001
  2C   1dx2y2     0.000023 -0.000253  0.000245  0.000614 -0.000656  0.000123
  2C   1dxy      -0.000021 -0.000190  0.000152 -0.000644  0.000439  0.000736
  3C   1s         0.000004  0.000084  0.000030 -0.003140 -0.003281 -0.086856
  3C   2s         0.000034  0.000538  0.000372  0.001265  0.001526 -0.001460
  3C   1pz        0.000000  0.000000 -0.000000 -0.000001 -0.000001  0.000001
  3C   1px       -0.000047 -0.000240  0.000062  0.000729  0.000380 -0.001069
  3C   1py        0.000017 -0.000170  0.000142  0.000750  0.000297  0.000537
  3C   3s        -0.000782 -0.015215 -0.000731 -0.004440 -0.020772 -0.003733
  3C   2pz       -0.000000  0.000002  0.000000  0.000002  0.000003 -0.000002
  3C   2px        0.000430  0.001321  0.000453 -0.000402  0.001141  0.001474
  3C   2py       -0.000549 -0.009991 -0.001751 -0.002629 -0.012230 -0.001390
  3C   1dz2       0.000006  0.000189  0.000097 -0.000388 -0.000356 -0.000393
  3C   1dxz      -0.000000 -0.000000 -0.000000 -0.000002 -0.000002 -0.000002
  3C   1dyz      -0.000000  0.000000  0.000000 -0.000001 -0.000001  0.000001
  3C   1dx2y2     0.000011  0.000376  0.000197  0.000240  0.000382  0.000532
  3C   1dxy       0.000029 -0.000055 -0.000007  0.000844  0.000706 -0.000666
  4C   1s         0.000017 -0.000188 -0.000076 -0.698057 -0.709183  0.000213
  4C   2s         0.000072 -0.000519  0.000387 -0.024621 -0.027979  0.000572
  4C   1pz       -0.000000 -0.000001 -0.000001  0.000001  0.000000  0.000000
  4C   1px       -0.000011  0.000860  0.000459 -0.000624 -0.000161 -0.000329
  4C   1py        0.000045 -0.000344 -0.000027  0.000641 -0.000634 -0.000032
  4C   3s        -0.001045 -0.004663 -0.005703  0.008768  0.029909  0.001413
  4C   2pz        0.000002  0.000038  0.000005  0.000005  0.000029 -0.000002
  4C   2px       -0.001333 -0.027029 -0.003944 -0.003704 -0.022654  0.001440
  4C   2py       -0.000106  0.002972  0.000678  0.000420  0.009628 -0.000649
  4C   1dz2       0.000071 -0.000307 -0.000117  0.000385  0.001117 -0.000017
  4C   1dxz       0.000000 -0.000001 -0.000001  0.000003  0.000003 -0.000000
  4C   1dyz       0.000000  0.000001  0.000000 -0.000000  0.000000 -0.000000
  4C   1dx2y2    -0.000054  0.000606  0.000352 -0.001311  0.000025  0.000102
  4C   1dxy      -0.000014 -0.000505 -0.000291 -0.000061  0.000194  0.000052
  5C   1s         0.000017  0.000161 -0.000123 -0.709053  0.698189  0.000133
  5C   2s         0.000072  0.000602  0.000239 -0.025055  0.027591  0.000595
  5C   1pz        0.000000  0.000001 -0.000001  0.000001 -0.000000  0.000000
  5C   1px       -0.000000 -0.000612  0.000621 -0.000457  0.000300 -0.000313
  5C   1py       -0.000046 -0.000485  0.000271 -0.000762 -0.000589 -0.000064
  5C   3s        -0.001045  0.003015 -0.006719  0.009235 -0.029769  0.000755
  5C   2pz        0.000002 -0.000038  0.000016  0.000006 -0.000034 -0.000003
  5C   2px       -0.001320  0.023701 -0.010195 -0.003806  0.019647  0.001887
  5C   2py       -0.000215  0.008594 -0.003975 -0.001521  0.014732  0.001114
  5C   1dz2       0.000071  0.000266 -0.000193  0.000402 -0.001111 -0.000007
  5C   1dxz       0.000000  0.000001 -0.000001  0.000003 -0.000003 -0.000000
  5C   1dyz       0.000000  0.000001 -0.000001  0.000001 -0.000001  0.000000
  5C   1dx2y2    -0.000054 -0.000247  0.000250 -0.001188 -0.000130  0.000098
  5C   1dxy      -0.000013 -0.000593  0.000596 -0.000556  0.000151  0.000016
  6N   1s        -0.000070  0.605304 -0.790283 -0.000107  0.000155  0.000028
  6N   2s        -0.000538  0.020992 -0.026489 -0.000691  0.001198  0.000309
  6N   1pz       -0.000000  0.000001 -0.000001  0.000001 -0.000001  0.000000
  6N   1px        0.000038 -0.000360  0.000467 -0.000868  0.000601 -0.000019
  6N   1py        0.000002 -0.001475  0.001898 -0.000399  0.000448  0.000027
  6N   3s         0.002295 -0.027499  0.025432  0.005712 -0.012324 -0.002043
  6N   2pz        0.000000 -0.000012  0.000007  0.000003 -0.000009 -0.000002
  6N   2px        0.000030  0.006725 -0.003195 -0.001240  0.005781  0.000969
  6N   2py       -0.001274  0.006356 -0.006892 -0.002406  0.002713  0.000384
  6N   1dz2      -0.000329  0.000270 -0.000231 -0.000834  0.000956  0.000053
  6N   1dxz      -0.000001  0.000001 -0.000000 -0.000003  0.000004  0.000000
  6N   1dyz       0.000000  0.000000  0.000000 -0.000002  0.000002  0.000000
  6N   1dx2y2    -0.000028 -0.000019 -0.000132  0.000499 -0.000548 -0.000034
  6N   1dxy      -0.000340 -0.000106 -0.000214  0.000994 -0.001068 -0.000066
  7N   1s        -0.000070 -0.790335 -0.605237 -0.000104 -0.000157  0.000028
  7N   2s        -0.000538 -0.027171 -0.020105 -0.000672 -0.001209  0.000299
  7N   1pz       -0.000000 -0.000001 -0.000000  0.000001  0.000001  0.000000
  7N   1px        0.000037  0.000913  0.000692 -0.000927 -0.000705 -0.000018
  7N   1py        0.000007 -0.001751 -0.001321  0.000176  0.000294 -0.000033
  7N   3s         0.002295  0.033179  0.017390  0.005519  0.012412 -0.001817
  7N   2pz       -0.000000  0.000011  0.000002  0.000002  0.000009 -0.000001
  7N   2px       -0.000275 -0.009007 -0.002487 -0.001680 -0.006289  0.000997
  7N   2py        0.001244  0.005956  0.004536  0.002021  0.001287 -0.000089
  7N   1dz2      -0.000329 -0.000320 -0.000152 -0.000819 -0.000969  0.000057
  7N   1dxz      -0.000001 -0.000001 -0.000000 -0.000003 -0.000004  0.000000
  7N   1dyz      -0.000001 -0.000000 -0.000000  0.000001  0.000001 -0.000000
  7N   1dx2y2    -0.000182  0.000007 -0.000226  0.000887  0.000995 -0.000064
  7N   1dxy       0.000288 -0.000049  0.000146 -0.000639 -0.000702  0.000042
  8S   1s         0.996599 -0.000003 -0.000020 -0.000002 -0.000000  0.000003
  8S   2s         0.012517 -0.000011 -0.000083  0.000144  0.000001  0.000012
  8S   1pz        0.000000  0.000000  0.000000  0.000000  0.000000 -0.000000
  8S   1px       -0.000214 -0.000012 -0.000136 -0.000100  0.000002  0.000004
  8S   1py       -0.000026 -0.000052 -0.000010 -0.000012 -0.000025 -0.000001
  8S   3s        -0.005031 -0.000164 -0.001233  0.000339  0.000003  0.000143
  8S   2pz       -0.000001 -0.000001 -0.000003 -0.000001 -0.000000  0.000000
  8S   2px        0.000919  0.000052  0.001820  0.000662 -0.000019 -0.000039
  8S   2py        0.000111  0.001568  0.000013  0.000079  0.000199  0.000004
  8S   4s         0.001527 -0.000953 -0.007184 -0.004048 -0.000032 -0.000497
  8S   3pz        0.000000 -0.000001 -0.000005 -0.000004  0.000000 -0.000000
  8S   3px       -0.000071  0.000394  0.003657  0.002796  0.000202  0.000196
  8S   3py       -0.000009  0.000799  0.000343  0.000350 -0.001486  0.000024
  8S   1dz2       0.000272  0.000031  0.000236  0.000451  0.000004  0.000026
  8S   1dxz       0.000001  0.000000  0.000001  0.000002  0.000000  0.000000
  8S   1dyz       0.000000  0.000000  0.000000  0.000000  0.000000  0.000000
  8S   1dx2y2     0.000075  0.000028 -0.000250 -0.000424  0.000047  0.000025
  8S   1dxy       0.000018 -0.000253 -0.000027 -0.000102 -0.000206  0.000004
  9H   1s        -0.000052  0.000259 -0.000133  0.000077  0.000199  0.000256
  9H   2s        -0.000158  0.002498 -0.001559 -0.000974  0.003004 -0.000431
 10H   1s        -0.000024 -0.000074 -0.000036 -0.000071 -0.000147  0.001001
 10H   2s        -0.000068 -0.000760 -0.000336 -0.000707 -0.001238 -0.002712
 11H   1s        -0.000024  0.000062 -0.000054 -0.000073  0.000145  0.001119
 11H   2s        -0.000068  0.000645 -0.000523 -0.000726  0.001227 -0.002864
 12H   1s        -0.000052 -0.000285 -0.000061  0.000080 -0.000198  0.000278
 12H   2s        -0.000158 -0.002818 -0.000854 -0.000927 -0.003019 -0.000645
                      6         7         8         9        10        11   
                 -10.20162 -10.19954 -10.19952  -8.01867  -5.98325  -5.97747
                   2.00000   2.00000   2.00000   2.00000   2.00000   2.00000
                  --------  --------  --------  --------  --------  --------
  0C   1s         0.744506 -0.040132 -0.118274 -0.000000 -0.000054  0.000000
  0C   2s         0.028316 -0.002319 -0.006483  0.000081 -0.000353 -0.000020
  0C   1pz       -0.000001  0.000000  0.000002 -0.000000 -0.000000  0.000000
  0C   1px        0.000648 -0.000259 -0.001260  0.000198  0.000006 -0.000055
  0C   1py       -0.000999 -0.000279 -0.000754  0.000030  0.000071  0.000107
  0C   3s        -0.031482  0.011004  0.015211  0.002847  0.004596 -0.001717
  0C   2pz        0.000009 -0.000006 -0.000009 -0.000001 -0.000003  0.000000
  0C   2px       -0.007434  0.004741  0.006304  0.000409  0.002667  0.000310
  0C   2py        0.004963 -0.001665  0.000081  0.001029 -0.002448 -0.001220
  0C   1dz2      -0.000758  0.000285  0.000661  0.000010 -0.000086  0.000011
  0C   1dxz      -0.000001  0.000001  0.000002 -0.000000 -0.000000  0.000000
  0C   1dyz      -0.000001  0.000001  0.000002 -0.000000 -0.000000  0.000000
  0C   1dx2y2    -0.000913  0.000062 -0.000147  0.000017 -0.000044  0.000021
  0C   1dxy       0.000139 -0.000339 -0.001130  0.000058  0.000046 -0.000021
  1C   1s        -0.646913  0.121444 -0.022327 -0.000000  0.000054  0.000001
  1C   2s        -0.024956  0.006742 -0.001121  0.000081  0.000353 -0.000019
  1C   1pz        0.000001 -0.000002  0.000001 -0.000000  0.000000  0.000000
  1C   1px       -0.000316  0.001379 -0.000406  0.000199 -0.000023 -0.000028
  1C   1py       -0.001191 -0.000480  0.000029  0.000018  0.000068 -0.000117
  1C   3s         0.029704 -0.018606 -0.002228  0.002847 -0.004592 -0.001729
  1C   2pz       -0.000011  0.000012  0.000002 -0.000001  0.000004 -0.000001
  1C   2px        0.005855 -0.007406 -0.000690  0.000642 -0.002006  0.000005
  1C   2py        0.006683 -0.002579 -0.001714 -0.000902 -0.003016  0.001250
  1C   1dz2       0.000765 -0.000716  0.000072  0.000010  0.000086  0.000011
  1C   1dxz       0.000000 -0.000002  0.000000 -0.000000  0.000000  0.000000
  1C   1dyz       0.000000  0.000001 -0.000000  0.000000 -0.000000 -0.000000
  1C   1dx2y2     0.000847  0.000621 -0.000231  0.000042  0.000018  0.000009
  1C   1dxy       0.000545 -0.000975  0.000167 -0.000043  0.000061  0.000029
  2C   1s         0.099679  0.247310  0.955827  0.000022  0.000078  0.000066
  2C   2s         0.001872  0.009595  0.035378  0.000124  0.000392  0.000494
  2C   1pz       -0.000001  0.000000  0.000000  0.000000  0.000000 -0.000000
  2C   1px        0.000824  0.000058 -0.000046 -0.000221 -0.000279  0.000044
  2C   1py        0.000459 -0.000381 -0.001069 -0.000133  0.000098  0.000043
  2C   3s         0.011623 -0.012767 -0.032934 -0.003626 -0.013480 -0.002998
  2C   2pz        0.000003 -0.000001 -0.000001 -0.000003  0.000006  0.000005
  2C   2px       -0.000365 -0.000487 -0.001327  0.001419 -0.005171 -0.003676
  2C   2py       -0.006269  0.004689  0.007295  0.003028  0.003202  0.000161
  2C   1dz2       0.000428 -0.000123 -0.000648  0.000036  0.000145  0.000134
  2C   1dxz       0.000002 -0.000000 -0.000002  0.000000  0.000001  0.000000
  2C   1dyz       0.000001 -0.000000 -0.000001  0.000000  0.000000 -0.000000
  2C   1dx2y2    -0.000291  0.000085  0.000343  0.000074 -0.000081 -0.000127
  2C   1dxy      -0.000770  0.000075  0.000397 -0.000087 -0.000060  0.000144
  3C   1s        -0.087453 -0.955451  0.249455  0.000022 -0.000078  0.000066
  3C   2s        -0.001649 -0.035574  0.008847  0.000124 -0.000393  0.000493
  3C   1pz        0.000001  0.000000  0.000000  0.000000 -0.000000 -0.000000
  3C   1px       -0.000768  0.000277 -0.000115 -0.000246  0.000247  0.000054
  3C   1py        0.000177 -0.001083  0.000165  0.000076  0.000162 -0.000031
  3C   3s        -0.011242  0.034969 -0.004875 -0.003627  0.013487 -0.002964
  3C   2pz       -0.000000 -0.000002  0.000000 -0.000002 -0.000008  0.000006
  3C   2px        0.001660 -0.000705 -0.000345  0.002100  0.004266 -0.003521
  3C   2py       -0.005869  0.008733  0.000480 -0.002602  0.004346 -0.001022
  3C   1dz2      -0.000378  0.000625 -0.000208  0.000036 -0.000146  0.000133
  3C   1dxz      -0.000002  0.000002 -0.000001  0.000000 -0.000001  0.000000
  3C   1dyz       0.000001 -0.000000  0.000000 -0.000000 -0.000000  0.000000
  3C   1dx2y2     0.000546 -0.000479  0.000142  0.000026  0.000100 -0.000045
  3C   1dxy      -0.000459  0.000181 -0.000070  0.000111 -0.000015 -0.000187
  4C   1s         0.000597  0.004530 -0.001075  0.000079 -0.000142 -0.000041
  4C   2s        -0.000193  0.002071 -0.000522  0.000280 -0.000676  0.000196
  4C   1pz        0.000000  0.000002 -0.000001  0.000000  0.000000 -0.000001
  4C   1px       -0.000054 -0.000878  0.000349 -0.000140 -0.000129  0.000626
  4C   1py       -0.000139 -0.000738  0.000062  0.000201 -0.000325  0.000260
  4C   3s         0.004487 -0.014485 -0.001088 -0.005154  0.012057  0.007877
  4C   2pz        0.000007 -0.000010  0.000001  0.000009 -0.000028  0.000000
  4C   2px       -0.004782  0.006279 -0.000398 -0.006278  0.014891  0.000494
  4C   2py       -0.000079  0.001112 -0.001199 -0.000429  0.015715 -0.002582
  4C   1dz2      -0.000075 -0.000600  0.000158  0.000265 -0.000357 -0.000069
  4C   1dxz      -0.000000 -0.000002  0.000001  0.000001 -0.000001 -0.000001
  4C   1dyz      -0.000000 -0.000002  0.000000  0.000000 -0.000000 -0.000000
  4C   1dx2y2     0.000049  0.000201 -0.000054 -0.000299 -0.000138  0.000260
  4C   1dxy       0.000158  0.001079 -0.000148  0.000016 -0.000108  0.000204
  5C   1s        -0.000625 -0.001266 -0.004477  0.000079  0.000142 -0.000041
  5C   2s         0.000110 -0.000552 -0.002063  0.000279  0.000676  0.000197
  5C   1pz       -0.000000 -0.000000 -0.000001  0.000000 -0.000000 -0.000001
  5C   1px        0.000131  0.000192  0.001070 -0.000088  0.000202  0.000670
  5C   1py       -0.000115 -0.000267 -0.000432 -0.000229 -0.000284 -0.000104
  5C   3s        -0.004631  0.008002  0.012129 -0.005152 -0.012075  0.007848
  5C   2pz       -0.000007  0.000004  0.000009  0.000009  0.000022 -0.000001
  5C   2px        0.004438 -0.002506 -0.005889 -0.006197 -0.018209 -0.000182
  5C   2py        0.000919 -0.001135  0.000154 -0.001082  0.011703  0.002654
  5C   1dz2       0.000077  0.000155  0.000601  0.000265  0.000358 -0.000068
  5C   1dxz       0.000000  0.000001  0.000002  0.000001  0.000001 -0.000001
  5C   1dyz      -0.000000 -0.000000 -0.000001  0.000000  0.000000  0.000000
  5C   1dx2y2    -0.000132 -0.000229 -0.000649 -0.000257  0.000172  0.000326
  5C   1dxy       0.000117  0.000328  0.000805 -0.000153 -0.000032 -0.000061
  6N   1s         0.000005  0.000019 -0.000008 -0.000226 -0.000093  0.000073
  6N   2s         0.000047  0.000172 -0.000170 -0.002011 -0.001522  0.001595
  6N   1pz       -0.000000 -0.000000 -0.000000 -0.000000 -0.000000  0.000000
  6N   1px        0.000044  0.000027  0.000101  0.000216  0.000095 -0.000242
  6N   1py       -0.000004 -0.000012 -0.000032 -0.000025 -0.000120  0.000189
  6N   3s        -0.001487 -0.000608  0.000642  0.009722  0.012654 -0.008190
  6N   2pz       -0.000000 -0.000001 -0.000000  0.000003  0.000000 -0.000001
  6N   2px        0.000097  0.000441  0.000102 -0.000239  0.002007 -0.000077
  6N   2py        0.000402  0.000391 -0.000290 -0.005752 -0.007948  0.004028
  6N   1dz2      -0.000031  0.000030 -0.000091 -0.001245 -0.000803  0.000647
  6N   1dxz      -0.000000  0.000000 -0.000000 -0.000003 -0.000002  0.000001
  6N   1dyz      -0.000000  0.000000 -0.000000  0.000001  0.000001  0.000000
  6N   1dx2y2     0.000021 -0.000050 -0.000137 -0.000074  0.000222  0.000448
  6N   1dxy       0.000010 -0.000053  0.000023 -0.001057 -0.000674  0.000368
  7N   1s        -0.000009 -0.000002 -0.000020 -0.000226  0.000093  0.000074
  7N   2s        -0.000090  0.000065 -0.000233 -0.002011  0.001519  0.001598
  7N   1pz        0.000000  0.000000 -0.000000 -0.000000  0.000000  0.000000
  7N   1px       -0.000039 -0.000090  0.000024  0.000203 -0.000063 -0.000190
  7N   1py       -0.000009 -0.000057  0.000011  0.000076 -0.000139 -0.000241
  7N   3s         0.001759 -0.000266  0.000841  0.009723 -0.012636 -0.008222
  7N   2pz        0.000000  0.000000  0.000000  0.000000  0.000003  0.000000
  7N   2px       -0.000332 -0.000280 -0.000440 -0.001605 -0.000055  0.000886
  7N   2py        0.000384 -0.000133  0.000389  0.005530 -0.008189 -0.003950
  7N   1dz2       0.000023  0.000065 -0.000070 -0.001245  0.000802  0.000649
  7N   1dxz       0.000000 -0.000000 -0.000000 -0.000003  0.000002  0.000001
  7N   1dyz       0.000000  0.000000  0.000000 -0.000002  0.000002  0.000001
  7N   1dx2y2    -0.000014  0.000130  0.000006 -0.000555  0.000115  0.000568
  7N   1dxy      -0.000007  0.000062 -0.000062  0.000902 -0.000700 -0.000120
  8S   1s        -0.000000  0.000000 -0.000000  0.280756 -0.000003  0.002313
  8S   2s        -0.000001  0.000007 -0.000012 -1.026882  0.000010 -0.008645
  8S   1pz        0.000000  0.000000 -0.000000 -0.000010  0.000201  0.001480
  8S   1px        0.000002 -0.000006  0.000013  0.006946  0.120120 -0.983228
  8S   1py       -0.000017 -0.000010 -0.000004  0.000840 -0.982836 -0.120166
  8S   3s        -0.000010  0.000029 -0.000050 -0.040059 -0.000002  0.002377
  8S   2pz       -0.000000 -0.000000  0.000000 -0.000007  0.000007  0.000049
  8S   2px       -0.000013  0.000033 -0.000073  0.004552  0.004225 -0.032258
  8S   2py        0.000127  0.000067  0.000028  0.000551 -0.034600 -0.003946
  8S   4s         0.000035 -0.000121  0.000205  0.011566 -0.000006  0.005217
  8S   3pz        0.000000 -0.000000  0.000000  0.000002 -0.000001 -0.000009
  8S   3px       -0.000014  0.000075 -0.000097 -0.001029 -0.000795  0.005863
  8S   3py        0.000003 -0.000099 -0.000075 -0.000125  0.006516  0.000717
  8S   1dz2      -0.000002  0.000001 -0.000002  0.001348  0.000002 -0.001598
  8S   1dxz      -0.000000  0.000000 -0.000000  0.000003 -0.000000 -0.000005
  8S   1dyz       0.000000  0.000000  0.000000  0.000001 -0.000005 -0.000001
  8S   1dx2y2     0.000004 -0.000020  0.000051  0.000442 -0.000799  0.000825
  8S   1dxy      -0.000025 -0.000037 -0.000007  0.000109  0.003248  0.000207
  9H   1s        -0.000184 -0.000408 -0.001249 -0.000239  0.000061  0.000188
  9H   2s         0.001585 -0.000076  0.002558 -0.000788 -0.000334 -0.000140
 10H   1s        -0.000916  0.000060  0.000047 -0.000113  0.000138  0.000155
 10H   2s         0.001286  0.000718  0.000735 -0.000322  0.000785  0.000362
 11H   1s         0.000767 -0.000068 -0.000030 -0.000113 -0.000138  0.000155
 11H   2s        -0.000895 -0.000996 -0.000270 -0.000322 -0.000786  0.000360
 12H   1s         0.000145  0.001290 -0.000252 -0.000239 -0.000061  0.000188
 12H   2s        -0.001506 -0.002200  0.001313 -0.000788  0.000334 -0.000139
                     12        13        14        15        16        17   
                  -5.97529  -1.01273  -0.88606  -0.85484  -0.75718  -0.75311
                   2.00000   2.00000   2.00000   2.00000   2.00000   2.00000
                  --------  --------  --------  --------  --------  --------
  0C   1s         0.000000 -0.006166  0.006892  0.100927 -0.094155 -0.073977
  0C   2s         0.000000  0.012611 -0.012736 -0.192043  0.183564  0.145174
  0C   1pz       -0.000015 -0.000011  0.000016  0.000076  0.000020 -0.000116
  0C   1px       -0.000000  0.007481 -0.008373 -0.057492 -0.002180  0.053078
  0C   1py       -0.000000 -0.000604 -0.008821  0.020291 -0.043286  0.096760
  0C   3s        -0.000000  0.014143 -0.033696 -0.127531  0.138021  0.103454
  0C   2pz       -0.000021  0.000000  0.000025  0.000011  0.000012  0.000002
  0C   2px       -0.000000 -0.001286 -0.014049 -0.008826 -0.006123 -0.005106
  0C   2py        0.000000  0.004448 -0.010368  0.004139 -0.006816  0.014564
  0C   1dz2       0.000000 -0.000575  0.000674  0.009677 -0.007430 -0.004992
  0C   1dxz      -0.000001 -0.000002  0.000003  0.000024 -0.000013 -0.000025
  0C   1dyz      -0.000012 -0.000001  0.000002  0.000007 -0.000003 -0.000010
  0C   1dx2y2     0.000000  0.000176 -0.000752  0.000195 -0.003159  0.006452
  0C   1dxy      -0.000000  0.000131 -0.001290 -0.000105 -0.002219  0.006599
  1C   1s        -0.000000 -0.006165 -0.006883  0.100917 -0.094085  0.074053
  1C   2s        -0.000000  0.012614  0.012725 -0.192090  0.183485 -0.145353
  1C   1pz       -0.000015 -0.000011 -0.000012  0.000088  0.000002  0.000076
  1C   1px       -0.000000  0.007121  0.010231 -0.050998 -0.012494 -0.074620
  1C   1py       -0.000000  0.002371 -0.006570 -0.033425  0.041589  0.081262
  1C   3s         0.000000  0.014128  0.033638 -0.127181  0.137590 -0.103429
  1C   2pz       -0.000021  0.000002 -0.000021  0.000013  0.000009 -0.000008
  1C   2px       -0.000000 -0.000207  0.016099 -0.007430 -0.007730  0.001539
  1C   2py        0.000000 -0.004606 -0.006704 -0.006036  0.005111  0.015325
  1C   1dz2       0.000000 -0.000574 -0.000672  0.009667 -0.007418  0.004994
  1C   1dxz      -0.000004 -0.000002 -0.000003  0.000024 -0.000013  0.000024
  1C   1dyz       0.000011 -0.000000  0.000001  0.000006 -0.000007 -0.000004
  1C   1dx2y2    -0.000000  0.000216  0.001264  0.000123 -0.003835 -0.008771
  1C   1dxy       0.000000 -0.000034 -0.000793  0.000182  0.000506  0.002853
  2C   1s        -0.000000 -0.015818  0.027998  0.093080 -0.004443 -0.127495
  2C   2s        -0.000000  0.030451 -0.054408 -0.177896  0.008137  0.249307
  2C   1pz       -0.000019 -0.000021  0.000036 -0.000032  0.000148  0.000042
  2C   1px       -0.000000  0.016950 -0.026027  0.004946 -0.096784 -0.019892
  2C   1py       -0.000000 -0.009058  0.003839  0.063261 -0.018111 -0.033561
  2C   3s         0.000000  0.018943 -0.000052 -0.106552  0.000755  0.192377
  2C   2pz        0.000258 -0.000021  0.000038 -0.000000  0.000027  0.000009
  2C   2px        0.000000  0.012460 -0.017612  0.000825 -0.017976 -0.007611
  2C   2py        0.000000  0.007708 -0.031636 -0.002077 -0.002187  0.004874
  2C   1dz2      -0.000000 -0.002030  0.002863  0.008493  0.000021 -0.009330
  2C   1dxz       0.000035 -0.000007  0.000011  0.000020  0.000001 -0.000023
  2C   1dyz      -0.000029  0.000001 -0.000000  0.000008 -0.000013 -0.000009
  2C   1dx2y2     0.000000  0.001796 -0.002901  0.001000 -0.002706 -0.000969
  2C   1dxy      -0.000000 -0.001031  0.000593 -0.000969  0.008155  0.001169
  3C   1s         0.000000 -0.015818 -0.027988  0.093079 -0.004339  0.127500
  3C   2s         0.000000  0.030453  0.054396 -0.177883  0.007918 -0.249313
  3C   1pz       -0.000019 -0.000026 -0.000039 -0.000005  0.000145 -0.000029
  3C   1px       -0.000000  0.014301  0.024363  0.019888 -0.098284  0.027389
  3C   1py       -0.000000  0.012837  0.009930 -0.060262 -0.005509 -0.027860
  3C   3s        -0.000000  0.018872 -0.000003 -0.106609  0.000828 -0.192351
  3C   2pz        0.000258 -0.000018 -0.000025 -0.000002  0.000027 -0.000012
  3C   2px        0.000000  0.013880  0.024573  0.000444 -0.018076  0.006433
  3C   2py        0.000000 -0.004547 -0.026543  0.002233 -0.002081  0.006667
  3C   1dz2      -0.000000 -0.002030 -0.002862  0.008494  0.000027  0.009330
  3C   1dxz       0.000027 -0.000007 -0.000011  0.000020  0.000001  0.000022
  3C   1dyz       0.000037 -0.000003 -0.000004  0.000004  0.000013  0.000004
  3C   1dx2y2     0.000000  0.001115  0.002297  0.000434  0.001377  0.000313
  3C   1dxy       0.000000  0.001742  0.001865  0.001334 -0.008484  0.001507
  4C   1s         0.000000 -0.078764 -0.074429  0.064748  0.092942  0.036013
  4C   2s         0.000000  0.149384  0.142289 -0.125435 -0.187192 -0.071968
  4C   1pz        0.000126 -0.000119 -0.000115 -0.000115  0.000034 -0.000159
  4C   1px        0.000000  0.076091  0.097159  0.080189 -0.015202  0.093574
  4C   1py        0.000000  0.021846 -0.066688 -0.005295 -0.029321  0.058604
  4C   3s        -0.000000  0.040179  0.079959 -0.074206 -0.126331 -0.064340
  4C   2pz       -0.000670  0.000006  0.000081 -0.000037  0.000013 -0.000023
  4C   2px       -0.000001 -0.009442 -0.065335  0.027426 -0.006092  0.013431
  4C   2py       -0.000001  0.020403  0.034741 -0.006746 -0.011182  0.007622
  4C   1dz2       0.000000 -0.009594 -0.007081  0.005194  0.005839  0.002104
  4C   1dxz      -0.000076 -0.000032 -0.000036  0.000010  0.000006  0.000009
  4C   1dyz       0.000002 -0.000005  0.000006  0.000006  0.000001  0.000014
  4C   1dx2y2    -0.000000  0.005302  0.013363  0.002208  0.005257  0.000002
  4C   1dxy      -0.000000  0.000318 -0.003768 -0.001376  0.003458 -0.008741
  5C   1s        -0.000000 -0.078761  0.074439  0.064737  0.092909 -0.036083
  5C   2s        -0.000000  0.149392 -0.142322 -0.125450 -0.187157  0.072134
  5C   1pz        0.000126 -0.000114  0.000149 -0.000121  0.000022  0.000139
  5C   1px        0.000000  0.079099 -0.078442  0.076624 -0.021842 -0.104832
  5C   1py        0.000000 -0.003067 -0.087936  0.024280  0.024881  0.034567
  5C   3s         0.000000  0.040119 -0.079891 -0.074042 -0.126113  0.064312
  5C   2pz       -0.000670  0.000015 -0.000100 -0.000041  0.000009  0.000019
  5C   2px       -0.000001 -0.004170  0.055104  0.024843 -0.008683 -0.014692
  5C   2py       -0.000000 -0.022065  0.049352  0.013007  0.009229  0.004196
  5C   1dz2       0.000000 -0.009593  0.007081  0.005189  0.005836 -0.002107
  5C   1dxz      -0.000074 -0.000032  0.000036  0.000010  0.000006 -0.000008
  5C   1dyz      -0.000020 -0.000008  0.000015  0.000001  0.000007  0.000011
  5C   1dx2y2    -0.000000  0.004846 -0.010096  0.001317  0.006260  0.004041
  5C   1dxy      -0.000000  0.002174 -0.009534  0.002242 -0.000637 -0.007737
  6N   1s         0.000000 -0.107220  0.134109 -0.021366  0.001470  0.038998
  6N   2s         0.000000  0.216880 -0.279551  0.047617 -0.002649 -0.084664
  6N   1pz        0.000149  0.000054 -0.000097 -0.000063 -0.000198  0.000036
  6N   1px        0.000000 -0.009666  0.043374  0.049686  0.138288 -0.033128
  6N   1py        0.000000 -0.101494  0.086058 -0.024219 -0.008530  0.030739
  6N   3s        -0.000000  0.223178 -0.325620  0.033501  0.005224 -0.096795
  6N   2pz        0.000078  0.000029 -0.000066 -0.000030 -0.000064  0.000010
  6N   2px        0.000000 -0.007536  0.033518  0.021841  0.045397 -0.010679
  6N   2py        0.000000 -0.046739  0.044879 -0.005878 -0.004853  0.013002
  6N   1dz2      -0.000001 -0.009683  0.007818 -0.001003  0.000148  0.001170
  6N   1dxz       0.000416 -0.000020  0.000024  0.000003  0.000008 -0.000001
  6N   1dyz      -0.000537 -0.000005  0.000007  0.000008  0.000020 -0.000002
  6N   1dx2y2     0.000001 -0.002298 -0.002189 -0.002024 -0.001168  0.001801
  6N   1dxy      -0.000001 -0.001974 -0.001765 -0.006501 -0.014294  0.002526
  7N   1s        -0.000000 -0.107229 -0.134111 -0.021352  0.001440 -0.039000
  7N   2s        -0.000000  0.216895  0.279545  0.047600 -0.002572  0.084685
  7N   1pz        0.000149  0.000011  0.000062 -0.000076 -0.000209 -0.000051
  7N   1px        0.000000 -0.033602 -0.062647  0.042479  0.132284  0.024726
  7N   1py        0.000000  0.096263  0.073219  0.035366  0.041311  0.037718
  7N   3s         0.000000  0.223253  0.325670  0.033371  0.005223  0.096714
  7N   2pz        0.000078  0.000009  0.000049 -0.000033 -0.000069 -0.000017
  7N   2px        0.000000 -0.018487 -0.043253  0.019863  0.042982  0.007277
  7N   2py        0.000000  0.043598  0.035608  0.010911  0.015559  0.015139
  7N   1dz2      -0.000001 -0.009682 -0.007817 -0.001001  0.000148 -0.001167
  7N   1dxz       0.000276 -0.000020 -0.000024  0.000003  0.000007  0.000001
  7N   1dyz       0.000621 -0.000009 -0.000003 -0.000010 -0.000021 -0.000004
  7N   1dx2y2     0.000000 -0.002951  0.002758 -0.004808 -0.007664 -0.002761
  7N   1dxy       0.000001  0.000684 -0.000549  0.004823  0.012127  0.001396
  8S   1s        -0.000000  0.036085  0.000000  0.021207  0.043000 -0.000018
  8S   2s         0.000000 -0.163526  0.000001 -0.095466 -0.193704  0.000083
  8S   1pz       -0.991273 -0.000087 -0.000015 -0.000028 -0.000017 -0.000008
  8S   1px       -0.001445  0.057501 -0.008332  0.018508  0.011423 -0.004601
  8S   1py       -0.000379  0.006961  0.068843  0.002237  0.001399  0.037977
  8S   3s        -0.000000  0.322700  0.000003  0.199598  0.412707 -0.000168
  8S   2pz       -0.029099  0.000188  0.000034  0.000067  0.000045  0.000020
  8S   2px       -0.000042 -0.125021  0.018482 -0.044235 -0.029897  0.010792
  8S   2py       -0.000011 -0.015135 -0.152693 -0.005345 -0.003655 -0.089074
  8S   4s        -0.000000  0.013409 -0.000025  0.035489  0.116195 -0.000071
  8S   3pz        0.008212 -0.000038 -0.000002 -0.000008 -0.000006 -0.000000
  8S   3px        0.000012  0.025572 -0.000780  0.004999  0.003998 -0.000181
  8S   3py        0.000003  0.003096  0.006562  0.000614  0.000494  0.001582
  8S   1dz2      -0.000002 -0.025895  0.000001 -0.009801 -0.010531  0.000005
  8S   1dxz       0.000670 -0.000073 -0.000002 -0.000019 -0.000005 -0.000001
  8S   1dyz       0.000081 -0.000018 -0.000075 -0.000007 -0.000008 -0.000035
  8S   1dx2y2     0.000001  0.004941 -0.011881 -0.003428 -0.014163 -0.005572
  8S   1dxy       0.000000  0.001215  0.048369 -0.000845 -0.003470  0.022706
  9H   1s        -0.000000  0.004364 -0.012383 -0.034609  0.000459  0.073106
  9H   2s         0.000000 -0.003378  0.006888  0.000408  0.000485  0.011859
 10H   1s        -0.000000  0.000938 -0.002478 -0.039706  0.056840  0.043701
 10H   2s        -0.000000 -0.002851 -0.000848 -0.005694  0.012562  0.006427
 11H   1s         0.000000  0.000938  0.002476 -0.039697  0.056792 -0.043746
 11H   2s         0.000000 -0.002851  0.000848 -0.005668  0.012546 -0.006457
 12H   1s         0.000000  0.004366  0.012382 -0.034605  0.000396 -0.073100
 12H   2s        -0.000000 -0.003385 -0.006895  0.000415  0.000488 -0.011819
                     18        19        20        21        22        23   
                  -0.64524  -0.60816  -0.59754  -0.50696  -0.49531  -0.47999
                   2.00000   2.00000   2.00000   2.00000   2.00000   2.00000
                  --------  --------  --------  --------  --------  --------
  0C   1s         0.068076  0.078973 -0.011938  0.058883 -0.007279 -0.004272
  0C   2s        -0.139103 -0.159842  0.023091 -0.119485  0.015570  0.007193
  0C   1pz       -0.000184  0.000009  0.000045 -0.000124 -0.000071 -0.000431
  0C   1px        0.098972  0.022041 -0.001684  0.101699  0.104114  0.272430
  0C   1py        0.102091 -0.102306 -0.106378 -0.061068 -0.203750  0.087439
  0C   3s        -0.116543 -0.138441  0.004630 -0.151544  0.031374  0.027608
  0C   2pz       -0.000069 -0.000024  0.000018 -0.000033 -0.000039 -0.000165
  0C   2px        0.041971  0.024973 -0.004286  0.027728  0.042264  0.102883
  0C   2py        0.017643 -0.032415 -0.030717 -0.020046 -0.056473  0.037143
  0C   1dz2       0.004087  0.003443 -0.000550  0.002544  0.000647  0.001567
  0C   1dxz       0.000002  0.000017 -0.000000  0.000014  0.000006  0.000005
  0C   1dyz      -0.000003 -0.000001  0.000007 -0.000013  0.000004 -0.000004
  0C   1dx2y2     0.004499 -0.005830  0.000371 -0.007700 -0.002174 -0.001764
  0C   1dxy       0.005322  0.000970 -0.004694  0.008029 -0.002862  0.002715
  1C   1s         0.068060 -0.078973 -0.011987 -0.058885 -0.007273 -0.004276
  1C   2s        -0.139122  0.159869  0.023194  0.119526  0.015574  0.007180
  1C   1pz       -0.000146  0.000037 -0.000001  0.000156 -0.000165 -0.000408
  1C   1px        0.120447  0.003002 -0.027004 -0.084144  0.052531  0.285375
  1C   1py       -0.075546 -0.104657  0.102830 -0.083495  0.222704 -0.019934
  1C   3s        -0.116127  0.138355  0.004833  0.151384  0.031442  0.028071
  1C   2pz       -0.000063  0.000039  0.000005  0.000042 -0.000066 -0.000154
  1C   2px        0.045247 -0.016525 -0.011448 -0.022178  0.027694  0.109268
  1C   2py       -0.007138 -0.037410  0.028822 -0.026007  0.064980 -0.011521
  1C   1dz2       0.004080 -0.003441 -0.000554 -0.002541  0.000646  0.001560
  1C   1dxz       0.000002 -0.000017 -0.000000 -0.000015  0.000006  0.000006
  1C   1dyz       0.000009 -0.000006 -0.000007 -0.000016 -0.000003  0.000006
  1C   1dx2y2     0.006458  0.004717 -0.001847  0.003099 -0.003255 -0.000297
  1C   1dxy      -0.002632  0.003561  0.004328  0.010685  0.001520 -0.003227
  2C   1s        -0.073105 -0.007827  0.065520 -0.054760  0.016854 -0.013091
[...]
     35       0.603293  -0.000534  -0.000028   0.562010  -0.094078  -0.000138
     36      -0.000201   0.133778   0.149784   0.000603  -0.000886   0.310706
     37      -0.000062   0.170032   0.401297   0.000161  -0.000234   0.185234
     38      -0.132740  -0.000279  -0.000374   0.410322  -0.615529  -0.000562
                 18         19         20         21         22         23    
      0       0.103001  -0.107018  -0.000094  -0.316544   0.000117  -0.000134
      1      -0.091750   0.006184  -0.000031   0.117869   0.000023  -0.000042
      2      -0.000065   0.000151  -0.068607   0.000420   0.075694  -0.093112
      3      -0.078060  -0.102610   0.000092   0.279182   0.000112   0.000142
      4      -0.113652  -0.031646   0.000019   0.189883   0.000037   0.000045
      5       0.000101   0.000157   0.068586  -0.000484   0.075746   0.093078
      6      -0.036765  -0.128322  -0.000154  -0.007781  -0.000131   0.000087
      7       0.158256   0.200347  -0.000030  -0.241907  -0.000036   0.000020
      8      -0.000008   0.000113  -0.104617   0.000092  -0.087985   0.061544
      9      -0.001836  -0.076886   0.000151   0.065224  -0.000132  -0.000092
     10       0.162776  -0.225165   0.000048  -0.233344  -0.000033  -0.000022
     11      -0.000074   0.000200   0.104566   0.000007  -0.088032  -0.061521
     12      -0.009777   0.057770  -0.000170  -0.127417   0.000021  -0.000002
     13       0.100135  -0.105914  -0.000046  -0.044666   0.000007  -0.000003
     14      -0.000029  -0.000034  -0.117924   0.000197   0.014311  -0.000674
     15      -0.014863   0.030846   0.000169   0.134572   0.000017   0.000001
     16       0.098613   0.116661   0.000051  -0.012726   0.000007  -0.000001
     17      -0.000006  -0.000097   0.117998  -0.000185   0.014322   0.000669
     18       0.253452   0.394083  -0.000036   0.267029  -0.000005   0.000011
     19      -0.439033  -0.158319  -0.000025   0.036635  -0.000006  -0.000003
     20      -0.000194  -0.000507  -0.030875  -0.000403  -0.005204   0.002426
     21      -0.141564   0.345225   0.000046  -0.267792  -0.000004  -0.000011
     22      -0.484137   0.248271  -0.000003  -0.028307  -0.000002  -0.000005
     23       0.000406  -0.000604   0.030810   0.000403  -0.005202  -0.002421
     24      -0.034324  -0.167231  -0.000002  -0.011383  -0.000000  -0.000000
     25       0.283477  -0.020428   0.000008   0.093251   0.000000   0.000005
     26      -0.000065   0.000251   0.000012  -0.000021   0.000281   0.000001
     27      -0.328517  -0.381439   0.000799   0.229309   0.000726  -0.000602
     28       0.128150   0.184072   0.000232  -0.213042   0.000201  -0.000166
     29       0.000263   0.000447   0.559994  -0.000166   0.514303  -0.401833
     30       0.089170  -0.167320   0.000579  -0.365987  -0.000678   0.000830
     31      -0.123779  -0.122973   0.000153  -0.007142  -0.000203   0.000214
     32      -0.000154   0.000300   0.395138   0.000498  -0.470677   0.571267
     33      -0.056856  -0.192082  -0.000583   0.356987  -0.000689  -0.000826
     34      -0.141629   0.079528  -0.000165   0.080286  -0.000169  -0.000216
     35       0.000315   0.000276  -0.394900  -0.000537  -0.470887  -0.570939
     36       0.289484  -0.326474  -0.000806  -0.172203   0.000733   0.000566
     37       0.203307  -0.269765  -0.000213  -0.261976   0.000202   0.000159
     38      -0.000325   0.000587  -0.559735   0.000306   0.514584   0.401610
                 24         25         26         27         28         29    
      0      -0.134000   0.017045   0.014139   0.010643  -0.053074  -0.019483
      1       0.160954   0.051856   0.051466   0.024830   0.071465   0.065278
      2       0.000132  -0.000046  -0.000040  -0.000025   0.000050   0.000002
      3      -0.091762  -0.029046   0.025848  -0.016269  -0.034538   0.004883
      4      -0.188301   0.046489  -0.046388   0.021589  -0.082266   0.065634
      5       0.000219   0.000024  -0.000019   0.000015   0.000084  -0.000033
      6       0.056984  -0.024125   0.001686  -0.025025   0.020265   0.124729
      7       0.089110  -0.100215  -0.012657   0.076881   0.005744  -0.037245
      8      -0.000116   0.000075   0.000002   0.000005  -0.000032  -0.000167
      9       0.076573   0.047340  -0.001183   0.005954   0.021350  -0.113914
     10      -0.072913  -0.091627   0.012294   0.080639  -0.000525  -0.066923
     11      -0.000090  -0.000032  -0.000003  -0.000041  -0.000030   0.000192
     12       0.012477   0.009872   0.032918  -0.042072   0.288856  -0.101276
     13       0.035108   0.053071  -0.036448  -0.175779  -0.033729   0.084095
     14      -0.000032  -0.000036  -0.000034   0.000132  -0.000408   0.000114
     15       0.020493  -0.022353   0.023163   0.082857   0.272126   0.080437
     16      -0.031117   0.048958   0.043458  -0.160631   0.101363   0.099802
     17      -0.000019   0.000014  -0.000051  -0.000058  -0.000435  -0.000156
     18      -0.007548  -0.026232  -0.024285   0.044117  -0.142132  -0.102071
     19       0.017624  -0.028875  -0.027028   0.057665  -0.104596  -0.058548
     20       0.000004   0.000049   0.000046  -0.000087   0.000248   0.000171
     21      -0.003104   0.032494  -0.029867  -0.056618  -0.163282   0.113610
     22      -0.018911  -0.021862   0.020354   0.045459   0.067744  -0.033452
     23       0.000012  -0.000038   0.000035   0.000064   0.000210  -0.000152
     24      -0.005847   0.000360  -0.004413  -0.000756  -0.025261   0.000427
     25      -0.000713  -0.002856  -0.000538   0.006160  -0.003047  -0.004746
     26       0.000008   0.000001   0.000007  -0.000001   0.000038   0.000001
     27       0.540316  -0.438497  -0.396708  -0.661644  -0.197864  -0.321456
     28       0.153774  -0.156151  -0.059587   0.008670  -0.010816  -0.092526
     29      -0.000853   0.000693   0.000603   0.000969   0.000298   0.000500
     30      -0.073710   0.188427   0.207359  -0.049309  -0.291573  -0.253495
     31       0.349445   0.476645   0.539793  -0.120367  -0.500215  -0.525993
     32      -0.000050  -0.000457  -0.000522   0.000110   0.000613   0.000588
     33       0.011791  -0.298494   0.328898   0.076567  -0.403502   0.369055
     34      -0.357027   0.420484  -0.473008  -0.105086   0.417363  -0.447045
     35       0.000042   0.000265  -0.000296  -0.000063   0.000410  -0.000368
     36       0.561420   0.465216  -0.397426   0.640467  -0.196016   0.325382
     37      -0.020335  -0.046781  -0.037026   0.166353  -0.036702  -0.014992
     38      -0.000756  -0.000664   0.000596  -0.000995   0.000305  -0.000468
                 30         31         32         33         34         35    
      0       0.058341   0.108494   0.127508   0.090901   0.221911  -0.053537
      1       0.153313   0.010377   0.129166   0.338222   0.158273   0.019507
      2      -0.000146  -0.000162  -0.000237  -0.000266  -0.000385   0.000070
      3       0.093078   0.107692  -0.154900   0.168720  -0.253379   0.049246
      4      -0.137660   0.015873   0.095287  -0.306622   0.100880   0.033118
      5      -0.000081  -0.000164   0.000188  -0.000124   0.000329  -0.000085
      6      -0.113263  -0.246936   0.036193  -0.012715  -0.300868   0.003024
      7       0.033834  -0.054374  -0.093659  -0.185191  -0.106208  -0.013658
      8       0.000153   0.000380  -0.000014   0.000093   0.000479   0.000001
      9      -0.097382  -0.252704  -0.012565  -0.056456   0.317662   0.000311
     10      -0.057194  -0.006175  -0.099774   0.176699  -0.031404  -0.014611
     11       0.000166   0.000371   0.000059   0.000012  -0.000451   0.000005
     12       0.011797   0.102138   0.299214  -0.129285  -0.185577   0.000062
     13       0.376863  -0.008669   0.037972  -0.171041  -0.032480   0.000018
     14      -0.000168  -0.000146  -0.000451   0.000256   0.000284  -0.000000
     15       0.098330   0.096960  -0.299590  -0.166628   0.187973  -0.000068
     16      -0.367263   0.032758  -0.034774   0.135205   0.012705   0.000009
     17       0.000001  -0.000154   0.000449   0.000189  -0.000278   0.000000
     18       0.033962  -0.001703   0.118383   0.063216  -0.027950  -0.000141
     19       0.074752  -0.022564   0.051488   0.006635  -0.020924   0.000007
     20      -0.000078   0.000011  -0.000192  -0.000095   0.000049   0.000000
     21       0.046324  -0.007113  -0.127208   0.062813   0.032099   0.000139
     22      -0.063165   0.021521   0.021689   0.008668  -0.013647   0.000039
     23      -0.000042   0.000002   0.000176  -0.000095  -0.000041  -0.000000
     24      -0.015628  -0.014550   0.000512   0.006190  -0.000853   0.000008
     25      -0.001798  -0.001761  -0.004226   0.000749   0.007085  -0.000075
     26       0.000023   0.000022   0.000001  -0.000009  -0.000002   0.000000
     27      -0.517540   0.575718  -0.132973  -0.055052   0.363154  -0.021697
     28      -0.014896   0.037359  -0.140701  -0.216456  -0.048264   0.173880
     29       0.000756  -0.000850   0.000244   0.000163  -0.000511  -0.000037
     30      -0.068584   0.202675  -0.123094  -0.216134   0.031655   0.621723
     31      -0.160181   0.197946  -0.544593  -0.443704  -0.389674  -0.243764
     32       0.000165  -0.000369   0.000386   0.000485   0.000114  -0.000807
     33      -0.119621   0.244181   0.249470  -0.315251   0.062148  -0.567500
     34       0.157128  -0.144207  -0.499677   0.378423  -0.385961  -0.400734
     35       0.000113  -0.000293  -0.000156   0.000302   0.000057   0.000985
     36      -0.519344   0.567871   0.162261  -0.105068  -0.341173  -0.021302
     37      -0.108446   0.101060  -0.105194   0.196926  -0.133673   0.181815
     38       0.000796  -0.000868  -0.000205   0.000079   0.000552  -0.000040
                  36         37         38    
      0      -0.052683  -0.016222  -0.026554
      1       0.022136   0.002529   0.008671
      2       0.000068   0.000023   0.000035
      3      -0.044045   0.016258  -0.022545
      4      -0.032813   0.006992  -0.014186
      5       0.000077  -0.000026   0.000038
      6       0.004872  -0.005432  -0.005116
      7      -0.024158   0.058330   0.058509
      8       0.000002  -0.000015  -0.000016
      9      -0.000982  -0.009149   0.008495
     10       0.023785   0.061251  -0.054739
     11      -0.000008  -0.000011   0.000009
     12      -0.000251  -0.001866   0.001910
     13       0.000052  -0.001321   0.000549
     14       0.000000   0.000003  -0.000003
     15      -0.000244   0.002010   0.002103
     16      -0.000105  -0.000834  -0.000125
     17       0.000000  -0.000003  -0.000003
     18      -0.000078  -0.000134  -0.000118
     19      -0.000038   0.000027  -0.000012
     20       0.000000   0.000000   0.000000
     21      -0.000081   0.000130  -0.000109
     22       0.000020   0.000060  -0.000013
     23       0.000000  -0.000000   0.000000
     24       0.000056  -0.000003  -0.000176
     25       0.000005   0.000065  -0.000019
     26      -0.000000  -0.000000   0.000000
     27      -0.037169   0.076854   0.075864
     28       0.295694  -0.658074  -0.655718
     29      -0.000063   0.000149   0.000150
     30       0.606654   0.159603   0.276787
     31      -0.243181  -0.059441  -0.109049
     32      -0.000783  -0.000208  -0.000359
     33       0.509803  -0.151874   0.231216
     34       0.365802  -0.103619   0.163969
     35      -0.000885   0.000262  -0.000402
     36       0.033277   0.087161  -0.078143
     37      -0.285906  -0.694813   0.617500
     38       0.000064   0.000147  -0.000130


-----------
IR SPECTRUM
-----------

 Mode    freq (cm**-1)   T**2         TX         TY         TZ
-------------------------------------------------------------------
   6:       192.55    1.246830  ( -0.000261  -0.000739  -1.116615)
   7:       243.96    0.000006  ( -0.000103   0.000065  -0.002515)
   8:       391.37    6.384481  ( -0.303105   2.508507  -0.000490)
   9:       428.90   11.177604  ( -0.005656  -0.000308  -3.343288)
  10:       505.20    0.021401  ( -0.145297  -0.017016   0.000205)
  11:       538.73    2.560601  ( -0.002197  -0.001268  -1.600186)
  12:       561.52    0.000091  (  0.000271  -0.001668   0.009391)
  13:       591.93    1.424683  ( -0.142397   1.185076  -0.000311)
  14:       664.66    3.608940  (  1.886077   0.227253  -0.002872)
  15:       773.47   61.558424  (  0.007501   0.002018   7.845914)
  16:       785.95    0.000250  ( -0.000314   0.000098  -0.015813)
  17:       816.45   29.964150  (  5.435370   0.648720  -0.008208)
  18:       828.30   24.940842  ( -0.587228   4.959436  -0.000982)
  19:       855.37    1.815617  (  1.338133   0.158156  -0.002013)
  20:       874.75    0.000004  ( -0.000688   0.001173   0.001319)
  21:       924.37    1.111156  ( -0.127704   1.046349  -0.000221)
  22:       969.84    0.504352  (  0.004277   0.000007   0.710165)
  23:      1001.52    0.000006  ( -0.000163   0.002421  -0.000265)
  24:      1013.04    0.489275  (  0.694084   0.086719  -0.001198)
  25:      1162.43    3.046595  ( -0.206085   1.733241  -0.000437)
  26:      1178.80    2.954548  ( -1.706475  -0.206115   0.002553)
  27:      1263.16    0.201684  ( -0.053819   0.445856  -0.000052)
  28:      1344.55    2.986955  ( -1.715768  -0.207576   0.002586)
  29:      1389.28    1.151158  (  0.117622  -1.066453   0.000236)
  30:      1389.55    0.841176  ( -0.911915  -0.097906   0.001367)
  31:      1489.01    0.237255  ( -0.483794  -0.056549   0.000765)
  32:      1539.64    2.999944  (  0.212278  -1.718977   0.000339)
  33:      1572.54   13.476665  ( -3.644094  -0.444088   0.005462)
  34:      1669.30    0.335450  (  0.068944  -0.575063   0.000130)
  35:      3191.60    4.654604  ( -0.179134   2.150003  -0.000548)
  36:      3204.75   11.130371  ( -3.316023  -0.366520   0.004974)
  37:      3223.92    9.996324  ( -0.298346   3.147588  -0.000796)
  38:      3226.53    8.825152  ( -2.959288  -0.260288   0.004404)

The first frequency considered to be a vibration is 6
The total number of vibrations considered is 33


--------------------------
THERMOCHEMISTRY AT 298.15K
--------------------------

Temperature         ... 298.15 K
Pressure            ... 1.00 atm
Total Mass          ... 136.17 AMU

Throughout the following assumptions are being made:
  (1) The electronic state is orbitally nondegenerate
  (2) There are no thermally accessible electronically excited states
  (3) Hindered rotations indicated by low frequency modes are not
      treated as such but are treated as vibrations and this may
      cause some error
  (4) All equations used are the standard statistical mechanics
      equations for an ideal gas
  (5) All vibrations are strictly harmonic

freq.     192.55  E(vib)   ...       0.36 
freq.     243.96  E(vib)   ...       0.31 
freq.     391.37  E(vib)   ...       0.20 
freq.     428.90  E(vib)   ...       0.18 
freq.     505.20  E(vib)   ...       0.14 
freq.     538.73  E(vib)   ...       0.12 
freq.     561.52  E(vib)   ...       0.11 
freq.     591.93  E(vib)   ...       0.10 
freq.     664.66  E(vib)   ...       0.08 
freq.     773.47  E(vib)   ...       0.05 
freq.     785.95  E(vib)   ...       0.05 
freq.     816.45  E(vib)   ...       0.05 
freq.     828.30  E(vib)   ...       0.04 
freq.     855.37  E(vib)   ...       0.04 
freq.     874.75  E(vib)   ...       0.04 
freq.     924.37  E(vib)   ...       0.03 
freq.     969.84  E(vib)   ...       0.03 
freq.    1001.52  E(vib)   ...       0.02 
freq.    1013.04  E(vib)   ...       0.02 
freq.    1162.43  E(vib)   ...       0.01 
freq.    1178.80  E(vib)   ...       0.01 
freq.    1263.16  E(vib)   ...       0.01 
freq.    1344.55  E(vib)   ...       0.01 
freq.    1389.28  E(vib)   ...       0.00 
freq.    1389.55  E(vib)   ...       0.00 
freq.    1489.01  E(vib)   ...       0.00 
freq.    1539.64  E(vib)   ...       0.00 
freq.    1572.54  E(vib)   ...       0.00 
freq.    1669.30  E(vib)   ...       0.00 
freq.    3191.60  E(vib)   ...       0.00 
freq.    3204.75  E(vib)   ...       0.00 
freq.    3223.92  E(vib)   ...       0.00 
freq.    3226.53  E(vib)   ...       0.00 

------------
INNER ENERGY
------------

The inner energy is: U= E(el) + E(ZPE) + E(vib) + E(rot) + E(trans)
    E(el)   - is the total energy from the electronic structure calculation
              = E(kin-el) + E(nuc-el) + E(el-el) + E(nuc-nuc)
    E(ZPE)  - the the zero temperature vibrational energy from the frequency calculation
    E(vib)  - the the finite temperature correction to E(ZPE) due to population
              of excited vibrational states
    E(rot)  - is the rotational thermal energy
    E(trans)- is the translational thermal energy

Summary of contributions to the inner energy U:
Electronic energy                ...   -738.44518646 Eh
Zero point energy                ...      0.09068687 Eh      56.91 kcal/mol
Thermal vibrational correction   ...      0.00324956 Eh       2.04 kcal/mol
Thermal rotational correction    ...      0.00141627 Eh       0.89 kcal/mol
Thermal translational correction ...      0.00141627 Eh       0.89 kcal/mol
-----------------------------------------------------------------------
Total thermal energy                   -738.34841749 Eh


Summary of corrections to the electronic energy:
(perhaps to be used in another calculation)
Total thermal correction                  0.00608210 Eh       3.82 kcal/mol
Non-thermal (ZPE) correction              0.09068687 Eh      56.91 kcal/mol
-----------------------------------------------------------------------
Total correction                          0.09676897 Eh      60.72 kcal/mol


--------
ENTHALPY
--------

The enthalpy is H = U + kB*T
                kB is Boltzmann's constant
Total free energy                 ...   -738.34841749 Eh 
Thermal Enthalpy correction       ...      0.00094421 Eh       0.59 kcal/mol
-----------------------------------------------------------------------
Total Enthalpy                    ...   -738.34747328 Eh


Note: Rotational entropy computed according to Herzberg 
Infrared and Raman Spectra, Chapter V,1, Van Nostrand Reinhold, 1945 
Point Group:  C1, Symmetry Number:   1  
Rotational constants in cm-1:     0.124414     0.041261     0.030985 

Vibrational entropy computed according to the QRRHO of S. Grimme
Chem.Eur.J. 2012 18 9955


-------
ENTROPY
-------

The entropy contributions are T*S = T*(S(el)+S(vib)+S(rot)+S(trans))
     S(el)   - electronic entropy
     S(vib)  - vibrational entropy
     S(rot)  - rotational entropy
     S(trans)- translational entropy
The entropies will be listed as mutliplied by the temperature to get
units of energy

Electronic entropy                ...      0.00000000 Eh      0.00 kcal/mol
Vibrational entropy               ...      0.00483813 Eh      3.04 kcal/mol
Rotational entropy                ...      0.01363982 Eh      8.56 kcal/mol
Translational entropy             ...      0.01930851 Eh     12.12 kcal/mol
-----------------------------------------------------------------------
Final entropy term                ...      0.03778646 Eh     23.71 kcal/mol


-------------------
GIBBS FREE ENTHALPY
-------------------

The Gibbs free enthalpy is G = H - T*S

Total enthalpy                    ...   -738.34747328 Eh 
Total entropy correction          ...     -0.03778646 Eh    -23.71 kcal/mol
-----------------------------------------------------------------------
Final Gibbs free enthalpy         ...   -738.38525974 Eh

For completeness - the Gibbs free enthalpy minus the electronic energy
G-E(el)                           ...      0.05992672 Eh     37.60 kcal/mol


Timings for individual modules:

Sum of individual times         ...      883.770 sec (=  14.730 min)
GTO integral calculation        ...        0.320 sec (=   0.005 min)   0.0 %
SCF iterations                  ...       56.841 sec (=   0.947 min)   6.4 %
Analytical frequency calculation...      826.609 sec (=  13.777 min)  93.5 %
                             ****ORCA TERMINATED NORMALLY****
TOTAL RUN TIME: 0 days 0 hours 14 minutes 44 seconds 132 msec
