
                                 *****************
                                 * O   R   C   A *
                                 *****************

           --- An Ab Initio, DFT and Semiempirical electronic structure package ---

                  #######################################################
                  #                        -***-                        #
                  #          Department of theory and spectroscopy      #
                  #               Directorship: Frank Neese             #
                  #        Max Planck Institute fuer Kohlenforschung    #
                  #                Kaiser Wilhelm Platz 1               #
                  #                 D-45470 Muelheim/Ruhr               #
                  #                      Germany                        #
                  #                                                     #
                  #                  All rights reserved                #
                  #                        -***-                        #
                  #######################################################


                         Program Version 4.1.0  - RELEASE  -


 With contributions from (in alphabetic order):
   Daniel Aravena         : Magnetic Properties
   Michael Atanasov       : Ab Initio Ligand Field Theory
   Alexander A. Auer      : GIAO ZORA
   Ute Becker             : Parallelization
   Giovanni Bistoni       : ED, Open-shell LED
   Martin Brehm           : Molecular dynamics
   Dmytro Bykov           : SCF Hessian
   Vijay G. Chilkuri      : MRCI spin determinant printing
   Dipayan Datta          : RHF DLPNO-CCSD density
   Achintya Kumar Dutta   : EOM-CC, STEOM-CC
   Dmitry Ganyushin       : Spin-Orbit,Spin-Spin,Magnetic field MRCI
   Miquel Garcia          : C-PCM Hessian
   Yang Guo               : DLPNO-NEVPT2, CIM, IAO-localization
   Andreas Hansen         : Spin unrestricted coupled pair/coupled cluster methods
   Benjamin Helmich-Paris : CASSCF linear response (MC-RPA)
   Lee Huntington         : MR-EOM, pCC
   Robert Izsak           : Overlap fitted RIJCOSX, COSX-SCS-MP3, EOM
   Christian Kollmar      : KDIIS, OOCD, Brueckner-CCSD(T), CCSD density
   Simone Kossmann        : Meta GGA functionals, TD-DFT gradient, OOMP2, MP2 Hessian
   Martin Krupicka        : AUTO-CI
   Lucas Lang             : DCDCAS
   Dagmar Lenk            : GEPOL surface, SMD
   Dimitrios Liakos       : Extrapolation schemes; parallel MDCI
   Dimitrios Manganas     : ROCIS; embedding schemes
   Dimitrios Pantazis     : SARC Basis sets
   Taras Petrenko         : DFT Hessian,TD-DFT gradient, ASA, ECA, R-Raman, ABS, FL, XAS/XES, NRVS
   Peter Pinski           : DLPNO-MP2, DLPNO-MP2 Gradient
   Christoph Reimann      : Effective Core Potentials
   Marius Retegan         : Local ZFS, SOC
   Christoph Riplinger    : Optimizer, TS searches, QM/MM, DLPNO-CCSD(T), (RO)-DLPNO pert. Triples
   Tobias Risthaus        : Range-separated hybrids, TD-DFT gradient, RPA, STAB
   Michael Roemelt        : Restricted open shell CIS
   Masaaki Saitow         : Open-shell DLPNO
   Barbara Sandhoefer     : DKH picture change effects
   Avijit Sen             : IP-ROCIS
   Kantharuban Sivalingam : CASSCF convergence, NEVPT2, FIC-MRCI
   Bernardo de Souza      : ESD, SOC TD-DFT
   Georgi Stoychev        : AutoAux, RI-MP2 NMR
   Willem Van den Heuvel  : Paramagnetic NMR
   Boris Wezisla          : Elementary symmetry handling
   Frank Wennmohs         : Technical directorship


 We gratefully acknowledge several colleagues who have allowed us to
 interface, adapt or use parts of their codes:
   Stefan Grimme, W. Hujo, H. Kruse,             : VdW corrections, initial TS optimization,
                  C. Bannwarth                     DFT functionals, gCP, sTDA/sTD-DF
   Ed Valeev                                     : LibInt (2-el integral package), F12 methods
   Garnet Chan, S. Sharma, J. Yang, R. Olivares  : DMRG
   Ulf Ekstrom                                   : XCFun DFT Library
   Mihaly Kallay                                 : mrcc  (arbitrary order and MRCC methods)
   Andreas Klamt, Michael Diedenhofen            : otool_cosmo (COSMO solvation model)
   Jiri Pittner, Ondrej Demel                    : Mk-CCSD
   Frank Weinhold                                : gennbo (NPA and NBO analysis)
   Christopher J. Cramer and Donald G. Truhlar   : smd solvation model
   Lars Goerigk                                  : TD-DFT with DH, B97 family of functionals
   V. Asgeirsson, H. Jonsson                     : NEB implementation
   FAccTs GmbH                                   : IRC, NEB, NEB-TS, Multilevel


 Your calculation uses the libint2 library for the computation of 2-el integrals
 For citations please refer to: http://libint.valeyev.net

 This ORCA versions uses:
   CBLAS   interface :  Fast vector & matrix operations
   LAPACKE interface :  Fast linear algebra routines
   SCALAPACK package :  Parallel linear algebra routines




***************************************
The coordinates will be read from file: /Users/lailaal-madhagi/Desktop/Testing_XAS_Analysis_code/2-1-3_Benzotrithiadizole/Benzotrithiadizole_geom.xyz
***************************************


----- Orbital basis set information -----
Your calculation utilizes the basis: 6-31G*
   H-He, Li-Ne : W. J. Hehre, R. Ditchfield and J.A. Pople, J. Chem. Phys. 56, 2257 (1972).
                 Note: He and Ne are unpublished basis sets taken from the Gaussian program.
                 Note: Li and B from J. D. Dill and J. A. Pople, J. Chem. Phys. 62, 2921 (1975).
   Na - Ar     : M. M. Francl, W. J. Pietro, W. J. Hehre, J. S. Binkley, M. S. Gordon, 
                 D. J. DeFrees and J. A. Pople, J. Chem. Phys. 77, 3654 (1982).
   K - Zn      : V. A. Rassolov, J. A. Pople, M. A. Ratner, and T. L. Windus, J. Chem. Phys. 109, 1223 (1998).

================================================================================
                                        WARNINGS
                       Please study these warnings very carefully!
================================================================================


WARNING: Geometry Optimization
  ===> : Switching off AutoStart
         For restart on a previous wavefunction, please use MOREAD

INFO   : the flag for use of LIBINT has been found!

================================================================================
                                       INPUT FILE
================================================================================
NAME = /Users/lailaal-madhagi/Desktop/Testing_XAS_Analysis_code/2-1-3_Benzotrithiadizole//Results_dir_Benzotrithiadizole_geom_element_N_2019-11-14_07-17-39//GTE1_Benzotrithiadizole_geom_2019-11-14_07-17-55//opt.inp
|  1> ! B3LYP 6-31G* TIGHTSCF Grid3 FinalGrid5 Opt 
|  2> !NormalPrint 
|  3> %output 
|  4> Print[P_Basis] 2 
|  5> Print[P_MOS] 1 
|  6> end 
|  7> *xyzfile 0 1 /Users/lailaal-madhagi/Desktop/Testing_XAS_Analysis_code/2-1-3_Benzotrithiadizole/Benzotrithiadizole_geom.xyz                           ****END OF INPUT****
================================================================================

                       *****************************
                       * Geometry Optimization Run *
                       *****************************

Geometry optimization settings:
Update method            Update   .... BFGS
Choice of coordinates    CoordSys .... Z-matrix Internals
Initial Hessian          InHess   .... Almoef's Model

Convergence Tolerances:
Energy Change            TolE     ....  5.0000e-06 Eh
Max. Gradient            TolMAXG  ....  3.0000e-04 Eh/bohr
RMS Gradient             TolRMSG  ....  1.0000e-04 Eh/bohr
Max. Displacement        TolMAXD  ....  4.0000e-03 bohr
RMS Displacement         TolRMSD  ....  2.0000e-03 bohr

------------------------------------------------------------------------------
                        ORCA OPTIMIZATION COORDINATE SETUP
------------------------------------------------------------------------------

The optimization will be done in new redundant internal coordinates
Making redundant internal coordinates   ...  (new redundants) done
Evaluating the initial hessian          ...  (Almloef) done
Evaluating the coordinates              ...  done
Calculating the B-matrix                .... done
Calculating the G-matrix                .... done
Diagonalizing the G-matrix              .... done
The first mode is                       ....   32
The number of degrees of freedom        ....   33

    -----------------------------------------------------------------
                    Redundant Internal Coordinates


    -----------------------------------------------------------------
         Definition                    Initial Value    Approx d2E/dq
    -----------------------------------------------------------------
      1. B(C   1,C   0)                  1.4696         0.466406   
      2. B(C   2,C   0)                  1.3398         0.751330   
      3. B(C   3,C   1)                  1.3398         0.751340   
      4. B(C   4,C   3)                  1.4696         0.466357   
      5. B(C   5,C   4)                  1.3100         0.838279   
      6. B(C   5,C   2)                  1.4696         0.466373   
      7. B(N   6,C   5)                  1.2573         0.911001   
      8. B(N   7,C   4)                  1.2573         0.911018   
      9. B(S   8,N   7)                  1.7492         0.403216   
     10. B(S   8,N   6)                  1.7492         0.403230   
     11. B(H   9,C   2)                  1.0859         0.365586   
     12. B(H  10,C   0)                  1.0853         0.366331   
     13. B(H  11,C   1)                  1.0853         0.366331   
     14. B(H  12,C   3)                  1.0859         0.365594   
     15. A(C   2,C   0,H  10)          120.7164         0.365711   
     16. A(C   1,C   0,C   2)          118.8152         0.426914   
     17. A(C   1,C   0,H  10)          120.4684         0.337404   
     18. A(C   0,C   1,H  11)          120.4672         0.337404   
     19. A(C   3,C   1,H  11)          120.7172         0.365711   
     20. A(C   0,C   1,C   3)          118.8156         0.426915   
     21. A(C   0,C   2,H   9)          119.2141         0.365583   
     22. A(C   5,C   2,H   9)          119.1862         0.337286   
     23. A(C   0,C   2,C   5)          121.5997         0.426909   
     24. A(C   1,C   3,C   4)          121.5997         0.426907   
     25. A(C   4,C   3,H  12)          119.1869         0.337285   
     26. A(C   1,C   3,H  12)          119.2134         0.365585   
     27. A(C   3,C   4,C   5)          119.5845         0.435386   
     28. A(C   5,C   4,N   7)          115.4846         0.488753   
     29. A(C   3,C   4,N   7)          124.9309         0.439067   
     30. A(C   2,C   5,N   6)          124.9301         0.439068   
     31. A(C   2,C   5,C   4)          119.5853         0.435388   
     32. A(C   4,C   5,N   6)          115.4846         0.488752   
     33. A(C   5,N   6,S   8)          111.3796         0.448973   
     34. A(C   4,N   7,S   8)          111.3795         0.448972   
     35. A(N   6,S   8,N   7)           86.2717         0.409743   
     36. D(H  11,C   1,C   0,C   2)   -179.9999         0.014814   
     37. D(H  11,C   1,C   0,H  10)     -0.0011         0.014814   
     38. D(C   3,C   1,C   0,C   2)      0.0009         0.014814   
     39. D(C   3,C   1,C   0,H  10)    179.9997         0.014814   
     40. D(C   5,C   2,C   0,H  10)   -179.9996         0.040271   
     41. D(H   9,C   2,C   0,C   1)    179.9994         0.040271   
     42. D(C   5,C   2,C   0,C   1)     -0.0008         0.040271   
     43. D(H   9,C   2,C   0,H  10)      0.0006         0.040271   
     44. D(H  12,C   3,C   1,H  11)      0.0000         0.040272   
     45. D(H  12,C   3,C   1,C   0)    179.9993         0.040272   
     46. D(C   4,C   3,C   1,H  11)   -179.9995         0.040272   
     47. D(C   4,C   3,C   1,C   0)     -0.0003         0.040272   
     48. D(N   7,C   4,C   3,C   1)   -179.9997         0.014811   
     49. D(C   5,C   4,C   3,H  12)   -180.0000         0.014811   
     50. D(C   5,C   4,C   3,C   1)     -0.0004         0.014811   
     51. D(N   7,C   4,C   3,H  12)      0.0008         0.014811   
     52. D(N   6,C   5,C   4,N   7)     -0.0005         0.051310   
     53. D(C   2,C   5,C   4,N   7)    179.9999         0.051310   
     54. D(C   2,C   5,C   4,C   3)      0.0005         0.051310   
     55. D(N   6,C   5,C   2,H   9)      0.0003         0.014812   
     56. D(N   6,C   5,C   2,C   0)   -179.9995         0.014812   
     57. D(N   6,C   5,C   4,C   3)   -179.9998         0.051310   
     58. D(C   4,C   5,C   2,H   9)    179.9999         0.014812   
     59. D(C   4,C   5,C   2,C   0)      0.0001         0.014812   
     60. D(S   8,N   6,C   5,C   4)      0.0005         0.066152   
     61. D(S   8,N   6,C   5,C   2)   -179.9999         0.066152   
     62. D(S   8,N   7,C   4,C   5)      0.0002         0.066155   
     63. D(S   8,N   7,C   4,C   3)    179.9995         0.066155   
     64. D(N   6,S   8,N   7,C   4)      0.0000         0.003883   
     65. D(N   7,S   8,N   6,C   5)     -0.0003         0.003883   
    -----------------------------------------------------------------

Number of atoms                         .... 13
Number of degrees of freedom            .... 65

         *************************************************************
         *                GEOMETRY OPTIMIZATION CYCLE   1            *
         *************************************************************
---------------------------------
CARTESIAN COORDINATES (ANGSTROEM)
---------------------------------
  C     -3.758590    0.677000    0.000020
  C     -3.582020   -0.781940    0.000330
  C     -2.670780    1.459130   -0.001880
  C     -2.339040   -1.281990   -0.001280
  C     -1.157460   -0.408130   -0.003340
  C     -1.314860    0.892370   -0.003630
  N     -0.253080    1.565820   -0.005440
  N      0.034320   -0.808830   -0.004920
  S      1.157830    0.531870   -0.007090
  H     -2.793740    2.538030   -0.002130
  H     -4.753390    1.110950    0.001290
  H     -4.444590   -1.440660    0.001850
  H     -2.201090   -2.359070   -0.001050

----------------------------
CARTESIAN COORDINATES (A.U.)
----------------------------
  NO LB      ZA    FRAG     MASS         X           Y           Z
   0 C     6.0000    0    12.011   -7.102706    1.279345    0.000038
   1 C     6.0000    0    12.011   -6.769037   -1.477652    0.000624
   2 C     6.0000    0    12.011   -5.047043    2.757356   -0.003553
   3 C     6.0000    0    12.011   -4.420145   -2.422610   -0.002419
   4 C     6.0000    0    12.011   -2.187282   -0.771254   -0.006312
   5 C     6.0000    0    12.011   -2.484725    1.686335   -0.006860
   6 N     7.0000    0    14.007   -0.478252    2.958971   -0.010280
   7 N     7.0000    0    14.007    0.064855   -1.528467   -0.009297
   8 S    16.0000    0    32.060    2.187982    1.005089   -0.013398
   9 H     1.0000    0     1.008   -5.279403    4.796182   -0.004025
  10 H     1.0000    0     1.008   -8.982605    2.099391    0.002438
  11 H     1.0000    0     1.008   -8.399058   -2.722453    0.003496
  12 H     1.0000    0     1.008   -4.159457   -4.457996   -0.001984

--------------------------------
INTERNAL COORDINATES (ANGSTROEM)
--------------------------------
 C      0   0   0     0.000000000000     0.00000000     0.00000000
 C      1   0   0     1.469585990883     0.00000000     0.00000000
 C      1   2   0     1.339799068144   118.81520505     0.00000000
 C      2   1   3     1.339795460136   118.81557911     0.00000000
 C      4   2   1     1.469614520750   121.59968099     0.00000000
 C      5   4   2     1.309990493897   119.58450654     0.00000000
 N      6   5   4     1.257344402700   115.48455736   180.00017170
 N      5   4   2     1.257339474764   124.93090668   180.00030069
 S      7   6   5     1.749206206569   111.37962991     0.00000000
 H      3   1   2     1.085884171586   119.21410809   179.99942048
 H      1   2   3     1.085330021422   120.46840212   179.99881022
 H      2   1   3     1.085330066708   120.46719156   180.00009899
 H      4   2   1     1.085878253673   119.21342866   179.99926474

---------------------------
INTERNAL COORDINATES (A.U.)
---------------------------
 C      0   0   0     0.000000000000     0.00000000     0.00000000
 C      1   0   0     2.777115053016     0.00000000     0.00000000
 C      1   2   0     2.531853313275   118.81520505     0.00000000
 C      2   1   3     2.531846495127   118.81557911     0.00000000
 C      4   2   1     2.777168966652   121.59968099     0.00000000
 C      5   4   2     2.475523271505   119.58450654     0.00000000
 N      6   5   4     2.376036577121   115.48455736   180.00017170
 N      5   4   2     2.376027264672   124.93090668   180.00030069
 S      7   6   5     3.305520682171   111.37962991     0.00000000
 H      3   1   2     2.052023697457   119.21410809   179.99942048
 H      1   2   3     2.050976505411   120.46840212   179.99881022
 H      2   1   3     2.050976590988   120.46719156   180.00009899
 H      4   2   1     2.052012514223   119.21342866   179.99926474

---------------------
BASIS SET INFORMATION
---------------------
There are 4 groups of distinct atoms

 Group   1 Type C   : 10s4p1d contracted to 3s2p1d pattern {631/31/1}
 Group   2 Type N   : 10s4p1d contracted to 3s2p1d pattern {631/31/1}
 Group   3 Type S   : 16s10p1d contracted to 4s3p1d pattern {6631/631/1}
 Group   4 Type H   : 4s contracted to 2s pattern {31}

Atom   0C    basis set group =>   1
Atom   1C    basis set group =>   1
Atom   2C    basis set group =>   1
Atom   3C    basis set group =>   1
Atom   4C    basis set group =>   1
Atom   5C    basis set group =>   1
Atom   6N    basis set group =>   2
Atom   7N    basis set group =>   2
Atom   8S    basis set group =>   3
Atom   9H    basis set group =>   4
Atom  10H    basis set group =>   4
Atom  11H    basis set group =>   4
Atom  12H    basis set group =>   4

-------------------------
BASIS SET IN INPUT FORMAT
-------------------------

 # Basis set for element : H 
 NewGTO H 
 S 3 
   1      18.7311370000      0.0334945995
   2       2.8253937000      0.2347269467
   3       0.6401217000      0.8137573184
 S 1 
   1       0.1612778000      1.0000000000
  end;

 # Basis set for element : C 
 NewGTO C 
 S 6 
   1    3047.5249000000      0.0018347002
   2     457.3695100000      0.0140373012
   3     103.9486900000      0.0688426061
   4      29.2101550000      0.2321844206
   5       9.2866630000      0.4679413416
   6       3.1639270000      0.3623120322
 S 3 
   1       7.8682724000     -0.1193324086
   2       1.8812885000     -0.1608542116
   3       0.5442493000      1.1434564826
 P 3 
   1       7.8682724000      0.0689990956
   2       1.8812885000      0.3164239798
   3       0.5442493000      0.7443082524
 S 1 
   1       0.1687144000      1.0000000000
 P 1 
   1       0.1687144000      1.0000000000
 D 1 
   1       0.8000000000      1.0000000000
  end;

 # Basis set for element : N 
 NewGTO N 
 S 6 
   1    4173.5110000000      0.0018347994
   2     627.4579000000      0.0139949958
   3     142.9021000000      0.0685869792
   4      40.2343300000      0.2322409295
   5      12.8202100000      0.4690698576
   6       4.3904370000      0.3604548906
 S 3 
   1      11.6263580000     -0.1149610229
   2       2.7162800000     -0.1691180337
   3       0.7722180000      1.1458522281
 P 3 
   1      11.6263580000      0.0675800232
   2       2.7162800000      0.3239071114
   3       0.7722180000      0.7408952549
 S 1 
   1       0.2120313000      1.0000000000
 P 1 
   1       0.2120313000      1.0000000000
 D 1 
   1       0.8000000000      1.0000000000
  end;

 # Basis set for element : S 
 NewGTO S 
 S 6 
   1   21917.1000000000      0.0018690012
   2    3301.4900000000      0.0142300092
   3     754.1460000000      0.0696960451
   4     212.7110000000      0.2384871542
   5      67.9896000000      0.4833073125
   6      23.0515000000      0.3380742186
 S 6 
   1     423.7350000000     -0.0023767005
   2     100.7100000000     -0.0316930066
   3      32.1599000000     -0.1133170236
   4      11.8079000000      0.0560900117
   5       4.6311000000      0.5922551234
   6       1.8702500000      0.4550060948
 P 6 
   1     423.7350000000      0.0040610003
   2     100.7100000000      0.0306810024
   3      32.1599000000      0.1304520103
   4      11.8079000000      0.3272050259
   5       4.6311000000      0.4528510358
   6       1.8702500000      0.2560420203
 S 3 
   1       2.6158400000     -0.2503731142
   2       0.9221670000      0.0669567631
   3       0.3412870000      1.0545062691
 P 3 
   1       2.6158400000     -0.0145109929
   2       0.9221670000      0.3102628472
   3       0.3412870000      0.7544826285
 S 1 
   1       0.1171670000      1.0000000000
 P 1 
   1       0.1171670000      1.0000000000
 D 1 
   1       0.6500000000      1.0000000000
  end;

------------------------------------------------------------------------------
                           ORCA GTO INTEGRAL CALCULATION
------------------------------------------------------------------------------

                         BASIS SET STATISTICS AND STARTUP INFO

 # of primitive gaussian shells          ...  163
 # of primitive gaussian functions       ...  283
 # of contracted shells                  ...   64
 # of contracted basis functions         ...  138
 Highest angular momentum                ...    2
 Maximum contraction depth               ...    6
 Integral package used                   ... LIBINT
 Integral threshhold            Thresh   ...  2.500e-11
 Primitive cut-off              TCut     ...  2.500e-12


------------------------------ INTEGRAL EVALUATION ----------------------------


 * One electron integrals 
 Pre-screening matrix                    ... done
 Shell pair data                         ... done (   0.002 sec)

-------------------------------------------------------------------------------
                                 ORCA SCF
-------------------------------------------------------------------------------

------------
SCF SETTINGS
------------
Hamiltonian:
 Density Functional     Method          .... DFT(GTOs)
 Exchange Functional    Exchange        .... B88
   X-Alpha parameter    XAlpha          ....  0.666667
   Becke's b parameter  XBeta           ....  0.004200
 Correlation Functional Correlation     .... LYP
 LDA part of GGA corr.  LDAOpt          .... VWN-5
 Gradients option       PostSCFGGA      .... off
 Hybrid DFT is turned on
   Fraction HF Exchange ScalHFX         ....  0.200000
   Scaling of DF-GGA-X  ScalDFX         ....  0.720000
   Scaling of DF-GGA-C  ScalDFC         ....  0.810000
   Scaling of DF-LDA-C  ScalLDAC        ....  1.000000
   Perturbative correction              ....  0.000000
   Density functional embedding theory  .... OFF
   NL short-range parameter             ....  4.800000


General Settings:
 Integral files         IntName         .... /Users/lailaal-madhagi/Desktop/Testing_XAS_Analysis_code/2-1-3_Benzotrithiadizole//Results_dir_Benzotrithiadizole_geom_element_N_2019-11-14_07-17-39//GTE1_Benzotrithiadizole_geom_2019-11-14_07-17-55//opt
 Hartree-Fock type      HFTyp           .... RHF
 Total Charge           Charge          ....    0
 Multiplicity           Mult            ....    1
 Number of Electrons    NEL             ....   70
 Basis Dimension        Dim             ....  138
 Nuclear Repulsion      ENuc            ....    474.4694836268 Eh

Convergence Acceleration:
 DIIS                   CNVDIIS         .... on
   Start iteration      DIISMaxIt       ....    12
   Startup error        DIISStart       ....  0.200000
   # of expansion vecs  DIISMaxEq       ....     5
   Bias factor          DIISBfac        ....   1.050
   Max. coefficient     DIISMaxC        ....  10.000
 Newton-Raphson         CNVNR           .... off
 SOSCF                  CNVSOSCF        .... on
   Start iteration      SOSCFMaxIt      ....   150
   Startup grad/error   SOSCFStart      ....  0.003300
 Level Shifting         CNVShift        .... on
   Level shift para.    LevelShift      ....    0.2500
   Turn off err/grad.   ShiftErr        ....    0.0010
 Zerner damping         CNVZerner       .... off
 Static damping         CNVDamp         .... on
   Fraction old density DampFac         ....    0.7000
   Max. Damping (<1)    DampMax         ....    0.9800
   Min. Damping (>=0)   DampMin         ....    0.0000
   Turn off err/grad.   DampErr         ....    0.1000
 Fernandez-Rico         CNVRico         .... off

SCF Procedure:
 Maximum # iterations   MaxIter         ....   125
 SCF integral mode      SCFMode         .... Direct
   Integral package                     .... LIBINT
 Reset frequency        DirectResetFreq ....    20
 Integral Threshold     Thresh          ....  2.500e-11 Eh
 Primitive CutOff       TCut            ....  2.500e-12 Eh

Convergence Tolerance:
 Convergence Check Mode ConvCheckMode   .... Total+1el-Energy
 Convergence forced     ConvForced      .... 0
 Energy Change          TolE            ....  1.000e-08 Eh
 1-El. energy change                    ....  1.000e-05 Eh
 Orbital Gradient       TolG            ....  1.000e-05
 Orbital Rotation angle TolX            ....  1.000e-05
 DIIS Error             TolErr          ....  5.000e-07


Diagonalization of the overlap matrix:
Smallest eigenvalue                        ... 4.099e-04
Time for diagonalization                   ...    0.004 sec
Threshold for overlap eigenvalues          ... 1.000e-08
Number of eigenvalues below threshold      ... 0
Time for construction of square roots      ...    0.002 sec
Total time needed                          ...    0.006 sec

-------------------
DFT GRID GENERATION
-------------------

General Integration Accuracy     IntAcc      ...  4.340
Radial Grid Type                 RadialGrid  ... Gauss-Chebyshev
Angular Grid (max. acc.)         AngularGrid ... Lebedev-194
Angular grid pruning method      GridPruning ... 3 (G Style)
Weight generation scheme         WeightScheme... Becke
Basis function cutoff            BFCut       ...    1.0000e-11
Integration weight cutoff        WCut        ...    1.0000e-14
Grids for H and He will be reduced by one unit

# of grid points (after initial pruning)     ...  36028 (   0.0 sec)
# of grid points (after weights+screening)   ...  33487 (   0.0 sec)
nearest neighbour list constructed           ...    0.0 sec
Grid point re-assignment to atoms done       ...    0.0 sec
Grid point division into batches done        ...    0.1 sec
Reduced shell lists constructed in    0.2 sec

Total number of grid points                  ...    33487
Total number of batches                      ...      530
Average number of points per batch           ...       63
Average number of grid points per atom       ...     2576
Average number of shells per batch           ...    43.97 (68.70%)
Average number of basis functions per batch  ...    98.07 (71.06%)
Average number of large shells per batch     ...    34.88 (79.32%)
Average number of large basis fcns per batch ...    77.95 (79.48%)
Maximum spatial batch extension              ...  19.38, 21.21, 22.17 au
Average spatial batch extension              ...   3.12,  3.12,  3.72 au

Time for grid setup =    0.297 sec

------------------------------
INITIAL GUESS: MODEL POTENTIAL
------------------------------
Loading Hartree-Fock densities                     ... done
Calculating cut-offs                               ... done
Setting up the integral package                    ... done
Initializing the effective Hamiltonian             ... done
Starting the Coulomb interaction                   ... done (   0.1 sec)
Reading the grid                                   ... done
Mapping shells                                     ... done
Starting the XC term evaluation                    ... done (   0.2 sec)
  promolecular density results
     # of electrons  =     69.998065434
     EX              =    -70.236914217
     EC              =     -2.513362922
     EX+EC           =    -72.750277138
Transforming the Hamiltonian                       ... done (   0.0 sec)
Diagonalizing the Hamiltonian                      ... done (   0.0 sec)
Back transforming the eigenvectors                 ... done (   0.0 sec)
Now organizing SCF variables                       ... done
                      ------------------
                      INITIAL GUESS DONE (   0.7 sec)
                      ------------------
--------------
SCF ITERATIONS
--------------
               ***  Starting incremental Fock matrix formation  ***

                         ----------------------------
                         !        ITERATION     0   !
                         ----------------------------
   Total Energy        :    -738.000049754027 Eh
   Energy Change       :    -738.000049754027 Eh
   MAX-DP              :       0.179369043496
   RMS-DP              :       0.004441533689
   Actual Damping      :       0.7000
   Actual Level Shift  :       0.2500 Eh
   Int. Num. El.       :    70.00026128 (UP=   35.00013064 DN=   35.00013064)
   Exchange            :   -56.82998409
   Correlation         :    -2.97764806


                         ----------------------------
                         !        ITERATION     1   !
                         ----------------------------
   Total Energy        :    -738.203831605628 Eh
   Energy Change       :      -0.203781851601 Eh
   MAX-DP              :       0.109352516249
   RMS-DP              :       0.002891271274
   Actual Damping      :       0.7000
   Actual Level Shift  :       0.2500 Eh
   Int. Num. El.       :    70.00031039 (UP=   35.00015520 DN=   35.00015520)
   Exchange            :   -56.57405566
   Correlation         :    -2.96645762

                               ***Turning on DIIS***

                         ----------------------------
                         !        ITERATION     2   !
                         ----------------------------
   Total Energy        :    -738.262500135492 Eh
   Energy Change       :      -0.058668529864 Eh
   MAX-DP              :       0.117600884262
   RMS-DP              :       0.003966455366
   Actual Damping      :       0.0000
   Actual Level Shift  :       0.2500 Eh
   Int. Num. El.       :    70.00034518 (UP=   35.00017259 DN=   35.00017259)
   Exchange            :   -56.41750442
   Correlation         :    -2.95914359
   DIIS-Error          :       0.031126203405


                         ----------------------------
                         !        ITERATION     3   !
                         ----------------------------
   Total Energy        :    -738.354602487282 Eh
   Energy Change       :      -0.092102351790 Eh
   MAX-DP              :       0.102018302282
   RMS-DP              :       0.002429669721
   Actual Damping      :       0.0000
   Actual Level Shift  :       0.2500 Eh
   Int. Num. El.       :    70.00039883 (UP=   35.00019941 DN=   35.00019941)
   Exchange            :   -56.20144107
   Correlation         :    -2.94898734
   DIIS-Error          :       0.071607613095
   DIIS coefficients:
      0.72285   0.27715


                         ----------------------------
                         !        ITERATION     4   !
                         ----------------------------
   Total Energy        :    -738.389384651816 Eh
   Energy Change       :      -0.034782164533 Eh
   MAX-DP              :       0.017991555119
   RMS-DP              :       0.000736057804
   Actual Damping      :       0.0000
   Actual Level Shift  :       0.2500 Eh
   Int. Num. El.       :    70.00038229 (UP=   35.00019115 DN=   35.00019115)
   Exchange            :   -56.27383143
   Correlation         :    -2.95292131
   DIIS-Error          :       0.014657405324
   DIIS coefficients:
      0.25362  -0.05579   0.80217


                         ----------------------------
                         !        ITERATION     5   !
                         ----------------------------
   Total Energy        :    -738.391449302968 Eh
   Energy Change       :      -0.002064651153 Eh
   MAX-DP              :       0.006562143555
   RMS-DP              :       0.000295447505
   Actual Damping      :       0.0000
   Actual Level Shift  :       0.2500 Eh
   Int. Num. El.       :    70.00037639 (UP=   35.00018820 DN=   35.00018820)
   Exchange            :   -56.30014237
   Correlation         :    -2.95412247
   DIIS-Error          :       0.005746157913
   DIIS coefficients:
      0.04579  -0.06027   0.22457   0.78991

                      *** Initiating the SOSCF procedure ***
                           *** Shutting down DIIS ***
                      *** Re-Reading the Fockian *** 
                      *** Removing any level shift *** 

                         ----------------------------
                         !        ITERATION     6   !
                         ----------------------------
   Total Energy        :    -738.391753059917 Eh
   Energy Change       :      -0.000303756948 Eh
   MAX-DP              :       0.003892506327
   RMS-DP              :       0.000116031475
   Orbital gradient    :       0.001829593229
   Orbital Rotation    :       0.001829593229
   Actual Damping      :       0.0000
   Int. Num. El.       :    70.00037704 (UP=   35.00018852 DN=   35.00018852)
   Exchange            :   -56.30956218
   Correlation         :    -2.95450466

               *** Restarting incremental Fock matrix formation ***

                         ----------------------------
                         !        ITERATION     7   !
                         ----------------------------
   Total Energy        :    -738.391796718302 Eh
   Energy Change       :      -0.000043658385 Eh
   MAX-DP              :       0.003245842134
   RMS-DP              :       0.000109731054
   Orbital gradient    :       0.001074911262
   Orbital Rotation    :       0.004707433752
   Actual Damping      :       0.0000
   Int. Num. El.       :    70.00037800 (UP=   35.00018900 DN=   35.00018900)
   Exchange            :   -56.30971742
   Correlation         :    -2.95452696


                         ----------------------------
                         !        ITERATION     8   !
                         ----------------------------
   Total Energy        :    -738.391810918723 Eh
   Energy Change       :      -0.000014200421 Eh
   MAX-DP              :       0.002117711108
   RMS-DP              :       0.000060125235
   Orbital gradient    :       0.000368942466
   Orbital Rotation    :       0.001999155068
   Actual Damping      :       0.0000
   Int. Num. El.       :    70.00037911 (UP=   35.00018956 DN=   35.00018956)
   Exchange            :   -56.31036347
   Correlation         :    -2.95456784


                         ----------------------------
                         !        ITERATION     9   !
                         ----------------------------
   Total Energy        :    -738.391811236808 Eh
   Energy Change       :      -0.000000318085 Eh
   MAX-DP              :       0.001186644131
   RMS-DP              :       0.000032342780
   Orbital gradient    :       0.000450789025
   Orbital Rotation    :       0.000928583855
   Actual Damping      :       0.0000
   Int. Num. El.       :    70.00037972 (UP=   35.00018986 DN=   35.00018986)
   Exchange            :   -56.30956762
   Correlation         :    -2.95452925


                         ----------------------------
                         !        ITERATION    10   !
                         ----------------------------
   Total Energy        :    -738.391813930057 Eh
   Energy Change       :      -0.000002693249 Eh
   MAX-DP              :       0.000389981735
   RMS-DP              :       0.000015976954
   Orbital gradient    :       0.000098944647
   Orbital Rotation    :       0.000467876802
   Actual Damping      :       0.0000
   Int. Num. El.       :    70.00037952 (UP=   35.00018976 DN=   35.00018976)
   Exchange            :   -56.30979387
   Correlation         :    -2.95453823


                         ----------------------------
                         !        ITERATION    11   !
                         ----------------------------
   Total Energy        :    -738.391813943634 Eh
   Energy Change       :      -0.000000013577 Eh
   MAX-DP              :       0.000237711082
   RMS-DP              :       0.000009299575
   Orbital gradient    :       0.000103837761
   Orbital Rotation    :       0.000341609453
   Actual Damping      :       0.0000
   Int. Num. El.       :    70.00037934 (UP=   35.00018967 DN=   35.00018967)
   Exchange            :   -56.30996490
   Correlation         :    -2.95454664


                         ----------------------------
                         !        ITERATION    12   !
                         ----------------------------
   Total Energy        :    -738.391814259342 Eh
   Energy Change       :      -0.000000315708 Eh
   MAX-DP              :       0.000092323925
   RMS-DP              :       0.000002751618
   Orbital gradient    :       0.000018960538
   Orbital Rotation    :       0.000102299615
   Actual Damping      :       0.0000
   Int. Num. El.       :    70.00037943 (UP=   35.00018972 DN=   35.00018972)
   Exchange            :   -56.30989220
   Correlation         :    -2.95454412


                         ----------------------------
                         !        ITERATION    13   !
                         ----------------------------
   Total Energy        :    -738.391814248205 Eh
   Energy Change       :       0.000000011137 Eh
   MAX-DP              :       0.000072220363
   RMS-DP              :       0.000001769226
   Orbital gradient    :       0.000034028214
   Orbital Rotation    :       0.000063189061
   Actual Damping      :       0.0000
   Int. Num. El.       :    70.00037946 (UP=   35.00018973 DN=   35.00018973)
   Exchange            :   -56.30984147
   Correlation         :    -2.95454023


                         ----------------------------
                         !        ITERATION    14   !
                         ----------------------------
   Total Energy        :    -738.391814265229 Eh
   Energy Change       :      -0.000000017024 Eh
   MAX-DP              :       0.000023231370
   RMS-DP              :       0.000000919096
   Orbital gradient    :       0.000005090508
   Orbital Rotation    :       0.000024313337
   Actual Damping      :       0.0000
   Int. Num. El.       :    70.00037945 (UP=   35.00018972 DN=   35.00018972)
   Exchange            :   -56.30986422
   Correlation         :    -2.95454213


                         ----------------------------
                         !        ITERATION    15   !
                         ----------------------------
   Total Energy        :    -738.391814263823 Eh
   Energy Change       :       0.000000001407 Eh
   MAX-DP              :       0.000018597769
   RMS-DP              :       0.000000629133
   Orbital gradient    :       0.000009873454
   Orbital Rotation    :       0.000017728291
   Actual Damping      :       0.0000
   Int. Num. El.       :    70.00037943 (UP=   35.00018972 DN=   35.00018972)
   Exchange            :   -56.30988513
   Correlation         :    -2.95454343

                  ***Gradient check signals convergence***
              ***Rediagonalizing the Fockian in SOSCF/NRSCF***

               *****************************************************
               *                     SUCCESS                       *
               *           SCF CONVERGED AFTER  16 CYCLES          *
               *****************************************************

Setting up the final grid:

General Integration Accuracy     IntAcc      ...  5.010
Radial Grid Type                 RadialGrid  ... Gauss-Chebyshev
Angular Grid (max. acc.)         AngularGrid ... Lebedev-434
Angular grid pruning method      GridPruning ... 3 (G Style)
Weight generation scheme         WeightScheme... Becke
Basis function cutoff            BFCut       ...    1.0000e-11
Integration weight cutoff        WCut        ...    1.0000e-14
Grids for H and He will be reduced by one unit

# of grid points (after initial pruning)     ... 123876 (   0.0 sec)
# of grid points (after weights+screening)   ... 114137 (   0.1 sec)
nearest neighbour list constructed           ...    0.0 sec
Grid point re-assignment to atoms done       ...    0.0 sec
Grid point division into batches done        ...    0.6 sec
Reduced shell lists constructed in    1.2 sec

Total number of grid points                  ...   114137
Total number of batches                      ...     1789
Average number of points per batch           ...       63
Average number of grid points per atom       ...     8780
Average number of shells per batch           ...    40.74 (63.65%)
Average number of basis functions per batch  ...    90.43 (65.53%)
Average number of large shells per batch     ...    31.75 (77.94%)
Average number of large basis fcns per batch ...    70.64 (78.11%)
Maximum spatial batch extension              ...  21.92, 18.40, 21.65 au
Average spatial batch extension              ...   2.15,  2.13,  2.38 au

Final grid set up in    1.4 sec
Final integration                            ... done (   0.9 sec)
Change in XC energy                          ...     0.000210614
Integrated number of electrons               ...    70.000005866
Previous integrated no of electrons          ...    70.000379443

----------------
TOTAL SCF ENERGY
----------------

Total Energy       :         -738.39160365 Eh          -20092.65703 eV

Components:
Nuclear Repulsion  :          474.46948363 Eh           12910.97103 eV
Electronic Energy  :        -1212.86108728 Eh          -33003.62806 eV
One Electron Energy:        -1950.86032542 Eh          -53085.60827 eV
Two Electron Energy:          737.99923814 Eh           20081.98022 eV

Virial components:
Potential Energy   :        -1474.59484760 Eh          -40125.76576 eV
Kinetic Energy     :          736.20324395 Eh           20033.10873 eV
Virial Ratio       :            2.00297249


DFT components:
N(Alpha)           :       35.000002932988 electrons
N(Beta)            :       35.000002932988 electrons
N(Total)           :       70.000005865975 electrons
E(X)               :      -56.309660649856 Eh       
E(C)               :       -2.954546711471 Eh       
E(XC)              :      -59.264207361327 Eh       
DFET-embed. en.    :        0.000000000000 Eh       

---------------
SCF CONVERGENCE
---------------

  Last Energy change         ...   -1.5939e-09  Tolerance :   1.0000e-08
  Last MAX-Density change    ...    8.5422e-06  Tolerance :   1.0000e-07
  Last RMS-Density change    ...    2.3026e-07  Tolerance :   5.0000e-09
  Last Orbital Gradient      ...    1.3789e-06  Tolerance :   1.0000e-05
  Last Orbital Rotation      ...    2.1002e-06  Tolerance :   1.0000e-05

             **** THE GBW FILE WAS UPDATED (/Users/lailaal-madhagi/Desktop/Testing_XAS_Analysis_code/2-1-3_Benzotrithiadizole//Results_dir_Benzotrithiadizole_geom_element_N_2019-11-14_07-17-39//GTE1_Benzotrithiadizole_geom_2019-11-14_07-17-55//opt.gbw) ****
             **** DENSITY FILE WAS UPDATED (/Users/lailaal-madhagi/Desktop/Testing_XAS_Analysis_code/2-1-3_Benzotrithiadizole//Results_dir_Benzotrithiadizole_geom_element_N_2019-11-14_07-17-39//GTE1_Benzotrithiadizole_geom_2019-11-14_07-17-55//opt.scfp.tmp) ****
             **** ENERGY FILE WAS UPDATED (/Users/lailaal-madhagi/Desktop/Testing_XAS_Analysis_code/2-1-3_Benzotrithiadizole//Results_dir_Benzotrithiadizole_geom_element_N_2019-11-14_07-17-39//GTE1_Benzotrithiadizole_geom_2019-11-14_07-17-55//opt.en.tmp) ****
----------------
ORBITAL ENERGIES
----------------

  NO   OCC          E(Eh)            E(eV) 
   0   2.0000     -88.944158     -2420.2936 
   1   2.0000     -14.352347      -390.5472 
   2   2.0000     -14.352280      -390.5454 
   3   2.0000     -10.219610      -278.0897 
   4   2.0000     -10.218710      -278.0652 
   5   2.0000     -10.201336      -277.5925 
   6   2.0000     -10.201119      -277.5866 
   7   2.0000     -10.196194      -277.4526 
   8   2.0000     -10.196179      -277.4521 
   9   2.0000      -8.013122      -218.0481 
  10   2.0000      -5.978089      -162.6721 
  11   2.0000      -5.973087      -162.5360 
  12   2.0000      -5.968344      -162.4069 
  13   2.0000      -1.017017       -27.6745 
  14   2.0000      -0.884217       -24.0608 
  15   2.0000      -0.854354       -23.2481 
  16   2.0000      -0.766077       -20.8460 
  17   2.0000      -0.746754       -20.3202 
  18   2.0000      -0.657422       -17.8894 
  19   2.0000      -0.614178       -16.7126 
  20   2.0000      -0.590781       -16.0760 
  21   2.0000      -0.504162       -13.7189 
  22   2.0000      -0.497777       -13.5452 
  23   2.0000      -0.487717       -13.2714 
  24   2.0000      -0.453277       -12.3343 
  25   2.0000      -0.434023       -11.8104 
  26   2.0000      -0.403898       -10.9906 
  27   2.0000      -0.388709       -10.5773 
  28   2.0000      -0.376447       -10.2436 
  29   2.0000      -0.347655        -9.4602 
  30   2.0000      -0.323183        -8.7943 
  31   2.0000      -0.299740        -8.1563 
  32   2.0000      -0.275275        -7.4906 
  33   2.0000      -0.267520        -7.2796 
  34   2.0000      -0.237810        -6.4711 
  35   0.0000      -0.082549        -2.2463 
  36   0.0000      -0.039481        -1.0743 
  37   0.0000       0.013116         0.3569 
  38   0.0000       0.031801         0.8654 
  39   0.0000       0.057206         1.5567 
  40   0.0000       0.095397         2.5959 
  41   0.0000       0.142584         3.8799 
  42   0.0000       0.173405         4.7186 
  43   0.0000       0.176120         4.7925 
  44   0.0000       0.181113         4.9283 
  45   0.0000       0.243584         6.6283 
  46   0.0000       0.249083         6.7779 
  47   0.0000       0.295715         8.0468 
  48   0.0000       0.300387         8.1740 
  49   0.0000       0.309304         8.4166 
  50   0.0000       0.322616         8.7788 
  51   0.0000       0.349925         9.5219 
  52   0.0000       0.376680        10.2500 
  53   0.0000       0.383738        10.4421 
  54   0.0000       0.450915        12.2700 
  55   0.0000       0.491545        13.3756 
  56   0.0000       0.498479        13.5643 
  57   0.0000       0.502458        13.6726 
  58   0.0000       0.530210        14.4277 
  59   0.0000       0.539158        14.6712 
  60   0.0000       0.575513        15.6605 
  61   0.0000       0.581344        15.8192 
  62   0.0000       0.581600        15.8261 
  63   0.0000       0.615009        16.7353 
  64   0.0000       0.629306        17.1243 
  65   0.0000       0.638118        17.3641 
  66   0.0000       0.641467        17.4552 
  67   0.0000       0.653281        17.7767 
  68   0.0000       0.669807        18.2264 
  69   0.0000       0.690660        18.7938 
  70   0.0000       0.714165        19.4334 
  71   0.0000       0.753487        20.5034 
  72   0.0000       0.768586        20.9143 
  73   0.0000       0.788153        21.4467 
  74   0.0000       0.808064        21.9885 
  75   0.0000       0.832427        22.6515 
  76   0.0000       0.840683        22.8761 
  77   0.0000       0.865643        23.5553 
  78   0.0000       0.881187        23.9783 
  79   0.0000       0.887680        24.1550 
  80   0.0000       0.900377        24.5005 
  81   0.0000       0.942635        25.6504 
  82   0.0000       0.947489        25.7825 
  83   0.0000       0.952381        25.9156 
  84   0.0000       0.973964        26.5029 
  85   0.0000       1.010200        27.4889 
  86   0.0000       1.028045        27.9745 
  87   0.0000       1.076917        29.3044 
  88   0.0000       1.126516        30.6541 
  89   0.0000       1.141488        31.0615 
  90   0.0000       1.159907        31.5627 
  91   0.0000       1.204980        32.7892 
  92   0.0000       1.224820        33.3290 
  93   0.0000       1.309713        35.6391 
  94   0.0000       1.345500        36.6129 
  95   0.0000       1.417382        38.5689 
  96   0.0000       1.425152        38.7804 
  97   0.0000       1.427098        38.8333 
  98   0.0000       1.439586        39.1731 
  99   0.0000       1.449802        39.4511 
 100   0.0000       1.491462        40.5847 
 101   0.0000       1.508761        41.0555 
 102   0.0000       1.670189        45.4482 
 103   0.0000       1.734258        47.1915 
 104   0.0000       1.735061        47.2134 
 105   0.0000       1.837046        49.9886 
 106   0.0000       1.841081        50.0984 
 107   0.0000       1.872754        50.9602 
 108   0.0000       1.895883        51.5896 
 109   0.0000       1.902173        51.7608 
 110   0.0000       1.910874        51.9975 
 111   0.0000       1.922165        52.3048 
 112   0.0000       2.018489        54.9259 
 113   0.0000       2.022606        55.0379 
 114   0.0000       2.045443        55.6593 
 115   0.0000       2.067540        56.2606 
 116   0.0000       2.082066        56.6559 
 117   0.0000       2.206794        60.0499 
 118   0.0000       2.228898        60.6514 
 119   0.0000       2.237328        60.8808 
 120   0.0000       2.318100        63.0787 
 121   0.0000       2.335278        63.5461 
 122   0.0000       2.347781        63.8864 
 123   0.0000       2.351730        63.9938 
 124   0.0000       2.385861        64.9226 
 125   0.0000       2.581829        70.2551 
 126   0.0000       2.588172        70.4277 
 127   0.0000       2.658614        72.3446 
 128   0.0000       2.669466        72.6399 
 129   0.0000       2.697998        73.4162 
 130   0.0000       2.719107        73.9907 
 131   0.0000       2.777805        75.5879 
 132   0.0000       2.792513        75.9882 
 133   0.0000       2.829836        77.0038 
 134   0.0000       2.908976        79.1573 
 135   0.0000       3.017104        82.0996 
 136   0.0000       3.274217        89.0960 
 137   0.0000       3.479637        94.6857 
------------------
MOLECULAR ORBITALS
------------------
                      0         1         2         3         4         5   
                 -88.94416 -14.35235 -14.35228 -10.21961 -10.21871 -10.20134
                   2.00000   2.00000   2.00000   2.00000   2.00000   2.00000
                  --------  --------  --------  --------  --------  --------
  0C   1s        -0.000001 -0.000059  0.000034 -0.000408 -0.000502  0.643711
  0C   2s         0.000008 -0.000365  0.000302 -0.000533 -0.000659  0.022217
  0C   1pz       -0.000000 -0.000000 -0.000000  0.000001 -0.000000 -0.000001
  0C   1px        0.000042  0.000184  0.000149 -0.000410  0.000208  0.000489
  0C   1py        0.000021  0.000110  0.000011  0.000021  0.000178  0.000629
  0C   3s         0.000556  0.011378 -0.001112 -0.002074  0.015091 -0.011178
  0C   2pz       -0.000000 -0.000008  0.000001  0.000000 -0.000011  0.000002
  0C   2px        0.000198  0.005715 -0.000835 -0.000227  0.008102 -0.000983
  0C   2py        0.000090 -0.001504  0.000294 -0.000352 -0.002265 -0.001438
  0C   1dz2       0.000002 -0.000052  0.000086 -0.000148 -0.000083  0.000055
  0C   1dxz      -0.000000 -0.000000  0.000000 -0.000000 -0.000000 -0.000001
  0C   1dyz      -0.000000 -0.000000  0.000000 -0.000000 -0.000000 -0.000000
  0C   1dx2y2     0.000012  0.000012  0.000050 -0.000103  0.000051  0.000815
  0C   1dxy       0.000009  0.000017 -0.000039  0.000010  0.000092  0.000428
  1C   1s        -0.000001  0.000068  0.000008 -0.000416  0.000497  0.755640
  1C   2s         0.000008  0.000456  0.000130 -0.000543  0.000650  0.026506
  1C   1pz       -0.000000  0.000000 -0.000000  0.000001  0.000000 -0.000001
  1C   1px        0.000046 -0.000128  0.000218 -0.000389 -0.000250  0.000707
  1C   1py       -0.000011  0.000068 -0.000003 -0.000120  0.000121 -0.000352
  1C   3s         0.000556 -0.010862  0.003565 -0.001841 -0.015122 -0.016274
  1C   2pz       -0.000000  0.000008 -0.000002  0.000000  0.000012  0.000003
  1C   2px        0.000214 -0.005050  0.001413 -0.000191 -0.007331 -0.002363
  1C   2py       -0.000040 -0.002780  0.000694  0.000352 -0.004128  0.000037
  1C   1dz2       0.000002  0.000082  0.000058 -0.000149  0.000081 -0.000064
  1C   1dxz      -0.000000  0.000000  0.000000 -0.000000  0.000000 -0.000001
  1C   1dyz       0.000000  0.000000 -0.000000 -0.000000 -0.000000  0.000000
  1C   1dx2y2     0.000015 -0.000006  0.000031 -0.000085 -0.000089  0.000830
  1C   1dxy      -0.000002  0.000032  0.000049 -0.000057  0.000057 -0.000087
  2C   1s         0.000012  0.000096  0.000042  0.003061 -0.003314  0.045184
  2C   2s         0.000089  0.000576  0.000463 -0.001323  0.001294 -0.000041
  2C   1pz        0.000000  0.000000 -0.000000  0.000001 -0.000000 -0.000002
  2C   1px       -0.000045 -0.000327  0.000127 -0.000679  0.000214  0.000937
  2C   1py       -0.000024  0.000114 -0.000139  0.000477 -0.000102  0.000786
  2C   3s        -0.001241 -0.017461 -0.000276  0.006511 -0.022984  0.003850
  2C   2pz       -0.000000 -0.000003  0.000000  0.000000 -0.000003  0.000002
  2C   2px       -0.000010 -0.000751 -0.000636  0.001122 -0.001518 -0.001168
  2C   2py        0.000771  0.011485  0.001300 -0.004516  0.013273 -0.001344
  2C   1dz2       0.000025  0.000219  0.000116  0.000293 -0.000334  0.000338
  2C   1dxz       0.000000  0.000000  0.000000  0.000002 -0.000002  0.000001
  2C   1dyz       0.000000 -0.000000  0.000000 -0.000001  0.000001  0.000001
  2C   1dx2y2     0.000013  0.000273  0.000142 -0.000672  0.000577 -0.000210
  2C   1dxy      -0.000007  0.000233  0.000086  0.000489 -0.000441 -0.000712
  3C   1s         0.000012 -0.000071  0.000077  0.003011  0.003362  0.053058
  3C   2s         0.000089 -0.000340  0.000656 -0.001303 -0.001314 -0.000042
  3C   1pz        0.000000 -0.000001  0.000000  0.000001  0.000000 -0.000002
  3C   1px       -0.000049  0.000302 -0.000034 -0.000543 -0.000192  0.001249
  3C   1py        0.000012  0.000239  0.000075 -0.000622 -0.000160 -0.000583
  3C   3s        -0.001241  0.015870 -0.007285  0.006156  0.023082  0.006102
  3C   2pz        0.000000 -0.000001  0.000002 -0.000002 -0.000003  0.000002
  3C   2px        0.000175 -0.001964  0.000529  0.000038 -0.001692 -0.001808
  3C   2py       -0.000751  0.009803 -0.005860  0.004448  0.013323  0.002041
  3C   1dz2       0.000025 -0.000154  0.000195  0.000288  0.000339  0.000410
  3C   1dxz       0.000000 -0.000000  0.000000  0.000002  0.000002  0.000002
  3C   1dyz       0.000000 -0.000000  0.000000  0.000001  0.000001 -0.000001
  3C   1dx2y2     0.000008 -0.000254  0.000293 -0.000364 -0.000312 -0.000609
  3C   1dxy       0.000013  0.000069 -0.000042 -0.000734 -0.000669  0.000605
  4C   1s         0.000017  0.000255 -0.000158  0.697973  0.709209  0.000086
  4C   2s         0.000082  0.001010  0.000533  0.024978  0.030208 -0.000428
  4C   1pz       -0.000000  0.000001 -0.000002 -0.000001 -0.000001 -0.000000
  4C   1px        0.000025 -0.000821  0.001310  0.000871  0.000453  0.000241
  4C   1py        0.000084  0.000366 -0.000283 -0.000788  0.001569  0.000030
  4C   3s        -0.000707  0.003441 -0.007592 -0.007170 -0.035070 -0.002336
  4C   2pz        0.000002 -0.000042  0.000021 -0.000008 -0.000037  0.000001
  4C   2px       -0.001594  0.030505 -0.015085  0.006060  0.029021 -0.000700
  4C   2py       -0.000398 -0.006066  0.001855 -0.000976 -0.014031  0.000820
  4C   1dz2       0.000084  0.000425 -0.000328 -0.000556 -0.001533  0.000015
  4C   1dxz       0.000000  0.000002 -0.000002 -0.000003 -0.000003  0.000000
  4C   1dyz       0.000000 -0.000001  0.000001  0.000001 -0.000000  0.000000
  4C   1dx2y2    -0.000028 -0.000559  0.000759  0.001075 -0.000334 -0.000125
  4C   1dxy       0.000008  0.000522 -0.000637 -0.000351 -0.000642 -0.000028
  5C   1s         0.000017 -0.000297 -0.000041  0.708828 -0.698360  0.000180
  5C   2s         0.000082 -0.000709  0.000895  0.025441 -0.029820 -0.000483
  5C   1pz       -0.000000 -0.000002 -0.000001 -0.000001  0.000001 -0.000000
  5C   1px        0.000044  0.001135  0.000817  0.000670 -0.000804  0.000237
  5C   1py       -0.000076  0.000741  0.000316  0.000952  0.001431  0.000036
  5C   3s        -0.000707 -0.006208 -0.005563 -0.007710  0.034956 -0.001377
  5C   2pz        0.000002  0.000052  0.000002 -0.000010  0.000044  0.000003
  5C   2px       -0.001643 -0.031513 -0.001654  0.006034 -0.024745 -0.001389
  5C   2py        0.000006 -0.014228  0.000363  0.002709 -0.020510 -0.001249
  5C   1dz2       0.000084 -0.000521 -0.000129 -0.000580  0.001525  0.000004
  5C   1dxz       0.000000 -0.000002 -0.000001 -0.000003  0.000003  0.000000
  5C   1dyz       0.000000 -0.000002 -0.000001 -0.000001  0.000002  0.000000
  5C   1dx2y2    -0.000021  0.000384  0.000243  0.000781  0.000606 -0.000110
  5C   1dxy      -0.000020  0.001029  0.000548  0.000815 -0.000401 -0.000041
  6N   1s        -0.000052 -0.833776 -0.543845 -0.000015 -0.000088 -0.000027
  6N   2s        -0.000461 -0.029467 -0.017864  0.000447 -0.001235 -0.000261
  6N   1pz        0.000000 -0.000002 -0.000001 -0.000002  0.000002  0.000000
  6N   1px       -0.000031  0.000777  0.000444  0.001088 -0.000920  0.000011
  6N   1py        0.000045  0.002193  0.001397  0.000554 -0.000734 -0.000043
  6N   3s         0.002048  0.041266  0.013689 -0.007491  0.017953  0.002054
  6N   2pz        0.000000  0.000017  0.000002 -0.000004  0.000012  0.000002
  6N   2px        0.000019 -0.009044 -0.000121  0.002296 -0.007360 -0.001000
  6N   2py       -0.001129 -0.009306 -0.003865  0.002633 -0.003466 -0.000301
  6N   1dz2      -0.000251 -0.000198  0.000080  0.000794 -0.000973 -0.000043
  6N   1dxz      -0.000001 -0.000000  0.000000  0.000003 -0.000004 -0.000000
  6N   1dyz       0.000000  0.000000  0.000001  0.000002 -0.000002 -0.000000
  6N   1dx2y2     0.000029 -0.000127 -0.000085 -0.000511  0.000536  0.000043
  6N   1dxy      -0.000240 -0.000210 -0.000389 -0.000957  0.001122  0.000070
  7N   1s        -0.000052  0.544012 -0.833667 -0.000017  0.000088 -0.000026
  7N   2s        -0.000461  0.019773 -0.028222  0.000428  0.001242 -0.000248
  7N   1pz        0.000000  0.000001 -0.000001 -0.000002 -0.000001 -0.000000
  7N   1px       -0.000020 -0.000862  0.001215  0.001172  0.001086  0.000005
  7N   1py       -0.000051  0.001276 -0.001928 -0.000270 -0.000497  0.000046
  7N   3s         0.002048 -0.032254  0.029152 -0.007214 -0.018068  0.001716
  7N   2pz       -0.000000 -0.000012  0.000005 -0.000003 -0.000011  0.000001
  7N   2px       -0.000250  0.009652 -0.005385  0.002735  0.008018 -0.000999
  7N   2py        0.001101 -0.004797  0.006180 -0.001984 -0.001641 -0.000007
  7N   1dz2      -0.000251  0.000214 -0.000007  0.000779  0.000986 -0.000049
  7N   1dxz      -0.000001  0.000000  0.000000  0.000003  0.000004 -0.000000
  7N   1dyz      -0.000001  0.000000 -0.000001 -0.000001 -0.000001  0.000000
  7N   1dx2y2    -0.000086  0.000089 -0.000319 -0.000881 -0.001009  0.000075
  7N   1dxy       0.000226  0.000007  0.000331  0.000600  0.000756 -0.000042
  8S   1s         0.996609 -0.000005 -0.000022  0.000004  0.000000 -0.000002
  8S   2s         0.012505  0.000018  0.000084 -0.000125 -0.000001 -0.000007
  8S   1pz        0.000000  0.000000  0.000000 -0.000000 -0.000000  0.000000
  8S   1px       -0.000183 -0.000052 -0.000174  0.000092 -0.000002 -0.000004
  8S   1py       -0.000022  0.000114 -0.000046  0.000011  0.000025  0.000001
  8S   3s        -0.004726 -0.000150 -0.000714 -0.000242 -0.000002 -0.000088
  8S   2pz       -0.000001 -0.000000 -0.000003  0.000001  0.000000 -0.000000
  8S   2px        0.000732  0.000541  0.001724 -0.000497  0.000010  0.000017
  8S   2py        0.000089 -0.001364  0.000509 -0.000059 -0.000118 -0.000006
  8S   4s         0.001868 -0.001223 -0.005813  0.002150  0.000016  0.000461
  8S   3pz        0.000000 -0.000001 -0.000005  0.000003 -0.000000  0.000000
  8S   3px       -0.000194  0.000680  0.003195 -0.001823 -0.000213 -0.000204
  8S   3py       -0.000024  0.000023  0.000399 -0.000233  0.001642 -0.000025
  8S   1dz2       0.000176  0.000089  0.000425 -0.000341 -0.000003 -0.000027
  8S   1dxz       0.000000  0.000000  0.000002 -0.000002 -0.000000 -0.000000
  8S   1dyz       0.000000 -0.000001  0.000000 -0.000000 -0.000000 -0.000000
  8S   1dx2y2    -0.000029 -0.000219 -0.000285  0.000494 -0.000027 -0.000043
  8S   1dxy      -0.000007  0.000605 -0.000208  0.000120  0.000126 -0.000008
  9H   1s        -0.000040 -0.000351 -0.000023 -0.000011 -0.000237 -0.000207
  9H   2s        -0.000198 -0.003065 -0.000768  0.001675 -0.003088  0.000459
 10H   1s        -0.000009  0.000108 -0.000017  0.000053  0.000189 -0.001021
 10H   2s        -0.000009  0.001115 -0.000374  0.000424  0.001759  0.002638
 11H   1s        -0.000009 -0.000106  0.000028  0.000056 -0.000188 -0.001162
 11H   2s        -0.000009 -0.001171  0.000107  0.000451 -0.001752  0.002782
 12H   1s        -0.000040  0.000312 -0.000163 -0.000015  0.000236 -0.000222
 12H   2s        -0.000198  0.002496 -0.001937  0.001627  0.003114  0.000672
                      6         7         8         9        10        11   
                 -10.20112 -10.19619 -10.19618  -8.01312  -5.97809  -5.97309
                   2.00000   2.00000   2.00000   2.00000   2.00000   2.00000
                  --------  --------  --------  --------  --------  --------
  0C   1s        -0.755498  0.058888  0.041681  0.000006  0.000049  0.000004
  0C   2s        -0.028757  0.004265  0.002943 -0.000031  0.000325 -0.000016
  0C   1pz        0.000001 -0.000002 -0.000002  0.000000  0.000000  0.000000
  0C   1px       -0.000751  0.001135  0.000937 -0.000195  0.000000 -0.000110
  0C   1py        0.000700  0.000810  0.000402 -0.000099 -0.000072  0.000029
  0C   3s         0.032935 -0.015957 -0.004945 -0.002715 -0.003232 -0.002161
  0C   2pz       -0.000010  0.000010  0.000004  0.000002  0.000002  0.000001
  0C   2px        0.008269 -0.006955 -0.002262 -0.000955 -0.002038 -0.000172
  0C   2py       -0.005166  0.001446 -0.000865 -0.000471  0.003158 -0.000956
  0C   1dz2       0.000741 -0.000602 -0.000359 -0.000004  0.000079  0.000009
  0C   1dxz       0.000001 -0.000002 -0.000001  0.000000  0.000000  0.000000
  0C   1dyz       0.000001 -0.000002 -0.000001  0.000000  0.000000  0.000000
  0C   1dx2y2     0.000688  0.000200  0.000169 -0.000053  0.000034 -0.000007
  0C   1dxy      -0.000244  0.000935  0.000700 -0.000044 -0.000024 -0.000034
  1C   1s         0.643607 -0.044295  0.056243  0.000006 -0.000049  0.000004
  1C   2s         0.024861 -0.003242  0.004016 -0.000031 -0.000325 -0.000017
  1C   1pz       -0.000001  0.000001 -0.000002  0.000000  0.000000  0.000000
  1C   1px        0.000456 -0.000957  0.001332 -0.000213  0.000017 -0.000100
  1C   1py        0.000926  0.000447 -0.000307  0.000049 -0.000070 -0.000055
  1C   3s        -0.030741  0.013890 -0.009253 -0.002716  0.003235 -0.002155
  1C   2pz        0.000012 -0.000009  0.000006  0.000001 -0.000003  0.000000
  1C   2px       -0.006506  0.005463 -0.004120 -0.001040  0.001226 -0.000393
  1C   2py       -0.007085  0.003023 -0.000579  0.000229  0.003551  0.000893
  1C   1dz2      -0.000741  0.000475 -0.000515 -0.000004 -0.000079  0.000009
  1C   1dxz      -0.000001  0.000002 -0.000002  0.000000 -0.000000  0.000000
  1C   1dyz       0.000000 -0.000001  0.000001 -0.000000 -0.000000 -0.000000
  1C   1dx2y2    -0.000636 -0.000450  0.000629 -0.000068 -0.000019 -0.000022
  1C   1dxy      -0.000528  0.000552 -0.000728  0.000014 -0.000037  0.000027
  2C   1s        -0.055822 -0.795211 -0.593948 -0.000058 -0.000076  0.000020
  2C   2s        -0.000088 -0.029727 -0.021634 -0.000382 -0.000395  0.000166
  2C   1pz        0.000002 -0.000001 -0.000001 -0.000000 -0.000000 -0.000000
  2C   1px       -0.000938  0.000119  0.000241  0.000225  0.000209  0.000137
  2C   1py       -0.000552  0.000993  0.000570  0.000117 -0.000100  0.000053
  2C   3s        -0.014397  0.029021  0.017679  0.005759  0.012295  0.000782
  2C   2pz       -0.000004  0.000002  0.000000  0.000002 -0.000008  0.000004
  2C   2px        0.000732  0.000956  0.000521 -0.000071  0.006262 -0.002209
  2C   2py        0.006821 -0.007236 -0.002708 -0.003688 -0.002186 -0.001070
  2C   1dz2      -0.000474  0.000475  0.000434 -0.000111 -0.000147  0.000049
  2C   1dxz      -0.000002  0.000002  0.000002 -0.000000 -0.000001  0.000000
  2C   1dyz      -0.000001  0.000001  0.000001 -0.000000 -0.000000 -0.000000
  2C   1dx2y2     0.000324 -0.000320 -0.000243 -0.000041  0.000114 -0.000091
  2C   1dxy       0.000725 -0.000394 -0.000359  0.000033  0.000042  0.000116
  3C   1s         0.047570  0.593829 -0.795349 -0.000058  0.000076  0.000020
  3C   2s         0.000081  0.022359 -0.029185 -0.000382  0.000395  0.000167
  3C   1pz       -0.000001  0.000000 -0.000000 -0.000000  0.000000 -0.000000
  3C   1px        0.000855 -0.000232  0.000454  0.000247 -0.000179  0.000145
  3C   1py       -0.000222  0.000756 -0.000741 -0.000060 -0.000147 -0.000019
  3C   3s         0.013612 -0.022804  0.025183  0.005760 -0.012296  0.000762
  3C   2pz        0.000001  0.000001 -0.000001 -0.000000  0.000009  0.000003
  3C   2px       -0.002076  0.000725 -0.000359 -0.000949 -0.005556 -0.002410
  3C   2py        0.006205 -0.006174  0.004697  0.003565 -0.003617  0.000506
  3C   1dz2       0.000415 -0.000332  0.000551 -0.000111  0.000147  0.000049
  3C   1dxz       0.000002 -0.000001  0.000002 -0.000000  0.000001  0.000000
  3C   1dyz      -0.000001  0.000000 -0.000000 -0.000000  0.000000  0.000000
  3C   1dx2y2    -0.000534  0.000338 -0.000498 -0.000021 -0.000120 -0.000027
  3C   1dxy       0.000401 -0.000134  0.000254 -0.000048 -0.000016 -0.000145
  4C   1s        -0.000608 -0.002921  0.003590 -0.000078  0.000138 -0.000061
  4C   2s         0.000381 -0.000981  0.001648 -0.000326  0.000615 -0.000035
  4C   1pz       -0.000000 -0.000001  0.000001  0.000000 -0.000000 -0.000001
  4C   1px       -0.000006  0.000342 -0.000734 -0.000048  0.000176  0.000386
  4C   1py        0.000053  0.000455 -0.000423 -0.000363  0.000180  0.000031
  4C   3s        -0.005815  0.011989 -0.007305  0.003624 -0.019965  0.005559
  4C   2pz       -0.000009  0.000005 -0.000007 -0.000012  0.000029 -0.000004
  4C   2px        0.006006 -0.003098  0.004320  0.007540 -0.014873  0.002969
  4C   2py       -0.000460 -0.000304  0.001363  0.001737 -0.019689 -0.000395
  4C   1dz2       0.000068  0.000386 -0.000425 -0.000331  0.000397 -0.000172
  4C   1dxz       0.000000  0.000001 -0.000002 -0.000001  0.000001 -0.000001
  4C   1dyz       0.000000  0.000001 -0.000001 -0.000000  0.000000 -0.000000
  4C   1dx2y2    -0.000040 -0.000081  0.000184  0.000188  0.000293  0.000236
  4C   1dxy      -0.000081 -0.000837  0.000792 -0.000069  0.000100  0.000205
  5C   1s         0.000589  0.003818  0.002611 -0.000078 -0.000138 -0.000062
  5C   2s        -0.000307  0.001409  0.001302 -0.000326 -0.000615 -0.000036
  5C   1pz        0.000000  0.000001  0.000001  0.000000  0.000000 -0.000001
  5C   1px       -0.000046 -0.000653 -0.000655 -0.000133 -0.000214  0.000381
  5C   1py        0.000048  0.000412  0.000124  0.000341  0.000133  0.000063
  5C   3s         0.006109 -0.013572 -0.003604  0.003623  0.019955  0.005592
  5C   2pz        0.000009 -0.000006 -0.000005 -0.000011 -0.000022 -0.000005
  5C   2px       -0.005571  0.004239  0.003463  0.007736  0.019136  0.002820
  5C   2py       -0.001702  0.000342 -0.000405  0.000112 -0.015574  0.001067
  5C   1dz2      -0.000070 -0.000491 -0.000298 -0.000331 -0.000397 -0.000172
  5C   1dxz      -0.000000 -0.000002 -0.000001 -0.000001 -0.000001 -0.000001
  5C   1dyz       0.000000  0.000001  0.000001 -0.000000 -0.000000  0.000000
  5C   1dx2y2     0.000092  0.000591  0.000378  0.000134 -0.000306  0.000304
  5C   1dxy      -0.000048 -0.000850 -0.000391  0.000148 -0.000047 -0.000072
  6N   1s        -0.000004 -0.000015  0.000028  0.000208  0.000137  0.000160
  6N   2s        -0.000064 -0.000090  0.000338  0.001778  0.001308  0.001707
  6N   1pz        0.000000  0.000000  0.000000  0.000000 -0.000000  0.000000
  6N   1px       -0.000034 -0.000119 -0.000067  0.000024  0.000132 -0.000153
  6N   1py        0.000006  0.000030  0.000037 -0.000119 -0.000073  0.000104
  6N   3s         0.001972  0.001199 -0.001661 -0.009008 -0.011012 -0.008720
  6N   2pz        0.000000  0.000001 -0.000001 -0.000002  0.000001 -0.000000
  6N   2px       -0.000103 -0.000866  0.000435  0.000216 -0.002314 -0.001027
  6N   2py       -0.000413 -0.000337  0.000635  0.005242  0.007254  0.004442
  6N   1dz2       0.000043  0.000053  0.000109  0.001048  0.000672  0.000785
  6N   1dxz       0.000000 -0.000000  0.000000  0.000002  0.000002  0.000001
  6N   1dyz       0.000000  0.000000  0.000000 -0.000001 -0.000001 -0.000000
  6N   1dx2y2    -0.000029  0.000179  0.000079 -0.000121 -0.000360  0.000204
  6N   1dxy      -0.000017  0.000063 -0.000049  0.000869  0.000563  0.000712
  7N   1s         0.000009  0.000023  0.000022  0.000208 -0.000137  0.000160
  7N   2s         0.000105  0.000183  0.000299  0.001778 -0.001311  0.001705
  7N   1pz       -0.000000 -0.000000  0.000000 -0.000000  0.000000  0.000000
  7N   1px        0.000031  0.000088 -0.000085 -0.000005 -0.000111 -0.000124
  7N   1py        0.000006  0.000040 -0.000066  0.000121 -0.000102 -0.000137
  7N   3s        -0.002274 -0.001621 -0.001251 -0.009009  0.011026 -0.008702
  7N   2pz       -0.000000 -0.000001 -0.000000 -0.000000 -0.000004  0.000002
  7N   2px        0.000362  0.001045  0.000288  0.001461  0.000516  0.000063
  7N   2py       -0.000381 -0.000261 -0.000457 -0.005039  0.007603 -0.004546
  7N   1dz2      -0.000036 -0.000020  0.000120  0.001048 -0.000673  0.000784
  7N   1dxz      -0.000000  0.000000  0.000000  0.000003 -0.000002  0.000001
  7N   1dyz      -0.000000 -0.000000 -0.000000  0.000002 -0.000001  0.000002
  7N   1dx2y2     0.000022 -0.000167  0.000098  0.000296  0.000057  0.000511
  7N   1dxy       0.000006 -0.000004  0.000085 -0.000826  0.000666 -0.000535
  8S   1s         0.000000  0.000000  0.000002 -0.280808 -0.000002  0.001814
  8S   2s         0.000001  0.000002  0.000012  1.026961  0.000007 -0.006842
  8S   1pz       -0.000000 -0.000000  0.000000  0.000008 -0.000236  0.001482
  8S   1px       -0.000002 -0.000002 -0.000006 -0.005438 -0.118193 -0.983477
  8S   1py        0.000016  0.000010 -0.000002 -0.000660  0.983391 -0.118203
  8S   3s         0.000007  0.000016  0.000107  0.038752 -0.000001  0.001789
  8S   2pz        0.000000  0.000000 -0.000000  0.000005 -0.000008  0.000049
  8S   2px        0.000011  0.000010  0.000021 -0.003646 -0.003947 -0.032207
  8S   2py       -0.000105 -0.000053  0.000010 -0.000441  0.032834 -0.003870
  8S   4s        -0.000037 -0.000041 -0.000284 -0.012786 -0.000004  0.004600
  8S   3pz       -0.000000 -0.000000 -0.000000 -0.000002  0.000002 -0.000009
  8S   3px        0.000017 -0.000003  0.000156  0.001410  0.000878  0.006252
  8S   3py       -0.000000  0.000210 -0.000012  0.000171 -0.007294  0.000750
  8S   1dz2       0.000002 -0.000000 -0.000001 -0.001064  0.000002 -0.001414
  8S   1dxz       0.000000  0.000000  0.000000 -0.000003  0.000000 -0.000005
  8S   1dyz      -0.000000 -0.000000  0.000000 -0.000001  0.000004 -0.000001
  8S   1dx2y2    -0.000005 -0.000012 -0.000033  0.000028  0.000597  0.000811
  8S   1dxy       0.000035  0.000027 -0.000012  0.000007 -0.002434  0.000197
  9H   1s         0.000113  0.001060  0.000714  0.000188 -0.000125  0.000154
  9H   2s        -0.001387 -0.001791 -0.002086  0.000984  0.000092  0.000144
 10H   1s         0.000967 -0.000042  0.000017  0.000045 -0.000155  0.000118
 10H   2s        -0.001115 -0.001088 -0.000315  0.000050 -0.000820  0.000276
 11H   1s        -0.000792  0.000045  0.000005  0.000045  0.000155  0.000118
 11H   2s         0.000682  0.000955 -0.000612  0.000050  0.000820  0.000277
 12H   1s        -0.000078 -0.000814  0.000986  0.000188  0.000125  0.000154
 12H   2s         0.001295  0.001125 -0.002510  0.000985 -0.000092  0.000144
                     12        13        14        15        16        17   
                  -5.96834  -1.01702  -0.88422  -0.85435  -0.76608  -0.74675
                   2.00000   2.00000   2.00000   2.00000   2.00000   2.00000
                  --------  --------  --------  --------  --------  --------
  0C   1s        -0.000000 -0.007460  0.007592  0.101782 -0.084678 -0.084182
  0C   2s        -0.000000  0.015260 -0.013719 -0.192941  0.163588  0.165723
  0C   1pz       -0.000009 -0.000014  0.000017  0.000084 -0.000003 -0.000129
  0C   1px       -0.000000  0.009476 -0.009344 -0.061898  0.009067  0.059320
  0C   1py       -0.000000 -0.000750 -0.009249  0.017463 -0.027606  0.105392
  0C   3s        -0.000000  0.018173 -0.040927 -0.124206  0.130211  0.109441
  0C   2pz       -0.000045 -0.000001  0.000027  0.000009  0.000002  0.000011
  0C   2px       -0.000000 -0.000365 -0.017150 -0.007690 -0.000432 -0.013807
  0C   2py       -0.000000  0.004887 -0.004492  0.005534 -0.002984  0.021816
  0C   1dz2       0.000000 -0.000693  0.000744  0.009736 -0.006990 -0.005074
  0C   1dxz      -0.000007 -0.000002  0.000004  0.000025 -0.000013 -0.000026
  0C   1dyz      -0.000013 -0.000001  0.000002  0.000006 -0.000003 -0.000010
  0C   1dx2y2    -0.000000  0.000340 -0.000909 -0.000080 -0.002410  0.007469
  0C   1dxy      -0.000000  0.000135 -0.001290  0.000361 -0.001708  0.006575
  1C   1s         0.000000 -0.007458 -0.007593  0.101767 -0.084684  0.084179
  1C   2s         0.000000  0.015265  0.013729 -0.192993  0.163656 -0.165745
  1C   1pz       -0.000009 -0.000014 -0.000014  0.000093 -0.000014  0.000085
  1C   1px       -0.000000  0.009024  0.011284 -0.055948  0.002237 -0.082749
  1C   1py       -0.000000  0.002989 -0.006750 -0.031737  0.028966  0.088183
  1C   3s         0.000000  0.018137  0.040871 -0.123770  0.129861 -0.109280
  1C   2pz       -0.000045  0.000001 -0.000026  0.000012  0.000001 -0.000022
  1C   2px       -0.000000  0.000775  0.017709 -0.005958 -0.001284  0.008260
  1C   2py       -0.000000 -0.004800 -0.000250 -0.007068  0.002696  0.024458
  1C   1dz2       0.000000 -0.000692 -0.000743  0.009724 -0.006983  0.005071
  1C   1dxz      -0.000010 -0.000002 -0.000004  0.000025 -0.000014  0.000026
  1C   1dyz       0.000011 -0.000000  0.000001  0.000007 -0.000006 -0.000004
  1C   1dx2y2    -0.000000  0.000364  0.001403  0.000092 -0.002923 -0.009666
  1C   1dxy       0.000000  0.000038 -0.000720 -0.000359  0.000398  0.002360
  2C   1s         0.000000 -0.019004  0.029515  0.092523 -0.015355 -0.126563
  2C   2s         0.000000  0.036748 -0.057425 -0.175386  0.028945  0.246703
  2C   1pz       -0.000034 -0.000024  0.000037 -0.000051  0.000135  0.000084
  2C   1px       -0.000000  0.019523 -0.026534  0.017817 -0.088500 -0.049559
  2C   1py       -0.000000 -0.011623  0.002949  0.063436 -0.015265 -0.029153
  2C   3s        -0.000000  0.011521  0.018832 -0.106206  0.017442  0.194894
  2C   2pz        0.000269 -0.000021  0.000027 -0.000008  0.000008  0.000014
  2C   2px        0.000000  0.011428 -0.009401  0.004670 -0.007161 -0.010623
  2C   2py        0.000000  0.010917 -0.033887  0.003807  0.005306  0.004149
  2C   1dz2      -0.000000 -0.002690  0.003146  0.008550 -0.000455 -0.008997
  2C   1dxz       0.000027 -0.000009  0.000012  0.000021 -0.000001 -0.000023
  2C   1dyz      -0.000028  0.000002 -0.000000  0.000008 -0.000012 -0.000010
  2C   1dx2y2     0.000000  0.002281 -0.003049  0.001019 -0.002023 -0.000525
  2C   1dxy      -0.000000 -0.001844  0.000988 -0.001163  0.007696  0.002214
  3C   1s        -0.000000 -0.019000 -0.029517  0.092510 -0.015377  0.126567
  3C   2s        -0.000000  0.036755  0.057446 -0.175381  0.028971 -0.246716
  3C   1pz       -0.000034 -0.000030 -0.000040 -0.000025  0.000133 -0.000074
  3C   1px       -0.000000  0.016185  0.025072  0.032433 -0.089591  0.055056
  3C   1py       -0.000000  0.015942  0.009197 -0.057363 -0.006273 -0.016508
  3C   3s         0.000000  0.011402 -0.018925 -0.106293  0.017669 -0.194879
  3C   2pz        0.000269 -0.000017 -0.000013 -0.000007  0.000011 -0.000017
  3C   2px        0.000001  0.013592  0.017099  0.005607 -0.005807  0.009547
  3C   2py        0.000000 -0.007935 -0.030719 -0.002552 -0.006800  0.006695
  3C   1dz2      -0.000000 -0.002688 -0.003144  0.008546 -0.000457  0.008996
  3C   1dxz       0.000019 -0.000010 -0.000012  0.000020 -0.000001  0.000023
  3C   1dyz       0.000034 -0.000005 -0.000005  0.000004  0.000012  0.000003
  3C   1dx2y2     0.000000  0.001168  0.002245  0.000364  0.001771 -0.000561
  3C   1dxy       0.000000  0.002687  0.002284  0.001515 -0.007762  0.002219
  4C   1s        -0.000000 -0.103176 -0.083976  0.054152  0.087906  0.019802
  4C   2s        -0.000000  0.190279  0.157262 -0.102766 -0.173677 -0.038013
  4C   1pz        0.000152 -0.000142 -0.000132 -0.000132  0.000026 -0.000146
  4C   1px        0.000000  0.087115  0.114456  0.095993 -0.002745  0.089589
  4C   1py        0.000000  0.036702 -0.087611 -0.018817 -0.055303  0.039895
  4C   3s         0.000001  0.046015  0.063410 -0.061645 -0.119241 -0.055012
  4C   2pz       -0.000582  0.000029  0.000146 -0.000041  0.000005 -0.000026
  4C   2px       -0.000001 -0.024508 -0.103781  0.028936 -0.002211  0.018108
  4C   2py        0.000000  0.016504  0.013176 -0.003154 -0.003226 -0.002016
  4C   1dz2       0.000000 -0.010575 -0.006242  0.003963  0.004448  0.001853
  4C   1dxz      -0.000066 -0.000032 -0.000035  0.000006 -0.000001  0.000007
  4C   1dyz      -0.000026 -0.000005  0.000010  0.000005  0.000000  0.000014
  4C   1dx2y2    -0.000000  0.003458  0.014522  0.003046  0.007154  0.000964
  4C   1dxy      -0.000000 -0.000533 -0.005493 -0.000812  0.003781 -0.008793
  5C   1s         0.000000 -0.103182  0.083961  0.054155  0.087910 -0.019781
  5C   2s         0.000000  0.190292 -0.157234 -0.102785 -0.173705  0.037993
  5C   1pz        0.000152 -0.000130  0.000176 -0.000146  0.000002  0.000134
  5C   1px        0.000000  0.093360 -0.090236  0.088740 -0.015848 -0.096523
  5C   1py        0.000000 -0.014856 -0.112392  0.041170  0.053046  0.017375
  5C   3s        -0.000000  0.046073 -0.063296 -0.061530 -0.119045  0.054796
  5C   2pz       -0.000583  0.000037 -0.000157 -0.000044  0.000003  0.000027
  5C   2px       -0.000001 -0.019633  0.097518  0.027299 -0.002941 -0.016995
  5C   2py        0.000000 -0.021967  0.037616  0.010004  0.002425 -0.006322
  5C   1dz2       0.000000 -0.010577  0.006240  0.003960  0.004446 -0.001848
  5C   1dxz      -0.000071 -0.000032  0.000035  0.000006 -0.000001 -0.000006
  5C   1dyz       0.000010 -0.000009  0.000017  0.000001  0.000006  0.000012
  5C   1dx2y2    -0.000000  0.002818 -0.010322  0.002325  0.008088  0.003219
  5C   1dxy      -0.000000  0.002071 -0.011598  0.002129 -0.000036 -0.008233
  6N   1s        -0.000000 -0.106624  0.133625 -0.031780 -0.011486  0.038647
  6N   2s        -0.000000  0.210875 -0.272774  0.067497  0.023354 -0.082392
  6N   1pz        0.000103  0.000093 -0.000141 -0.000046 -0.000191  0.000007
  6N   1px        0.000000 -0.037235  0.075044  0.038921  0.132305 -0.012465
  6N   1py        0.000000 -0.098905  0.080934 -0.028159 -0.003838  0.027304
  6N   3s         0.000000  0.229305 -0.343867  0.057319  0.048079 -0.092340
  6N   2pz       -0.000055  0.000037 -0.000073 -0.000026 -0.000059  0.000006
  6N   2px        0.000000 -0.011825  0.036444  0.020568  0.043027 -0.007769
  6N   2py       -0.000000 -0.050353  0.050534 -0.009163 -0.008538  0.013223
  6N   1dz2      -0.000001 -0.009746  0.007551 -0.001892 -0.000660  0.001534
  6N   1dxz       0.000384 -0.000023  0.000027 -0.000001  0.000002  0.000002
  6N   1dyz      -0.000388 -0.000011  0.000009  0.000007  0.000021 -0.000000
  6N   1dx2y2     0.000001 -0.001559 -0.004592 -0.001073  0.001115  0.000736
  6N   1dxy      -0.000000  0.002299 -0.004063 -0.005639 -0.014587  0.000932
[...]
 4 C  dx2y2           0.0       0.0       0.7       0.0       1.3       2.6
 4 C  dxy             3.1       0.0       1.7       0.0       0.4       3.5
 5 C  s               0.2       0.0       0.8       0.0       1.5       3.3
 5 C  px              0.7       0.0       0.0       0.0       0.6       0.9
 5 C  py              0.4       0.0       0.3       0.0       2.4       1.0
 5 C  dz2             0.3       0.0       4.0       0.0       0.7       5.6
 5 C  dxz             0.0       3.4       0.0      22.2       0.0       0.0
 5 C  dyz             0.0      21.8       0.0       0.5       0.0       0.0
 5 C  dx2y2           0.9       0.0       1.7       0.0       1.6       0.3
 5 C  dxy             2.2       0.0       0.6       0.0       0.0       5.7
 6 N  s               4.2       0.0       3.5       0.0       7.0       3.2
 6 N  pz              0.0       0.0       0.0       0.7       0.0       0.0
 6 N  px              0.0       0.0       0.8       0.0       0.8       1.8
 6 N  py              1.2       0.0       0.2       0.0       1.2       0.3
 6 N  dz2             8.5       0.0       7.9       0.0       8.9       0.7
 6 N  dxz             0.0       1.9       0.0       8.5       0.0       0.0
 6 N  dyz             0.0       1.4       0.0       8.1       0.0       0.0
 6 N  dx2y2          11.3       0.0       3.9       0.0       0.5       0.3
 6 N  dxy             0.0       0.0      13.2       0.0      14.3       3.3
 7 N  s               4.2       0.0       3.5       0.0       7.0       3.2
 7 N  pz              0.0       0.0       0.0       0.7       0.0       0.0
 7 N  px              0.1       0.0       0.6       0.0       0.4       2.0
 7 N  py              1.1       0.0       0.4       0.0       1.6       0.0
 7 N  dz2             8.5       0.0       7.9       0.0       8.9       0.7
 7 N  dxz             0.0       1.1       0.0      12.3       0.0       0.0
 7 N  dyz             0.0       2.2       0.0       4.3       0.0       0.0
 7 N  dx2y2           8.3       0.0       0.0       0.0       1.3       1.8
 7 N  dxy             3.1       0.0      17.1       0.0      13.6       1.8
 8 S  s               1.0       0.0       3.6       0.0       0.0       0.0
 8 S  px              1.4       0.0       2.2       0.0       0.1       0.0
 8 S  py              0.0       0.0       0.0       0.0       6.2       0.2
 8 S  dz2             0.2       0.0       1.6       0.0       0.0       0.0
 8 S  dxz             0.0       0.0       0.0       0.2       0.0       0.0
 8 S  dyz             0.0       0.4       0.0       0.0       0.0       0.0
 8 S  dx2y2           1.5       0.0       1.4       0.0       0.4       0.0
 8 S  dxy             0.1       0.0       0.1       0.0       6.0       0.2
 9 H  s               0.6       0.0       0.3       0.0       0.1       0.0
10 H  s               0.1       0.0       0.2       0.0       0.0       1.7
11 H  s               0.1       0.0       0.2       0.0       0.0       1.7
12 H  s               0.6       0.0       0.3       0.0       0.1       0.0

                    126       127       128       129       130       131   
                   2.53340   2.54560   2.61173   2.62360   2.67278   2.73747
                   0.00000   0.00000   0.00000   0.00000   0.00000   0.00000
                  --------  --------  --------  --------  --------  --------
 0 C  s               0.0       1.0       4.2       0.0       1.1       1.2
 0 C  px              0.0       0.5       0.4       0.0       0.7       0.0
 0 C  py              0.0       0.0       0.5       0.0       1.3       0.2
 0 C  dz2             0.0       1.9      10.4       0.0       2.4       1.1
 0 C  dxz             2.3       0.0       0.0       2.2       0.0       0.0
 0 C  dyz             1.2       0.0       0.0      14.4       0.0       0.0
 0 C  dx2y2           0.0       5.0       0.3       0.0       0.9       1.5
 0 C  dxy             0.0       0.5       0.2       0.0       1.6      11.4
 1 C  s               0.0       1.0       4.2       0.0       1.1       1.2
 1 C  px              0.0       0.5       0.3       0.0       1.2       0.0
 1 C  py              0.0       0.0       0.6       0.0       0.9       0.2
 1 C  dz2             0.0       1.9      10.4       0.0       2.4       1.1
 1 C  dxz             3.0       0.0       0.0       5.5       0.0       0.0
 1 C  dyz             0.5       0.0       0.0      11.1       0.0       0.0
 1 C  dx2y2           0.0       5.4       0.1       0.0       0.1       0.2
 1 C  dxy             0.0       0.2       0.5       0.0       2.4      12.6
 2 C  s               0.0       3.2       1.0       0.0       3.4       1.3
 2 C  pz              0.2       0.0       0.0       0.0       0.0       0.0
 2 C  px              0.0       0.0       0.9       0.0       0.0       0.8
 2 C  py              0.0       0.6       0.1       0.0       0.9       0.0
 2 C  dz2             0.0      10.1       1.5       0.0       7.9       2.9
 2 C  dxz             0.1       0.0       0.0      16.4       0.0       0.0
 2 C  dyz             4.6       0.0       0.0       0.1       0.0       0.0
 2 C  dx2y2           0.0       5.7       1.5       0.0       8.7       1.6
 2 C  dxy             0.0       0.2       0.0       0.0       1.3       0.2
 3 C  s               0.0       3.2       1.0       0.0       3.4       1.3
 3 C  pz              0.2       0.0       0.0       0.0       0.0       0.0
 3 C  px              0.0       0.1       1.0       0.0       0.1       0.9
 3 C  py              0.0       0.5       0.0       0.0       0.8       0.0
 3 C  dz2             0.0      10.1       1.5       0.0       7.9       2.9
 3 C  dxz             0.7       0.0       0.0      16.2       0.0       0.0
 3 C  dyz             4.0       0.0       0.0       0.4       0.0       0.0
 3 C  dx2y2           0.0       3.7       1.3       0.0       9.8       1.7
 3 C  dxy             0.0       2.2       0.2       0.0       0.1       0.1
 4 C  s               0.0       0.7       3.5       0.0       3.6       5.9
 4 C  px              0.0       1.4       0.9       0.0       0.1       0.7
 4 C  py              0.0       0.2       0.2       0.0       1.2       1.9
 4 C  dz2             0.0       0.4       4.5       0.0       4.6      10.0
 4 C  dxz            20.6       0.0       0.0       6.3       0.0       0.0
 4 C  dyz             5.5       0.0       0.0       8.6       0.0       0.0
 4 C  dx2y2           0.0       0.7       3.6       0.0       0.0       3.1
 4 C  dxy             0.0       1.9       0.3       0.0       0.4       0.0
 5 C  s               0.0       0.7       3.5       0.0       3.6       5.9
 5 C  px              0.0       1.1       1.1       0.0       0.0       0.3
 5 C  py              0.0       0.6       0.1       0.0       1.3       2.4
 5 C  dz2             0.0       0.4       4.5       0.0       4.6      10.0
 5 C  dxz            14.8       0.0       0.0       9.8       0.0       0.0
 5 C  dyz            11.3       0.0       0.0       5.1       0.0       0.0
 5 C  dx2y2           0.0       1.9       2.1       0.0       0.0       2.7
 5 C  dxy             0.0       0.7       1.9       0.0       0.4       0.4
 6 N  s               0.0       0.6       3.9       0.0       2.4       0.1
 6 N  pz              0.5       0.0       0.0       0.1       0.0       0.0
 6 N  px              0.0       1.3       1.1       0.0       0.4       0.8
 6 N  py              0.0       0.1       0.2       0.0       0.2       0.0
 6 N  dz2             0.0       0.4       5.0       0.0       3.0       0.2
 6 N  dxz            12.0       0.0       0.0       0.2       0.0       0.0
 6 N  dyz             2.8       0.0       0.0       1.6       0.0       0.0
 6 N  dx2y2           0.0       6.4       0.8       0.0       2.2       0.2
 6 N  dxy             0.0       4.3       4.2       0.0       1.4       2.9
 7 N  s               0.0       0.6       3.9       0.0       2.4       0.1
 7 N  pz              0.5       0.0       0.0       0.1       0.0       0.0
 7 N  px              0.0       1.1       1.3       0.0       0.5       0.7
 7 N  py              0.0       0.3       0.1       0.0       0.1       0.0
 7 N  dz2             0.0       0.4       5.0       0.0       3.0       0.2
 7 N  dxz            14.2       0.0       0.0       0.6       0.0       0.0
 7 N  dyz             0.7       0.0       0.0       1.2       0.0       0.0
 7 N  dx2y2           0.0      10.3       3.1       0.0       3.5       1.4
 7 N  dxy             0.0       0.4       2.0       0.0       0.1       1.7
 8 S  s               0.0       0.5       0.0       0.0       0.1       0.0
 8 S  px              0.0       0.5       0.0       0.0       0.1       0.0
 8 S  py              0.0       0.0       0.1       0.0       0.0       0.5
 8 S  dyz             0.1       0.0       0.0       0.0       0.0       0.0
 8 S  dx2y2           0.0       0.4       0.0       0.0       0.1       0.0
 8 S  dxy             0.0       0.0       0.1       0.0       0.0       0.4
 9 H  s               0.0       1.7       0.3       0.0       0.2       0.3
10 H  s               0.0       0.4       0.1       0.0       0.0       1.1
11 H  s               0.0       0.4       0.1       0.0       0.0       1.1
12 H  s               0.0       1.7       0.3       0.0       0.2       0.3

                    132       133       134       135       136       137   
                   2.76394   2.80053   2.85810   2.96000   3.14745   3.39008
                   0.00000   0.00000   0.00000   0.00000   0.00000   0.00000
                  --------  --------  --------  --------  --------  --------
 0 C  s               1.1       0.2       0.3       2.8       0.1       1.5
 0 C  px              0.7       0.3       0.4       0.4       0.3       0.1
 0 C  py              0.2       4.3       0.5       0.0       1.0       0.0
 0 C  dz2             0.5       0.0       0.0       3.6       0.0       1.0
 0 C  dx2y2           5.0      17.8       0.6       0.3       1.4       7.4
 0 C  dxy             0.8       6.2       1.2       3.9       2.4       5.1
 1 C  s               1.1       0.2       0.3       2.8       0.1       1.5
 1 C  px              0.7       1.0       0.6       0.4       0.5       0.1
 1 C  py              0.1       3.6       0.3       0.0       0.8       0.1
 1 C  dz2             0.5       0.0       0.0       3.6       0.0       1.0
 1 C  dx2y2           5.7      23.9       0.0       0.2       3.2       1.9
 1 C  dxy             0.1       0.1       1.8       4.0       0.7      10.6
 2 C  s               0.0       1.7       0.0       3.6       0.1       1.0
 2 C  px              2.5       0.4       0.6       0.5       2.4       0.0
 2 C  py              0.0       1.0       0.0       0.5       0.0       0.1
 2 C  dz2             0.1       0.7       0.0       3.9       0.2       0.7
 2 C  dx2y2           8.3       1.2       3.6       0.0       0.4      11.5
 2 C  dxy            10.2       2.7       8.6       0.2       8.5       0.8
 3 C  s               0.0       1.7       0.0       3.6       0.1       1.0
 3 C  px              2.4       0.6       0.6       0.7       2.2       0.0
 3 C  py              0.1       0.9       0.1       0.3       0.3       0.1
 3 C  dz2             0.1       0.7       0.0       3.9       0.2       0.7
 3 C  dx2y2           1.2       0.0       9.2       0.1       0.6      11.8
 3 C  dxy            17.3       3.9       2.9       0.1       8.4       0.6
 4 C  s               0.1       0.5       2.8       3.1       0.6       0.7
 4 C  px              3.4       0.0       0.5       0.8       0.0       0.5
 4 C  py              0.1       0.3       0.0       1.1       1.4       0.3
 4 C  dz2             0.1       0.4       1.9       3.3       0.3       0.6
 4 C  dx2y2           0.0       0.4      13.8       3.0      11.0       8.1
 4 C  dxy             7.8       7.6       0.2       4.3      13.4       6.9
 5 C  s               0.1       0.5       2.8       3.1       0.6       0.7
 5 C  px              3.5       0.1       0.6       0.6       0.2       0.3
 5 C  py              0.1       0.3       0.0       1.3       1.2       0.4
 5 C  dz2             0.1       0.4       1.9       3.3       0.3       0.6
 5 C  dx2y2           1.7       3.4      12.2       0.3      21.5       1.7
 5 C  dxy             6.1       4.6       1.8       7.0       2.9      13.3
 6 N  s               0.5       0.1       1.3       2.4       0.1       0.3
 6 N  px              1.0       0.1       0.9       2.1       0.0       0.6
 6 N  py              0.2       0.0       0.7       0.2       0.3       0.1
 6 N  dz2             0.1       0.1       1.1       2.3       0.1       0.0
 6 N  dx2y2           4.4       3.2       0.2       3.2       2.7       0.6
 6 N  dxy             1.9       0.4       9.7       4.2       3.1       0.9
 7 N  s               0.5       0.1       1.3       2.4       0.1       0.3
 7 N  px              0.9       0.1       1.3       2.2       0.0       0.7
 7 N  py              0.3       0.0       0.3       0.1       0.2       0.0
 7 N  dz2             0.1       0.1       1.1       2.3       0.1       0.0
 7 N  dx2y2           6.3       1.7       1.0       6.5       0.4       1.2
 7 N  dxy             0.1       2.0       8.9       0.9       5.4       0.3
 8 S  s               0.5       0.0       0.2       0.0       0.0       0.0
 8 S  px              0.4       0.0       0.1       0.0       0.0       0.0
 8 S  py              0.0       0.1       0.0       0.1       0.2       0.1
 8 S  dz2             0.0       0.0       0.2       0.0       0.0       0.0
 8 S  dx2y2           0.3       0.0       0.2       0.0       0.0       0.0
 8 S  dxy             0.0       0.0       0.0       0.2       0.1       0.1
 9 H  s               0.3       0.1       0.5       0.1       0.0       0.6
10 H  s               0.2       0.1       0.1       0.1       0.0       0.5
11 H  s               0.2       0.1       0.1       0.1       0.0       0.5
12 H  s               0.3       0.1       0.5       0.1       0.0       0.6



                      *****************************
                      * MAYER POPULATION ANALYSIS *
                      *****************************

  NA   - Mulliken gross atomic population
  ZA   - Total nuclear charge
  QA   - Mulliken gross atomic charge
  VA   - Mayer's total valence
  BVA  - Mayer's bonded valence
  FA   - Mayer's free valence

  ATOM       NA         ZA         QA         VA         BVA        FA
  0 C      6.1408     6.0000    -0.1408     3.9263     3.9263    -0.0000
  1 C      6.1402     6.0000    -0.1402     3.9269     3.9269     0.0000
  2 C      6.1286     6.0000    -0.1286     3.8937     3.8937    -0.0000
  3 C      6.1289     6.0000    -0.1289     3.8943     3.8943     0.0000
  4 C      5.8077     6.0000     0.1923     3.9621     3.9621     0.0000
  5 C      5.8068     6.0000     0.1932     3.9616     3.9616     0.0000
  6 N      7.5000     7.0000    -0.5000     2.8631     2.8631    -0.0000
  7 N      7.5001     7.0000    -0.5001     2.8633     2.8633     0.0000
  8 S     15.4382    16.0000     0.5618     2.6842     2.6842    -0.0000
  9 H      0.8462     1.0000     0.1538     0.9353     0.9353    -0.0000
 10 H      0.8582     1.0000     0.1418     0.9363     0.9363    -0.0000
 11 H      0.8581     1.0000     0.1419     0.9363     0.9363    -0.0000
 12 H      0.8460     1.0000     0.1540     0.9352     0.9352    -0.0000

  Mayer bond orders larger than 0.1
B(  0-C ,  1-C ) :   1.2546 B(  0-C ,  2-C ) :   1.6086 B(  0-C , 10-H ) :   0.9285 
B(  1-C ,  3-C ) :   1.6091 B(  1-C , 11-H ) :   0.9284 B(  2-C ,  3-C ) :   0.1050 
B(  2-C ,  5-C ) :   1.2368 B(  2-C ,  9-H ) :   0.9198 B(  3-C ,  4-C ) :   1.2370 
B(  3-C , 12-H ) :   0.9197 B(  4-C ,  5-C ) :   1.1716 B(  4-C ,  7-N ) :   1.4062 
B(  5-C ,  6-N ) :   1.4059 B(  6-N ,  7-N ) :   0.1711 B(  6-N ,  8-S ) :   1.2099 
B(  7-N ,  8-S ) :   1.2098 

-------
TIMINGS
-------

Total SCF time: 0 days 0 hours 0 min 25 sec 

Total time                  ....      25.157 sec
Sum of individual times     ....      24.879 sec  ( 98.9%)

Fock matrix formation       ....      23.165 sec  ( 92.1%)
  XC integration            ....       2.796 sec  ( 12.1% of F)
    Basis function eval.    ....       1.071 sec  ( 38.3% of XC)
    Density eval.           ....       0.703 sec  ( 25.1% of XC)
    XC-Functional eval.     ....       0.193 sec  (  6.9% of XC)
    XC-Potential eval.      ....       0.677 sec  ( 24.2% of XC)
Diagonalization             ....       0.003 sec  (  0.0%)
Density matrix formation    ....       0.003 sec  (  0.0%)
Population analysis         ....       0.041 sec  (  0.2%)
Initial guess               ....       0.003 sec  (  0.0%)
Orbital Transformation      ....       0.000 sec  (  0.0%)
Orbital Orthonormalization  ....       0.001 sec  (  0.0%)
DIIS solution               ....       0.001 sec  (  0.0%)
SOSCF solution              ....       0.013 sec  (  0.1%)
Grid generation             ....       1.651 sec  (  6.6%)

-------------------------   --------------------
FINAL SINGLE POINT ENERGY      -738.445186462091
-------------------------   --------------------

                                *** OPTIMIZATION RUN DONE ***

                            ***************************************
                            *     ORCA property calculations      *
                            ***************************************

                                    ---------------------
                                    Active property flags
                                    ---------------------
   (+) Dipole Moment


------------------------------------------------------------------------------
                       ORCA ELECTRIC PROPERTIES CALCULATION
------------------------------------------------------------------------------

Dipole Moment Calculation                       ... on
Quadrupole Moment Calculation                   ... off
Polarizability Calculation                      ... off
GBWName                                         ... /Users/lailaal-madhagi/Desktop/Testing_XAS_Analysis_code/2-1-3_Benzotrithiadizole//Results_dir_Benzotrithiadizole_geom_element_N_2019-11-14_07-17-39//GTE1_Benzotrithiadizole_geom_2019-11-14_07-17-55//opt.gbw
Electron density file                           ... /Users/lailaal-madhagi/Desktop/Testing_XAS_Analysis_code/2-1-3_Benzotrithiadizole//Results_dir_Benzotrithiadizole_geom_element_N_2019-11-14_07-17-39//GTE1_Benzotrithiadizole_geom_2019-11-14_07-17-55//opt.scfp.tmp
The origin for moment calculation is the CENTER OF MASS  = (-2.243042,  0.468801 -0.006729)

-------------
DIPOLE MOMENT
-------------
                                X             Y             Z
Electronic contribution:      8.09986       0.98034      -0.01218
Nuclear contribution   :     -8.88135      -1.07487       0.01335
                        -----------------------------------------
Total Dipole Moment    :     -0.78149      -0.09453       0.00117
                        -----------------------------------------
Magnitude (a.u.)       :      0.78719
Magnitude (Debye)      :      2.00088



--------------------
Rotational spectrum 
--------------------
 
Rotational constants in cm-1:     0.124414     0.041261     0.030985 
Rotational constants in MHz :  3729.823300  1236.977276   928.909183 

 Dipole components along the rotational axes: 
x,y,z [a.u.] :    -0.787191    -0.000043    -0.000005 
x,y,z [Debye]:    -2.000881    -0.000108    -0.000013 

 

Timings for individual modules:

Sum of individual times         ...      445.242 sec (=   7.421 min)
GTO integral calculation        ...        3.327 sec (=   0.055 min)   0.7 %
SCF iterations                  ...      312.218 sec (=   5.204 min)  70.1 %
SCF Gradient evaluation         ...      127.505 sec (=   2.125 min)  28.6 %
Geometry relaxation             ...        2.192 sec (=   0.037 min)   0.5 %
                             ****ORCA TERMINATED NORMALLY****
TOTAL RUN TIME: 0 days 0 hours 7 minutes 26 seconds 212 msec
