
                                 *****************
                                 * O   R   C   A *
                                 *****************

           --- An Ab Initio, DFT and Semiempirical electronic structure package ---

                  #######################################################
                  #                        -***-                        #
                  #          Department of theory and spectroscopy      #
                  #               Directorship: Frank Neese             #
                  #        Max Planck Institute fuer Kohlenforschung    #
                  #                Kaiser Wilhelm Platz 1               #
                  #                 D-45470 Muelheim/Ruhr               #
                  #                      Germany                        #
                  #                                                     #
                  #                  All rights reserved                #
                  #                        -***-                        #
                  #######################################################


                         Program Version 4.1.0  - RELEASE  -


 With contributions from (in alphabetic order):
   Daniel Aravena         : Magnetic Properties
   Michael Atanasov       : Ab Initio Ligand Field Theory
   Alexander A. Auer      : GIAO ZORA
   Ute Becker             : Parallelization
   Giovanni Bistoni       : ED, Open-shell LED
   Martin Brehm           : Molecular dynamics
   Dmytro Bykov           : SCF Hessian
   Vijay G. Chilkuri      : MRCI spin determinant printing
   Dipayan Datta          : RHF DLPNO-CCSD density
   Achintya Kumar Dutta   : EOM-CC, STEOM-CC
   Dmitry Ganyushin       : Spin-Orbit,Spin-Spin,Magnetic field MRCI
   Miquel Garcia          : C-PCM Hessian
   Yang Guo               : DLPNO-NEVPT2, CIM, IAO-localization
   Andreas Hansen         : Spin unrestricted coupled pair/coupled cluster methods
   Benjamin Helmich-Paris : CASSCF linear response (MC-RPA)
   Lee Huntington         : MR-EOM, pCC
   Robert Izsak           : Overlap fitted RIJCOSX, COSX-SCS-MP3, EOM
   Christian Kollmar      : KDIIS, OOCD, Brueckner-CCSD(T), CCSD density
   Simone Kossmann        : Meta GGA functionals, TD-DFT gradient, OOMP2, MP2 Hessian
   Martin Krupicka        : AUTO-CI
   Lucas Lang             : DCDCAS
   Dagmar Lenk            : GEPOL surface, SMD
   Dimitrios Liakos       : Extrapolation schemes; parallel MDCI
   Dimitrios Manganas     : ROCIS; embedding schemes
   Dimitrios Pantazis     : SARC Basis sets
   Taras Petrenko         : DFT Hessian,TD-DFT gradient, ASA, ECA, R-Raman, ABS, FL, XAS/XES, NRVS
   Peter Pinski           : DLPNO-MP2, DLPNO-MP2 Gradient
   Christoph Reimann      : Effective Core Potentials
   Marius Retegan         : Local ZFS, SOC
   Christoph Riplinger    : Optimizer, TS searches, QM/MM, DLPNO-CCSD(T), (RO)-DLPNO pert. Triples
   Tobias Risthaus        : Range-separated hybrids, TD-DFT gradient, RPA, STAB
   Michael Roemelt        : Restricted open shell CIS
   Masaaki Saitow         : Open-shell DLPNO
   Barbara Sandhoefer     : DKH picture change effects
   Avijit Sen             : IP-ROCIS
   Kantharuban Sivalingam : CASSCF convergence, NEVPT2, FIC-MRCI
   Bernardo de Souza      : ESD, SOC TD-DFT
   Georgi Stoychev        : AutoAux, RI-MP2 NMR
   Willem Van den Heuvel  : Paramagnetic NMR
   Boris Wezisla          : Elementary symmetry handling
   Frank Wennmohs         : Technical directorship


 We gratefully acknowledge several colleagues who have allowed us to
 interface, adapt or use parts of their codes:
   Stefan Grimme, W. Hujo, H. Kruse,             : VdW corrections, initial TS optimization,
                  C. Bannwarth                     DFT functionals, gCP, sTDA/sTD-DF
   Ed Valeev                                     : LibInt (2-el integral package), F12 methods
   Garnet Chan, S. Sharma, J. Yang, R. Olivares  : DMRG
   Ulf Ekstrom                                   : XCFun DFT Library
   Mihaly Kallay                                 : mrcc  (arbitrary order and MRCC methods)
   Andreas Klamt, Michael Diedenhofen            : otool_cosmo (COSMO solvation model)
   Jiri Pittner, Ondrej Demel                    : Mk-CCSD
   Frank Weinhold                                : gennbo (NPA and NBO analysis)
   Christopher J. Cramer and Donald G. Truhlar   : smd solvation model
   Lars Goerigk                                  : TD-DFT with DH, B97 family of functionals
   V. Asgeirsson, H. Jonsson                     : NEB implementation
   FAccTs GmbH                                   : IRC, NEB, NEB-TS, Multilevel


 Your calculation uses the libint2 library for the computation of 2-el integrals
 For citations please refer to: http://libint.valeyev.net

 This ORCA versions uses:
   CBLAS   interface :  Fast vector & matrix operations
   LAPACKE interface :  Fast linear algebra routines
   SCALAPACK package :  Parallel linear algebra routines




***************************************
The coordinates will be read from file: /Users/lailaal-madhagi/Desktop/Testing_XAS_Analysis_code/Pyrrole/Pyrrole_geom.xyz
***************************************


----- Orbital basis set information -----
Your calculation utilizes the basis: 6-31G*
   H-He, Li-Ne : W. J. Hehre, R. Ditchfield and J.A. Pople, J. Chem. Phys. 56, 2257 (1972).
                 Note: He and Ne are unpublished basis sets taken from the Gaussian program.
                 Note: Li and B from J. D. Dill and J. A. Pople, J. Chem. Phys. 62, 2921 (1975).
   Na - Ar     : M. M. Francl, W. J. Pietro, W. J. Hehre, J. S. Binkley, M. S. Gordon, 
                 D. J. DeFrees and J. A. Pople, J. Chem. Phys. 77, 3654 (1982).
   K - Zn      : V. A. Rassolov, J. A. Pople, M. A. Ratner, and T. L. Windus, J. Chem. Phys. 109, 1223 (1998).

================================================================================
                                        WARNINGS
                       Please study these warnings very carefully!
================================================================================


WARNING: Geometry Optimization
  ===> : Switching off AutoStart
         For restart on a previous wavefunction, please use MOREAD

INFO   : the flag for use of LIBINT has been found!

================================================================================
                                       INPUT FILE
================================================================================
NAME = /Users/lailaal-madhagi/Desktop/Testing_XAS_Analysis_code/Pyrrole//Results_dir_Pyrrole_geom_element_N_2019-11-28_02-54-11//GTE1_Pyrrole_geom_2019-11-28_02-54-20//opt.inp
|  1> ! B3LYP 6-31G* TIGHTSCF Grid3 FinalGrid5 Opt 
|  2> !NormalPrint 
|  3> %output 
|  4> Print[P_Basis] 2 
|  5> Print[P_MOS] 1 
|  6> end 
|  7> *xyzfile 0 1 /Users/lailaal-madhagi/Desktop/Testing_XAS_Analysis_code/Pyrrole/Pyrrole_geom.xyz                           ****END OF INPUT****
================================================================================

                       *****************************
                       * Geometry Optimization Run *
                       *****************************

Geometry optimization settings:
Update method            Update   .... BFGS
Choice of coordinates    CoordSys .... Z-matrix Internals
Initial Hessian          InHess   .... Almoef's Model

Convergence Tolerances:
Energy Change            TolE     ....  5.0000e-06 Eh
Max. Gradient            TolMAXG  ....  3.0000e-04 Eh/bohr
RMS Gradient             TolRMSG  ....  1.0000e-04 Eh/bohr
Max. Displacement        TolMAXD  ....  4.0000e-03 bohr
RMS Displacement         TolRMSD  ....  2.0000e-03 bohr

------------------------------------------------------------------------------
                        ORCA OPTIMIZATION COORDINATE SETUP
------------------------------------------------------------------------------

The optimization will be done in new redundant internal coordinates
Making redundant internal coordinates   ...  (new redundants) done
Evaluating the initial hessian          ...  (Almloef) done
Evaluating the coordinates              ...  done
Calculating the B-matrix                .... done
Calculating the G-matrix                .... done
Diagonalizing the G-matrix              .... done
The first mode is                       ....   21
The number of degrees of freedom        ....   24

    -----------------------------------------------------------------
                    Redundant Internal Coordinates


    -----------------------------------------------------------------
         Definition                    Initial Value    Approx d2E/dq
    -----------------------------------------------------------------
      1. B(C   1,C   0)                  1.3744         0.661561   
      2. B(C   2,C   0)                  1.3792         0.650200   
      3. B(N   3,C   2)                  1.3490         0.650649   
      4. B(C   4,N   3)                  1.3469         0.655713   
      5. B(C   4,C   1)                  1.3774         0.654431   
      6. B(H   5,C   2)                  1.0830         0.369490   
      7. B(H   6,C   0)                  1.0801         0.373486   
      8. B(H   7,C   1)                  1.0791         0.374792   
      9. B(H   8,C   4)                  1.0822         0.370609   
     10. B(H   9,N   3)                  1.0447         0.380882   
     11. A(C   1,C   0,H   6)          125.6528         0.359035   
     12. A(C   2,C   0,H   6)          127.6364         0.357978   
     13. A(C   1,C   0,C   2)          106.7108         0.442961   
     14. A(C   4,C   1,H   7)          127.2692         0.358586   
     15. A(C   0,C   1,C   4)          106.7548         0.443481   
     16. A(C   0,C   1,H   7)          125.9760         0.359248   
     17. A(C   0,C   2,H   5)          125.3437         0.357324   
     18. A(N   3,C   2,H   5)          124.9894         0.355158   
     19. A(C   0,C   2,N   3)          109.6669         0.438729   
     20. A(C   2,N   3,H   9)          126.7835         0.353870   
     21. A(C   4,N   3,H   9)          126.1437         0.354335   
     22. A(C   2,N   3,C   4)          107.0728         0.436515   
     23. A(N   3,C   4,H   8)          124.9095         0.355808   
     24. A(C   1,C   4,H   8)          125.2958         0.357902   
     25. A(C   1,C   4,N   3)          109.7947         0.439858   
     26. D(H   7,C   1,C   0,H   6)      0.0000         0.030551   
     27. D(C   4,C   1,C   0,C   2)      0.0000         0.030551   
     28. D(C   4,C   1,C   0,H   6)    180.0000         0.030551   
     29. D(H   7,C   1,C   0,C   2)    180.0000         0.030551   
     30. D(N   3,C   2,C   0,H   6)    180.0000         0.029437   
     31. D(H   5,C   2,C   0,C   1)    180.0000         0.029437   
     32. D(N   3,C   2,C   0,C   1)      0.0000         0.029437   
     33. D(H   5,C   2,C   0,H   6)      0.0000         0.029437   
     34. D(H   9,N   3,C   2,H   5)      0.0000         0.034555   
     35. D(H   9,N   3,C   2,C   0)    180.0000         0.034555   
     36. D(C   4,N   3,C   2,H   5)    180.0000         0.034555   
     37. D(C   4,N   3,C   2,C   0)      0.0000         0.034555   
     38. D(H   8,C   4,C   1,C   0)    180.0000         0.029849   
     39. D(N   3,C   4,C   1,H   7)    180.0000         0.029849   
     40. D(N   3,C   4,C   1,C   0)      0.0000         0.029849   
     41. D(H   8,C   4,N   3,H   9)      0.0000         0.035143   
     42. D(H   8,C   4,N   3,C   2)    180.0000         0.035143   
     43. D(C   1,C   4,N   3,H   9)    180.0000         0.035143   
     44. D(C   1,C   4,N   3,C   2)      0.0000         0.035143   
     45. D(H   8,C   4,C   1,H   7)      0.0000         0.029849   
    -----------------------------------------------------------------

Number of atoms                         .... 10
Number of degrees of freedom            .... 45

         *************************************************************
         *                GEOMETRY OPTIMIZATION CYCLE   1            *
         *************************************************************
---------------------------------
CARTESIAN COORDINATES (ANGSTROEM)
---------------------------------
  C     -2.552080    0.893980   -0.000000
  C     -1.184760    1.033660    0.000000
  C     -2.812350   -0.460390   -0.000000
  N     -1.650580   -1.145950   -0.000000
  C     -0.655710   -0.238070   -0.000000
  H     -3.798100   -0.908910   -0.000000
  H     -3.267550    1.703080    0.000000
  H     -0.642870    1.966850    0.000000
  H      0.399950   -0.476130   -0.000000
  H     -1.537050   -2.184490   -0.000000

----------------------------
CARTESIAN COORDINATES (A.U.)
----------------------------
  NO LB      ZA    FRAG     MASS         X           Y           Z
   0 C     6.0000    0    12.011   -4.822732    1.689377   -0.000000
   1 C     6.0000    0    12.011   -2.238872    1.953334    0.000000
   2 C     6.0000    0    12.011   -5.314571   -0.870011   -0.000000
   3 N     7.0000    0    14.007   -3.119144   -2.165532   -0.000000
   4 C     6.0000    0    12.011   -1.239112   -0.449887   -0.000000
   5 H     1.0000    0     1.008   -7.177369   -1.717591   -0.000000
   6 H     1.0000    0     1.008   -6.174775    3.218355    0.000000
   7 H     1.0000    0     1.008   -1.214848    3.716808    0.000000
   8 H     1.0000    0     1.008    0.755796   -0.899755   -0.000000
   9 H     1.0000    0     1.008   -2.904604   -4.128088   -0.000000

--------------------------------
INTERNAL COORDINATES (ANGSTROEM)
--------------------------------
 C      0   0   0     0.000000000000     0.00000000     0.00000000
 C      1   0   0     1.374436060645     0.00000000     0.00000000
 C      1   2   0     1.379151394808   106.71082418     0.00000000
 N      3   1   2     1.348963322889   109.66688905     0.00000000
 C      4   3   1     1.346852780114   107.07279067     0.00000000
 H      3   1   2     1.082992729846   125.34366397   180.00000000
 H      1   2   3     1.080064873468   125.65277283   180.00000085
 H      2   1   3     1.079114613097   125.97599441   180.00000000
 H      5   4   3     1.082169394873   124.90953217   180.00000085
 H      4   3   1     1.044726946384   126.78346358   180.00000000

---------------------------
INTERNAL COORDINATES (A.U.)
---------------------------
 C      0   0   0     0.000000000000     0.00000000     0.00000000
 C      1   0   0     2.597307743204     0.00000000     0.00000000
 C      1   2   0     2.606218433402   106.71082418     0.00000000
 N      3   1   2     2.549171244965   109.66688905     0.00000000
 C      4   3   1     2.545182897125   107.07279067     0.00000000
 H      3   1   2     2.046559664437   125.34366397   180.00000000
 H      1   2   3     2.041026817723   125.65277283   180.00000085
 H      2   1   3     2.039231085866   125.97599441   180.00000000
 H      5   4   3     2.045003786821   124.90953217   180.00000085
 H      4   3   1     1.974247813393   126.78346358   180.00000000

---------------------
BASIS SET INFORMATION
---------------------
There are 3 groups of distinct atoms

 Group   1 Type C   : 10s4p1d contracted to 3s2p1d pattern {631/31/1}
 Group   2 Type N   : 10s4p1d contracted to 3s2p1d pattern {631/31/1}
 Group   3 Type H   : 4s contracted to 2s pattern {31}

Atom   0C    basis set group =>   1
Atom   1C    basis set group =>   1
Atom   2C    basis set group =>   1
Atom   3N    basis set group =>   2
Atom   4C    basis set group =>   1
Atom   5H    basis set group =>   3
Atom   6H    basis set group =>   3
Atom   7H    basis set group =>   3
Atom   8H    basis set group =>   3
Atom   9H    basis set group =>   3

-------------------------
BASIS SET IN INPUT FORMAT
-------------------------

 # Basis set for element : H 
 NewGTO H 
 S 3 
   1      18.7311370000      0.0334945995
   2       2.8253937000      0.2347269467
   3       0.6401217000      0.8137573184
 S 1 
   1       0.1612778000      1.0000000000
  end;

 # Basis set for element : C 
 NewGTO C 
 S 6 
   1    3047.5249000000      0.0018347002
   2     457.3695100000      0.0140373012
   3     103.9486900000      0.0688426061
   4      29.2101550000      0.2321844206
   5       9.2866630000      0.4679413416
   6       3.1639270000      0.3623120322
 S 3 
   1       7.8682724000     -0.1193324086
   2       1.8812885000     -0.1608542116
   3       0.5442493000      1.1434564826
 P 3 
   1       7.8682724000      0.0689990956
   2       1.8812885000      0.3164239798
   3       0.5442493000      0.7443082524
 S 1 
   1       0.1687144000      1.0000000000
 P 1 
   1       0.1687144000      1.0000000000
 D 1 
   1       0.8000000000      1.0000000000
  end;

 # Basis set for element : N 
 NewGTO N 
 S 6 
   1    4173.5110000000      0.0018347994
   2     627.4579000000      0.0139949958
   3     142.9021000000      0.0685869792
   4      40.2343300000      0.2322409295
   5      12.8202100000      0.4690698576
   6       4.3904370000      0.3604548906
 S 3 
   1      11.6263580000     -0.1149610229
   2       2.7162800000     -0.1691180337
   3       0.7722180000      1.1458522281
 P 3 
   1      11.6263580000      0.0675800232
   2       2.7162800000      0.3239071114
   3       0.7722180000      0.7408952549
 S 1 
   1       0.2120313000      1.0000000000
 P 1 
   1       0.2120313000      1.0000000000
 D 1 
   1       0.8000000000      1.0000000000
  end;

------------------------------------------------------------------------------
                           ORCA GTO INTEGRAL CALCULATION
------------------------------------------------------------------------------

                         BASIS SET STATISTICS AND STARTUP INFO

 # of primitive gaussian shells          ...   95
 # of primitive gaussian functions       ...  155
 # of contracted shells                  ...   40
 # of contracted basis functions         ...   80
 Highest angular momentum                ...    2
 Maximum contraction depth               ...    6
 Integral package used                   ... LIBINT
 Integral threshhold            Thresh   ...  2.500e-11
 Primitive cut-off              TCut     ...  2.500e-12


------------------------------ INTEGRAL EVALUATION ----------------------------


 * One electron integrals 
 Pre-screening matrix                    ... done
 Shell pair data                         ... done (   0.002 sec)

-------------------------------------------------------------------------------
                                 ORCA SCF
-------------------------------------------------------------------------------

------------
SCF SETTINGS
------------
Hamiltonian:
 Density Functional     Method          .... DFT(GTOs)
 Exchange Functional    Exchange        .... B88
   X-Alpha parameter    XAlpha          ....  0.666667
   Becke's b parameter  XBeta           ....  0.004200
 Correlation Functional Correlation     .... LYP
 LDA part of GGA corr.  LDAOpt          .... VWN-5
 Gradients option       PostSCFGGA      .... off
 Hybrid DFT is turned on
   Fraction HF Exchange ScalHFX         ....  0.200000
   Scaling of DF-GGA-X  ScalDFX         ....  0.720000
   Scaling of DF-GGA-C  ScalDFC         ....  0.810000
   Scaling of DF-LDA-C  ScalLDAC        ....  1.000000
   Perturbative correction              ....  0.000000
   Density functional embedding theory  .... OFF
   NL short-range parameter             ....  4.800000


General Settings:
 Integral files         IntName         .... /Users/lailaal-madhagi/Desktop/Testing_XAS_Analysis_code/Pyrrole//Results_dir_Pyrrole_geom_element_N_2019-11-28_02-54-11//GTE1_Pyrrole_geom_2019-11-28_02-54-20//opt
 Hartree-Fock type      HFTyp           .... RHF
 Total Charge           Charge          ....    0
 Multiplicity           Mult            ....    1
 Number of Electrons    NEL             ....   36
 Basis Dimension        Dim             ....   80
 Nuclear Repulsion      ENuc            ....    162.5534356137 Eh

Convergence Acceleration:
 DIIS                   CNVDIIS         .... on
   Start iteration      DIISMaxIt       ....    12
   Startup error        DIISStart       ....  0.200000
   # of expansion vecs  DIISMaxEq       ....     5
   Bias factor          DIISBfac        ....   1.050
   Max. coefficient     DIISMaxC        ....  10.000
 Newton-Raphson         CNVNR           .... off
 SOSCF                  CNVSOSCF        .... on
   Start iteration      SOSCFMaxIt      ....   150
   Startup grad/error   SOSCFStart      ....  0.003300
 Level Shifting         CNVShift        .... on
   Level shift para.    LevelShift      ....    0.2500
   Turn off err/grad.   ShiftErr        ....    0.0010
 Zerner damping         CNVZerner       .... off
 Static damping         CNVDamp         .... on
   Fraction old density DampFac         ....    0.7000
   Max. Damping (<1)    DampMax         ....    0.9800
   Min. Damping (>=0)   DampMin         ....    0.0000
   Turn off err/grad.   DampErr         ....    0.1000
 Fernandez-Rico         CNVRico         .... off

SCF Procedure:
 Maximum # iterations   MaxIter         ....   125
 SCF integral mode      SCFMode         .... Direct
   Integral package                     .... LIBINT
 Reset frequency        DirectResetFreq ....    20
 Integral Threshold     Thresh          ....  2.500e-11 Eh
 Primitive CutOff       TCut            ....  2.500e-12 Eh

Convergence Tolerance:
 Convergence Check Mode ConvCheckMode   .... Total+1el-Energy
 Convergence forced     ConvForced      .... 0
 Energy Change          TolE            ....  1.000e-08 Eh
 1-El. energy change                    ....  1.000e-05 Eh
 Orbital Gradient       TolG            ....  1.000e-05
 Orbital Rotation angle TolX            ....  1.000e-05
 DIIS Error             TolErr          ....  5.000e-07


Diagonalization of the overlap matrix:
Smallest eigenvalue                        ... 1.304e-03
Time for diagonalization                   ...    0.003 sec
Threshold for overlap eigenvalues          ... 1.000e-08
Number of eigenvalues below threshold      ... 0
Time for construction of square roots      ...    0.001 sec
Total time needed                          ...    0.003 sec

-------------------
DFT GRID GENERATION
-------------------

General Integration Accuracy     IntAcc      ...  4.340
Radial Grid Type                 RadialGrid  ... Gauss-Chebyshev
Angular Grid (max. acc.)         AngularGrid ... Lebedev-194
Angular grid pruning method      GridPruning ... 3 (G Style)
Weight generation scheme         WeightScheme... Becke
Basis function cutoff            BFCut       ...    1.0000e-11
Integration weight cutoff        WCut        ...    1.0000e-14
Grids for H and He will be reduced by one unit

# of grid points (after initial pruning)     ...  24080 (   0.0 sec)
# of grid points (after weights+screening)   ...  22680 (   0.0 sec)
nearest neighbour list constructed           ...    0.0 sec
Grid point re-assignment to atoms done       ...    0.0 sec
Grid point division into batches done        ...    0.0 sec
Reduced shell lists constructed in    0.1 sec

Total number of grid points                  ...    22680
Total number of batches                      ...      359
Average number of points per batch           ...       63
Average number of grid points per atom       ...     2268
Average number of shells per batch           ...    32.08 (80.20%)
Average number of basis functions per batch  ...    66.78 (83.48%)
Average number of large shells per batch     ...    27.23 (84.86%)
Average number of large basis fcns per batch ...    57.06 (85.44%)
Maximum spatial batch extension              ...  17.60, 19.99, 22.18 au
Average spatial batch extension              ...   3.23,  3.34,  4.02 au

Time for grid setup =    0.182 sec

------------------------------
INITIAL GUESS: MODEL POTENTIAL
------------------------------
Loading Hartree-Fock densities                     ... done
Calculating cut-offs                               ... done
Setting up the integral package                    ... done
Initializing the effective Hamiltonian             ... done
Starting the Coulomb interaction                   ... done (   0.0 sec)
Reading the grid                                   ... done
Mapping shells                                     ... done
Starting the XC term evaluation                    ... done (   0.1 sec)
  promolecular density results
     # of electrons  =     35.997695985
     EX              =    -28.667812713
     EC              =     -1.197918747
     EX+EC           =    -29.865731460
Transforming the Hamiltonian                       ... done (   0.0 sec)
Diagonalizing the Hamiltonian                      ... done (   0.0 sec)
Back transforming the eigenvectors                 ... done (   0.0 sec)
Now organizing SCF variables                       ... done
                      ------------------
                      INITIAL GUESS DONE (   0.4 sec)
                      ------------------
--------------
SCF ITERATIONS
--------------
               ***  Starting incremental Fock matrix formation  ***

                         ----------------------------
                         !        ITERATION     0   !
                         ----------------------------
   Total Energy        :    -209.856043994128 Eh
   Energy Change       :    -209.856043994128 Eh
   MAX-DP              :       0.059359613277
   RMS-DP              :       0.003734109703
   Actual Damping      :       0.7000
   Actual Level Shift  :       0.2500 Eh
   Int. Num. El.       :    35.99998303 (UP=   17.99999151 DN=   17.99999151)
   Exchange            :   -23.55424793
   Correlation         :    -1.43777051


                         ----------------------------
                         !        ITERATION     1   !
                         ----------------------------
   Total Energy        :    -209.932254806008 Eh
   Energy Change       :      -0.076210811880 Eh
   MAX-DP              :       0.042458605324
   RMS-DP              :       0.002778464388
   Actual Damping      :       0.7000
   Actual Level Shift  :       0.2500 Eh
   Int. Num. El.       :    35.99998509 (UP=   17.99999254 DN=   17.99999254)
   Exchange            :   -23.37835684
   Correlation         :    -1.42958744

                               ***Turning on DIIS***

                         ----------------------------
                         !        ITERATION     2   !
                         ----------------------------
   Total Energy        :    -209.963733938995 Eh
   Energy Change       :      -0.031479132988 Eh
   MAX-DP              :       0.070103284343
   RMS-DP              :       0.004414146796
   Actual Damping      :       0.0000
   Actual Level Shift  :       0.2500 Eh
   Int. Num. El.       :    35.99998384 (UP=   17.99999192 DN=   17.99999192)
   Exchange            :   -23.25975451
   Correlation         :    -1.42386146
   DIIS-Error          :       0.039309920107


                         ----------------------------
                         !        ITERATION     3   !
                         ----------------------------
   Total Energy        :    -210.007951324303 Eh
   Energy Change       :      -0.044217385307 Eh
   MAX-DP              :       0.030475954629
   RMS-DP              :       0.002019074741
   Actual Damping      :       0.0000
   Actual Level Shift  :       0.2500 Eh
   Int. Num. El.       :    35.99997547 (UP=   17.99998773 DN=   17.99998773)
   Exchange            :   -23.08059511
   Correlation         :    -1.41501683
   DIIS-Error          :       0.048845176975
   DIIS coefficients:
      0.61311   0.38689


                         ----------------------------
                         !        ITERATION     4   !
                         ----------------------------
   Total Energy        :    -210.020495118276 Eh
   Energy Change       :      -0.012543793973 Eh
   MAX-DP              :       0.011371402909
   RMS-DP              :       0.000688757443
   Actual Damping      :       0.0000
   Actual Level Shift  :       0.2500 Eh
   Int. Num. El.       :    35.99997328 (UP=   17.99998664 DN=   17.99998664)
   Exchange            :   -23.14965872
   Correlation         :    -1.41868418
   DIIS-Error          :       0.013142314026
   DIIS coefficients:
      0.18147  -0.06326   0.88179

                      *** Initiating the SOSCF procedure ***
                           *** Shutting down DIIS ***
                      *** Re-Reading the Fockian *** 
                      *** Removing any level shift *** 

                         ----------------------------
                         !        ITERATION     5   !
                         ----------------------------
   Total Energy        :    -210.021263401172 Eh
   Energy Change       :      -0.000768282896 Eh
   MAX-DP              :       0.003704499405
   RMS-DP              :       0.000218185970
   Orbital gradient    :       0.001213085755
   Orbital Rotation    :       0.001213085755
   Actual Damping      :       0.0000
   Int. Num. El.       :    35.99997472 (UP=   17.99998736 DN=   17.99998736)
   Exchange            :   -23.17083725
   Correlation         :    -1.41975317

               *** Restarting incremental Fock matrix formation ***

                         ----------------------------
                         !        ITERATION     6   !
                         ----------------------------
   Total Energy        :    -210.021301395402 Eh
   Energy Change       :      -0.000037994230 Eh
   MAX-DP              :       0.001692906054
   RMS-DP              :       0.000101029297
   Orbital gradient    :       0.000383432309
   Orbital Rotation    :       0.000667464461
   Actual Damping      :       0.0000
   Int. Num. El.       :    35.99997465 (UP=   17.99998733 DN=   17.99998733)
   Exchange            :   -23.17432565
   Correlation         :    -1.41992973


                         ----------------------------
                         !        ITERATION     7   !
                         ----------------------------
   Total Energy        :    -210.021299627215 Eh
   Energy Change       :       0.000001768186 Eh
   MAX-DP              :       0.000869663946
   RMS-DP              :       0.000045253688
   Orbital gradient    :       0.000701141476
   Orbital Rotation    :       0.000966397060
   Actual Damping      :       0.0000
   Int. Num. El.       :    35.99997522 (UP=   17.99998761 DN=   17.99998761)
   Exchange            :   -23.17621415
   Correlation         :    -1.42002603


                         ----------------------------
                         !        ITERATION     8   !
                         ----------------------------
   Total Energy        :    -210.021304992123 Eh
   Energy Change       :      -0.000005364908 Eh
   MAX-DP              :       0.000354157512
   RMS-DP              :       0.000026301346
   Orbital gradient    :       0.000124349298
   Orbital Rotation    :       0.000296732688
   Actual Damping      :       0.0000
   Int. Num. El.       :    35.99997507 (UP=   17.99998754 DN=   17.99998754)
   Exchange            :   -23.17540600
   Correlation         :    -1.41998905


                         ----------------------------
                         !        ITERATION     9   !
                         ----------------------------
   Total Energy        :    -210.021304932828 Eh
   Energy Change       :       0.000000059295 Eh
   MAX-DP              :       0.000148193283
   RMS-DP              :       0.000010992244
   Orbital gradient    :       0.000131406819
   Orbital Rotation    :       0.000112976042
   Actual Damping      :       0.0000
   Int. Num. El.       :    35.99997501 (UP=   17.99998751 DN=   17.99998751)
   Exchange            :   -23.17494787
   Correlation         :    -1.41996126


                         ----------------------------
                         !        ITERATION    10   !
                         ----------------------------
   Total Energy        :    -210.021305189250 Eh
   Energy Change       :      -0.000000256422 Eh
   MAX-DP              :       0.000035515196
   RMS-DP              :       0.000002090163
   Orbital gradient    :       0.000010045806
   Orbital Rotation    :       0.000029601995
   Actual Damping      :       0.0000
   Int. Num. El.       :    35.99997507 (UP=   17.99998753 DN=   17.99998753)
   Exchange            :   -23.17519086
   Correlation         :    -1.41997661


                         ----------------------------
                         !        ITERATION    11   !
                         ----------------------------
   Total Energy        :    -210.021305188969 Eh
   Energy Change       :       0.000000000282 Eh
   MAX-DP              :       0.000020182487
   RMS-DP              :       0.000000875574
   Orbital gradient    :       0.000010942298
   Orbital Rotation    :       0.000011510100
   Actual Damping      :       0.0000
   Int. Num. El.       :    35.99997505 (UP=   17.99998753 DN=   17.99998753)
   Exchange            :   -23.17523668
   Correlation         :    -1.41997846

                  ***Gradient check signals convergence***
              ***Rediagonalizing the Fockian in SOSCF/NRSCF***

               *****************************************************
               *                     SUCCESS                       *
               *           SCF CONVERGED AFTER  12 CYCLES          *
               *****************************************************

Setting up the final grid:

General Integration Accuracy     IntAcc      ...  5.010
Radial Grid Type                 RadialGrid  ... Gauss-Chebyshev
Angular Grid (max. acc.)         AngularGrid ... Lebedev-434
Angular grid pruning method      GridPruning ... 3 (G Style)
Weight generation scheme         WeightScheme... Becke
Basis function cutoff            BFCut       ...    1.0000e-11
Integration weight cutoff        WCut        ...    1.0000e-14
Grids for H and He will be reduced by one unit

# of grid points (after initial pruning)     ...  86842 (   0.0 sec)
# of grid points (after weights+screening)   ...  81224 (   0.1 sec)
nearest neighbour list constructed           ...    0.0 sec
Grid point re-assignment to atoms done       ...    0.0 sec
Grid point division into batches done        ...    0.4 sec
Reduced shell lists constructed in    0.7 sec

Total number of grid points                  ...    81224
Total number of batches                      ...     1275
Average number of points per batch           ...       63
Average number of grid points per atom       ...     8122
Average number of shells per batch           ...    29.79 (74.47%)
Average number of basis functions per batch  ...    61.81 (77.26%)
Average number of large shells per batch     ...    24.90 (83.60%)
Average number of large basis fcns per batch ...    52.08 (84.25%)
Maximum spatial batch extension              ...  17.49, 18.30, 17.89 au
Average spatial batch extension              ...   2.22,  2.23,  2.44 au

Final grid set up in    0.8 sec
Final integration                            ... done (   0.5 sec)
Change in XC energy                          ...    -0.000040506
Integrated number of electrons               ...    35.999993002
Previous integrated no of electrons          ...    35.999975060

----------------
TOTAL SCF ENERGY
----------------

Total Energy       :         -210.02134570 Eh           -5714.97136 eV

Components:
Nuclear Repulsion  :          162.55343561 Eh            4423.30386 eV
Electronic Energy  :         -372.57478131 Eh          -10138.27522 eV
One Electron Energy:         -604.47703618 Eh          -16448.65639 eV
Two Electron Energy:          231.90225487 Eh            6310.38117 eV

Virial components:
Potential Energy   :         -419.01055471 Eh          -11401.85685 eV
Kinetic Energy     :          208.98920902 Eh            5686.88549 eV
Virial Ratio       :            2.00493871


DFT components:
N(Alpha)           :       17.999996501227 electrons
N(Beta)            :       17.999996501227 electrons
N(Total)           :       35.999993002454 electrons
E(X)               :      -23.175260691015 Eh       
E(C)               :       -1.419965615542 Eh       
E(XC)              :      -24.595226306557 Eh       
DFET-embed. en.    :        0.000000000000 Eh       

---------------
SCF CONVERGENCE
---------------

  Last Energy change         ...   -1.6477e-09  Tolerance :   1.0000e-08
  Last MAX-Density change    ...    3.6932e-06  Tolerance :   1.0000e-07
  Last RMS-Density change    ...    3.0726e-07  Tolerance :   5.0000e-09
  Last Orbital Gradient      ...    1.3005e-06  Tolerance :   1.0000e-05
  Last Orbital Rotation      ...    2.2962e-06  Tolerance :   1.0000e-05

             **** THE GBW FILE WAS UPDATED (/Users/lailaal-madhagi/Desktop/Testing_XAS_Analysis_code/Pyrrole//Results_dir_Pyrrole_geom_element_N_2019-11-28_02-54-11//GTE1_Pyrrole_geom_2019-11-28_02-54-20//opt.gbw) ****
             **** DENSITY FILE WAS UPDATED (/Users/lailaal-madhagi/Desktop/Testing_XAS_Analysis_code/Pyrrole//Results_dir_Pyrrole_geom_element_N_2019-11-28_02-54-11//GTE1_Pyrrole_geom_2019-11-28_02-54-20//opt.scfp.tmp) ****
             **** ENERGY FILE WAS UPDATED (/Users/lailaal-madhagi/Desktop/Testing_XAS_Analysis_code/Pyrrole//Results_dir_Pyrrole_geom_element_N_2019-11-28_02-54-11//GTE1_Pyrrole_geom_2019-11-28_02-54-20//opt.en.tmp) ****
----------------
ORBITAL ENERGIES
----------------

  NO   OCC          E(Eh)            E(eV) 
   0   2.0000     -14.371734      -391.0748 
   1   2.0000     -10.181234      -277.0455 
   2   2.0000     -10.180715      -277.0313 
   3   2.0000     -10.141926      -275.9758 
   4   2.0000     -10.141182      -275.9556 
   5   2.0000      -0.974462       -26.5165 
   6   2.0000      -0.764965       -20.8158 
   7   2.0000      -0.702375       -19.1126 
   8   2.0000      -0.583838       -15.8870 
   9   2.0000      -0.549811       -14.9611 
  10   2.0000      -0.532022       -14.4771 
  11   2.0000      -0.427306       -11.6276 
  12   2.0000      -0.411710       -11.2032 
  13   2.0000      -0.399845       -10.8803 
  14   2.0000      -0.367359        -9.9963 
  15   2.0000      -0.355040        -9.6611 
  16   2.0000      -0.235846        -6.4177 
  17   2.0000      -0.191321        -5.2061 
  18   0.0000       0.059487         1.6187 
  19   0.0000       0.070396         1.9156 
  20   0.0000       0.109675         2.9844 
  21   0.0000       0.141447         3.8490 
  22   0.0000       0.174542         4.7495 
  23   0.0000       0.175183         4.7670 
  24   0.0000       0.193922         5.2769 
  25   0.0000       0.256545         6.9809 
  26   0.0000       0.262383         7.1398 
  27   0.0000       0.350330         9.5330 
  28   0.0000       0.368699        10.0328 
  29   0.0000       0.468771        12.7559 
  30   0.0000       0.555937        15.1278 
  31   0.0000       0.561383        15.2760 
  32   0.0000       0.582614        15.8537 
  33   0.0000       0.609880        16.5957 
  34   0.0000       0.624941        17.0055 
  35   0.0000       0.634026        17.2527 
  36   0.0000       0.648059        17.6346 
  37   0.0000       0.660238        17.9660 
  38   0.0000       0.676819        18.4172 
  39   0.0000       0.705397        19.1948 
  40   0.0000       0.778023        21.1711 
  41   0.0000       0.820165        22.3178 
  42   0.0000       0.822041        22.3689 
  43   0.0000       0.854862        23.2620 
  44   0.0000       0.875631        23.8271 
  45   0.0000       0.934150        25.4195 
  46   0.0000       0.938138        25.5280 
  47   0.0000       0.955322        25.9956 
  48   0.0000       1.013568        27.5806 
  49   0.0000       1.179848        32.1053 
  50   0.0000       1.181464        32.1493 
  51   0.0000       1.257614        34.2214 
  52   0.0000       1.315009        35.7832 
  53   0.0000       1.344346        36.5815 
  54   0.0000       1.379568        37.5400 
  55   0.0000       1.407646        38.3040 
  56   0.0000       1.496098        40.7109 
  57   0.0000       1.546760        42.0895 
  58   0.0000       1.557458        42.3806 
  59   0.0000       1.585126        43.1335 
  60   0.0000       1.766239        48.0618 
  61   0.0000       1.926271        52.4165 
  62   0.0000       2.026396        55.1410 
  63   0.0000       2.068437        56.2850 
  64   0.0000       2.091632        56.9162 
  65   0.0000       2.103063        57.2273 
  66   0.0000       2.240190        60.9587 
  67   0.0000       2.257414        61.4274 
  68   0.0000       2.304076        62.6971 
  69   0.0000       2.305032        62.7231 
  70   0.0000       2.368803        64.4584 
  71   0.0000       2.370506        64.5048 
  72   0.0000       2.601285        70.7846 
  73   0.0000       2.622221        71.3543 
  74   0.0000       2.646354        72.0109 
  75   0.0000       2.704986        73.6064 
  76   0.0000       2.732300        74.3497 
  77   0.0000       2.988984        81.3344 
  78   0.0000       3.056831        83.1806 
  79   0.0000       3.063571        83.3640 
------------------
MOLECULAR ORBITALS
------------------
                      0         1         2         3         4         5   
                 -14.37173 -10.18123 -10.18072 -10.14193 -10.14118  -0.97446
                   2.00000   2.00000   2.00000   2.00000   2.00000   2.00000
                  --------  --------  --------  --------  --------  --------
  0C   1s         0.000021 -0.006589 -0.000130 -0.917402 -0.385425  0.044052
  0C   2s         0.000080  0.001381 -0.000017 -0.033172 -0.016008 -0.079073
  0C   1pz        0.000000 -0.000000 -0.000000  0.000000  0.000000  0.000000
  0C   1px        0.000331 -0.000490 -0.000061 -0.000285 -0.001564 -0.027299
  0C   1py        0.000393 -0.001458 -0.000177  0.000808  0.000289  0.045794
  0C   3s        -0.003449 -0.007923  0.005939  0.025583  0.022483 -0.050960
  0C   2pz        0.000000  0.000000 -0.000000  0.000000  0.000000  0.000000
  0C   2px       -0.001911  0.001304  0.001218  0.002996  0.006235 -0.011019
  0C   2py        0.002733  0.002895 -0.003596 -0.004806 -0.002989  0.014794
  0C   1dz2      -0.000050 -0.000669  0.000033  0.000406  0.000930  0.005935
  0C   1dxz       0.000000 -0.000000 -0.000000  0.000000  0.000000  0.000000
  0C   1dyz      -0.000000 -0.000000  0.000000  0.000000 -0.000000 -0.000000
  0C   1dx2y2     0.000173 -0.000992 -0.000083  0.000417 -0.000994  0.002457
  0C   1dxy      -0.000077  0.000334  0.000139  0.000051 -0.000189  0.003135
  1C   1s         0.000021 -0.000045 -0.006687 -0.385312  0.917447  0.044198
  1C   2s         0.000078 -0.000029  0.001390 -0.012488  0.034670 -0.079269
  1C   1pz        0.000000 -0.000000 -0.000000  0.000000  0.000000  0.000000
  1C   1px       -0.000404  0.000085  0.000780 -0.000951 -0.001127  0.017325
  1C   1py        0.000321 -0.000147 -0.001340  0.000188 -0.001030  0.050596
  1C   3s        -0.003450  0.006035 -0.007910  0.002519 -0.033980 -0.051742
  1C   2pz       -0.000000  0.000000  0.000000 -0.000000 -0.000000  0.000000
  1C   2px        0.001329 -0.000446 -0.001885  0.002471  0.005293  0.007974
  1C   2py        0.003021 -0.003766  0.002568 -0.000831  0.006712  0.016939
  1C   1dz2      -0.000052  0.000043 -0.000669 -0.000358 -0.000953  0.005955
  1C   1dxz       0.000000 -0.000000 -0.000000  0.000000 -0.000000 -0.000000
  1C   1dyz       0.000000 -0.000000  0.000000  0.000000  0.000000 -0.000000
  1C   1dx2y2     0.000129 -0.000011 -0.000777  0.000978  0.000423  0.003520
  1C   1dxy       0.000138 -0.000151 -0.000705  0.000238  0.000074 -0.001891
  2C   1s         0.000080 -0.994968 -0.005926  0.006220  0.002483  0.088144
  2C   2s        -0.000721 -0.035944  0.000561  0.002063  0.000613 -0.168093
  2C   1pz        0.000000 -0.000000 -0.000000  0.000000  0.000000  0.000000
  2C   1px       -0.000202 -0.001965 -0.000071  0.000156  0.000164 -0.107871
  2C   1py        0.000082  0.000401  0.000224  0.001422  0.000269  0.025454
  2C   3s         0.012606  0.018719 -0.008372 -0.011800 -0.005531 -0.037089
  2C   2pz       -0.000000  0.000000  0.000000  0.000000 -0.000000  0.000000
  2C   2px        0.008314 -0.001868 -0.006939 -0.003944 -0.000856  0.027651
  2C   2py        0.000746  0.002954 -0.004289 -0.004013 -0.001489  0.004627
  2C   1dz2       0.000246  0.001054  0.000360 -0.000529 -0.000359  0.011878
  2C   1dxz      -0.000000  0.000000 -0.000000  0.000000  0.000000  0.000000
  2C   1dyz      -0.000000  0.000000  0.000000 -0.000000 -0.000000  0.000000
  2C   1dx2y2    -0.000336 -0.000256 -0.000152 -0.001054 -0.000277 -0.008286
  2C   1dxy       0.000855  0.000390 -0.000079  0.000420  0.000252  0.006189
  3N   1s         0.995300 -0.000139 -0.000139 -0.000034  0.000014  0.174617
  3N   2s         0.033558 -0.000568 -0.000569 -0.000316  0.000130 -0.361274
  3N   1pz       -0.000000  0.000000  0.000000 -0.000000 -0.000000  0.000000
  3N   1px       -0.000091 -0.000812  0.000738 -0.000046 -0.000130  0.006588
  3N   1py        0.000974  0.000280  0.000456 -0.000065  0.000010 -0.071301
  3N   3s        -0.031661  0.006034  0.006129  0.004630 -0.001900 -0.372898
  3N   2pz       -0.000000 -0.000000 -0.000000 -0.000000 -0.000000 -0.000000
  3N   2px        0.000864 -0.001700  0.000443 -0.000657 -0.000904  0.003716
  3N   2py       -0.008419  0.005794  0.006069  0.002294 -0.001047 -0.038182
  3N   1dz2       0.000018 -0.001256 -0.001275  0.000055 -0.000023  0.015679
  3N   1dxz      -0.000000  0.000000 -0.000000  0.000000 -0.000000 -0.000000
  3N   1dyz       0.000000 -0.000000  0.000000  0.000000  0.000000 -0.000000
  3N   1dx2y2     0.000096  0.000690  0.000129  0.000136 -0.000025  0.007038
  3N   1dxy       0.000023 -0.001274  0.001432 -0.000023 -0.000129  0.001550
  4C   1s         0.000081  0.006189 -0.994964  0.002746 -0.006219  0.088730
  4C   2s        -0.000723  0.000996 -0.035970  0.001049 -0.001893 -0.169113
  4C   1pz        0.000000  0.000000 -0.000000 -0.000000  0.000000  0.000000
  4C   1px        0.000189  0.000001  0.001845 -0.000167  0.000468  0.100810
  4C   1py        0.000128  0.000223  0.000796  0.000815 -0.001125  0.047441
  4C   3s         0.012622 -0.008586  0.018690 -0.004548  0.012234 -0.037002
  4C   2pz        0.000000 -0.000000  0.000000 -0.000000  0.000000  0.000000
  4C   2px       -0.008303  0.007657  0.001321  0.002542 -0.004093 -0.028518
  4C   2py       -0.000982 -0.002822  0.003273 -0.001334  0.003100 -0.000929
  4C   1dz2       0.000251  0.000346  0.001066 -0.000127  0.000629  0.011932
  4C   1dxz      -0.000000  0.000000 -0.000000  0.000000  0.000000 -0.000000
  4C   1dyz       0.000000 -0.000000  0.000000  0.000000  0.000000  0.000000
  4C   1dx2y2     0.000036 -0.000171 -0.000075 -0.000464  0.000671 -0.005085
  4C   1dxy      -0.000926  0.000018 -0.000463 -0.000335  0.000807 -0.009044
  5H   1s        -0.000014  0.001352 -0.000313  0.000122  0.000086 -0.021047
  5H   2s         0.002057 -0.004727 -0.002957 -0.001098  0.000193  0.011153
  6H   1s        -0.000229  0.000316  0.000135  0.001505  0.000420 -0.009130
  6H   2s        -0.000986  0.000329  0.000726 -0.002576 -0.000614 -0.003659
  7H   1s        -0.000227  0.000129  0.000321  0.000778 -0.001359 -0.009182
  7H   2s        -0.000966  0.000708  0.000327 -0.001429  0.002249 -0.003659
  8H   1s        -0.000014 -0.000329  0.001350  0.000026 -0.000146 -0.021246
  8H   2s         0.002059 -0.002907 -0.004774 -0.000922  0.000628  0.011345
  9H   1s        -0.000769  0.000606  0.000606  0.000143 -0.000054 -0.077606
  9H   2s         0.001284  0.001471  0.001473  0.000395 -0.000154 -0.003680
                      6         7         8         9        10        11   
                  -0.76497  -0.70237  -0.58384  -0.54981  -0.53202  -0.42731
                   2.00000   2.00000   2.00000   2.00000   2.00000   2.00000
                  --------  --------  --------  --------  --------  --------
  0C   1s         0.130962 -0.064187  0.072913 -0.098472  0.011132  0.007828
  0C   2s        -0.249276  0.124420 -0.145887  0.201227 -0.023822 -0.016945
  0C   1pz       -0.000000  0.000000  0.000000 -0.000000 -0.000000 -0.000000
  0C   1px       -0.078265 -0.063456 -0.033909 -0.130233 -0.149348 -0.133935
  0C   1py        0.032986 -0.074425 -0.150128 -0.002668 -0.036043  0.265659
  0C   3s        -0.169990  0.105301 -0.129837  0.094099  0.007546 -0.031059
  0C   2pz        0.000000  0.000000  0.000000  0.000000  0.000000 -0.000000
  0C   2px       -0.001537 -0.008444  0.002866 -0.083808 -0.039487 -0.034585
  0C   2py       -0.004817 -0.008195 -0.047948  0.055169 -0.021643  0.099142
  0C   1dz2       0.011186 -0.004450  0.004054 -0.004005  0.000517 -0.001261
  0C   1dxz       0.000000  0.000000  0.000000  0.000000  0.000000 -0.000000
  0C   1dyz       0.000000 -0.000000  0.000000 -0.000000 -0.000000  0.000000
  0C   1dx2y2    -0.004194 -0.009858 -0.007139 -0.006168 -0.004562 -0.002194
  0C   1dxy       0.004078  0.000873  0.000397 -0.007129  0.006573 -0.002043
  1C   1s         0.131053  0.064743  0.071159  0.099115  0.012413  0.008526
  1C   2s        -0.249369 -0.125390 -0.142291 -0.202425 -0.026493 -0.018268
  1C   1pz        0.000000  0.000000  0.000000  0.000000  0.000000 -0.000000
  1C   1px        0.069737 -0.077492  0.065597 -0.130255  0.152011  0.077122
  1C   1py        0.048160  0.059813 -0.140176 -0.026190 -0.004700  0.285034
  1C   3s        -0.169231 -0.106321 -0.128325 -0.095290  0.007183 -0.032872
  1C   2pz       -0.000000 -0.000000  0.000000  0.000000 -0.000000 -0.000000
  1C   2px        0.002282 -0.009995  0.007841 -0.071404  0.041693  0.013486
  1C   2py       -0.004716  0.006430 -0.046001 -0.071397 -0.014684  0.102951
  1C   1dz2       0.011179  0.004496  0.003971  0.004048  0.000539 -0.001229
  1C   1dxz       0.000000  0.000000 -0.000000 -0.000000  0.000000  0.000000
  1C   1dyz       0.000000  0.000000 -0.000000 -0.000000  0.000000  0.000000
  1C   1dx2y2    -0.002294  0.008640 -0.006635  0.008357 -0.001394 -0.002569
  1C   1dxy      -0.005443  0.004691 -0.003219 -0.004107 -0.007838  0.000842
  2C   1s         0.036430 -0.136712 -0.057173  0.021398 -0.077099  0.002809
  2C   2s        -0.067843  0.273824  0.116438 -0.049627  0.154243 -0.003739
  2C   1pz       -0.000000  0.000000 -0.000000 -0.000000 -0.000000 -0.000000
  2C   1px        0.008196  0.011066  0.069591 -0.066159 -0.246747  0.037679
  2C   1py       -0.131712 -0.005725 -0.001854  0.220592 -0.020996 -0.192113
  2C   3s        -0.053649  0.182269  0.078569  0.028906  0.147918  0.031174
  2C   2pz        0.000000  0.000000  0.000000  0.000000 -0.000000 -0.000000
  2C   2px       -0.005764 -0.027616 -0.002615  0.021257 -0.083833  0.015006
  2C   2py       -0.017380 -0.004334 -0.005351  0.079017 -0.031485 -0.039192
  2C   1dz2       0.003127 -0.010150 -0.004376  0.002553 -0.002173 -0.002239
  2C   1dxz      -0.000000 -0.000000 -0.000000 -0.000000 -0.000000 -0.000000
  2C   1dyz      -0.000000  0.000000  0.000000  0.000000 -0.000000 -0.000000
  2C   1dx2y2     0.004012 -0.001941  0.014515 -0.007174 -0.003194  0.012515
  2C   1dxy      -0.014160 -0.000803  0.003796  0.007896  0.008370 -0.013326
  3N   1s        -0.096502 -0.000433  0.033824  0.000416  0.035299 -0.024347
  3N   2s         0.213283  0.001000 -0.072577 -0.000848 -0.086065  0.071019
  3N   1pz        0.000000  0.000000 -0.000000  0.000000 -0.000000 -0.000000
  3N   1px        0.013023 -0.241113 -0.039684  0.293680  0.015910 -0.031182
  3N   1py       -0.114484 -0.024599  0.361266  0.034507 -0.137050  0.278183
  3N   3s         0.235221  0.000987 -0.101035 -0.002036 -0.079709  0.053616
  3N   2pz       -0.000000 -0.000000 -0.000000 -0.000000 -0.000000 -0.000000
  3N   2px        0.006885 -0.103838 -0.019201  0.140625  0.005613 -0.011380
  3N   2py       -0.062325 -0.010634  0.175071  0.016344 -0.043986  0.099160
  3N   1dz2      -0.004026  0.000002  0.003726  0.000023 -0.001151  0.006140
  3N   1dxz      -0.000000 -0.000000 -0.000000  0.000000  0.000000 -0.000000
  3N   1dyz       0.000000  0.000000  0.000000 -0.000000 -0.000000 -0.000000
  3N   1dx2y2    -0.001653  0.002769  0.010696 -0.000615  0.009875  0.019474
  3N   1dxy      -0.000461 -0.013378  0.002467  0.003377  0.002031  0.004193
  4C   1s         0.036001  0.136590 -0.057443 -0.021477 -0.076838  0.002287
  4C   2s        -0.066879 -0.273357  0.116798  0.049766  0.153715 -0.002691
  4C   1pz        0.000000  0.000000 -0.000000  0.000000  0.000000 -0.000000
  4C   1px        0.018602  0.008628 -0.067544 -0.023347  0.246237  0.005383
  4C   1py       -0.131779  0.007013 -0.012516 -0.230036  0.026769 -0.194359
  4C   3s        -0.053554 -0.181760  0.080355 -0.028857  0.145652  0.032603
  4C   2pz        0.000000  0.000000 -0.000000  0.000000  0.000000 -0.000000
  4C   2px        0.009485 -0.028384  0.003109  0.035668  0.089736 -0.005709
  4C   2py       -0.016272 -0.001307 -0.003380 -0.073218 -0.014865 -0.040869
  4C   1dz2       0.003073  0.010101 -0.004327 -0.002598 -0.002184 -0.002227
  4C   1dxz       0.000000 -0.000000  0.000000 -0.000000  0.000000  0.000000
  4C   1dyz      -0.000000  0.000000  0.000000 -0.000000  0.000000  0.000000
  4C   1dx2y2    -0.001988  0.002182  0.014813  0.003693  0.000472  0.006386
  4C   1dxy       0.014675  0.000171  0.002095  0.010097 -0.008828  0.016979
  5H   1s        -0.008892  0.093463  0.023712 -0.033624  0.183990  0.024296
  5H   2s        -0.002533  0.020821  0.002989 -0.007286  0.101398  0.022507
  6H   1s        -0.057272  0.039420 -0.098885  0.125519  0.022594  0.159691
  6H   2s        -0.005845  0.009798 -0.042802  0.043782  0.017784  0.131264
  7H   1s        -0.057343 -0.040093 -0.096805 -0.127822  0.021567  0.157395
  7H   2s        -0.005755 -0.010022 -0.042250 -0.045080  0.017820  0.129726
  8H   1s        -0.008606 -0.093691  0.023682  0.032226  0.184378  0.026614
  8H   2s        -0.002553 -0.020768  0.003070  0.006529  0.101300  0.024390
  9H   1s         0.114554 -0.000291 -0.219671 -0.001839  0.039746 -0.171250
  9H   2s         0.015890 -0.000037 -0.094438 -0.001025  0.030448 -0.144195
                     12        13        14        15        16        17   
                  -0.41171  -0.39985  -0.36736  -0.35504  -0.23585  -0.19132
                   2.00000   2.00000   2.00000   2.00000   2.00000   2.00000
                  --------  --------  --------  --------  --------  --------
  0C   1s        -0.039942 -0.000000 -0.003238 -0.007547  0.000000 -0.000000
  0C   2s         0.076719  0.000000  0.017614  0.021881 -0.000000 -0.000000
  0C   1pz       -0.000000  0.148691  0.000000 -0.000000 -0.339332  0.207961
  0C   1px       -0.041711 -0.000000  0.058276  0.367706  0.000000 -0.000000
  0C   1py        0.065794  0.000000 -0.292171  0.111824 -0.000000 -0.000000
  0C   3s         0.166632  0.000000 -0.070619  0.001086 -0.000000  0.000000
  0C   2pz       -0.000000  0.073847 -0.000000  0.000000 -0.240331  0.159562
  0C   2px        0.026837  0.000000 -0.006813  0.111512 -0.000000 -0.000000
  0C   2py       -0.000445 -0.000000 -0.022479  0.073980  0.000000 -0.000000
  0C   1dz2      -0.002470 -0.000000  0.003816  0.001924  0.000000 -0.000000
  0C   1dxz      -0.000000  0.005929 -0.000000  0.000000 -0.012715 -0.011804
  0C   1dyz       0.000000 -0.009075  0.000000  0.000000  0.000976 -0.014001
  0C   1dx2y2    -0.004316 -0.000000 -0.010557  0.013326 -0.000000 -0.000000
  0C   1dxy      -0.013820 -0.000000  0.018102  0.009102  0.000000  0.000000
  1C   1s         0.039904  0.000000  0.003296 -0.007917  0.000000 -0.000000
  1C   2s        -0.076595 -0.000000 -0.017793  0.022498 -0.000000 -0.000000
  1C   1pz       -0.000000  0.149069 -0.000000  0.000000 -0.338893 -0.208449
  1C   1px       -0.029114 -0.000000  0.005900 -0.382253 -0.000000  0.000000
  1C   1py       -0.076923  0.000000  0.298456  0.041781 -0.000000 -0.000000
  1C   3s        -0.166384 -0.000000  0.070859  0.002315  0.000000  0.000000
  1C   2pz       -0.000000  0.074038  0.000000 -0.000000 -0.240142 -0.159859
  1C   2px        0.026026  0.000000 -0.009105 -0.122453 -0.000000 -0.000000
  1C   2py        0.004554  0.000000  0.019874  0.051356 -0.000000 -0.000000
  1C   1dz2       0.002493  0.000000 -0.003855  0.001889 -0.000000 -0.000000
  1C   1dxz       0.000000 -0.003924 -0.000000  0.000000  0.012238 -0.014403
  1C   1dyz       0.000000 -0.010128 -0.000000  0.000000  0.003519  0.011300
  1C   1dx2y2     0.009460  0.000000  0.002301  0.015726  0.000000 -0.000000
  1C   1dxy      -0.011055 -0.000000  0.020958 -0.002644  0.000000 -0.000000
  2C   1s         0.020478  0.000000 -0.037272 -0.001282 -0.000000  0.000000
  2C   2s        -0.031457 -0.000000  0.080516 -0.001689  0.000000  0.000000
  2C   1pz       -0.000000  0.233791 -0.000000 -0.000000 -0.030329  0.376957
  2C   1px        0.293910  0.000000  0.131182 -0.079130 -0.000000 -0.000000
  2C   1py       -0.028019 -0.000000  0.247065 -0.199548  0.000000 -0.000000
  2C   3s        -0.108004 -0.000000  0.169828  0.073785 -0.000000 -0.000000
  2C   2pz       -0.000000  0.114050 -0.000000 -0.000000 -0.026988  0.302212
  2C   2px        0.051094  0.000000  0.052132  0.040459  0.000000 -0.000000
  2C   2py       -0.017482 -0.000000  0.113447 -0.074211  0.000000 -0.000000
  2C   1dz2       0.001408 -0.000000  0.001960 -0.003541  0.000000  0.000000
  2C   1dxz      -0.000000  0.018157 -0.000000 -0.000000  0.008215  0.000265
  2C   1dyz       0.000000 -0.002739  0.000000 -0.000000 -0.022229  0.005229
  2C   1dx2y2    -0.009599  0.000000 -0.008516  0.009052  0.000000 -0.000000
  2C   1dxy      -0.021482 -0.000000  0.001510  0.013123  0.000000  0.000000
  3N   1s         0.000043 -0.000000 -0.000175  0.015868  0.000000 -0.000000
  3N   2s        -0.000209  0.000000  0.000342 -0.024853 -0.000000 -0.000000
  3N   1pz       -0.000000  0.420291 -0.000000 -0.000000  0.370712  0.000677
  3N   1px       -0.326458 -0.000000  0.033702 -0.002239  0.000000 -0.000000
  3N   1py       -0.036342  0.000000  0.004244  0.023520  0.000000 -0.000000
  3N   3s         0.000093 -0.000000  0.001662 -0.173999  0.000000  0.000000
  3N   2pz       -0.000000  0.273762 -0.000000 -0.000000  0.311276  0.000914
  3N   2px       -0.178865 -0.000000  0.038421  0.004106  0.000000 -0.000000
  3N   2py       -0.019542 -0.000000  0.004853 -0.037708  0.000000  0.000000
  3N   1dz2      -0.000023  0.000000  0.000001  0.001085  0.000000 -0.000000
  3N   1dxz       0.000000 -0.001057  0.000000  0.000000  0.000694 -0.026236
  3N   1dyz      -0.000000  0.011346 -0.000000 -0.000000 -0.005641 -0.002702
  3N   1dx2y2     0.001519  0.000000  0.002323  0.013728 -0.000000 -0.000000
  3N   1dxy      -0.007942 -0.000000 -0.011431  0.002780  0.000000 -0.000000
  4C   1s        -0.020471 -0.000000  0.037507 -0.000459  0.000000  0.000000
  4C   2s         0.031372  0.000000 -0.080874 -0.003408  0.000000  0.000000
  4C   1pz       -0.000000  0.234843 -0.000000 -0.000000 -0.029454 -0.375907
  4C   1px        0.282272  0.000000  0.175553  0.121582  0.000000  0.000000
  4C   1py        0.089969 -0.000000 -0.212519 -0.183113 -0.000000  0.000000
  4C   3s         0.108004  0.000000 -0.171682  0.070923 -0.000000 -0.000000
  4C   2pz       -0.000000  0.114597 -0.000000  0.000000 -0.026544 -0.301739
  4C   2px        0.046395 -0.000000  0.074504 -0.023862  0.000000  0.000000
  4C   2py        0.028027 -0.000000 -0.099126 -0.083143 -0.000000 -0.000000
  4C   1dz2      -0.001393 -0.000000 -0.001925 -0.003578  0.000000  0.000000
  4C   1dxz       0.000000 -0.017235  0.000000  0.000000 -0.003522  0.001258
  4C   1dyz       0.000000 -0.006426 -0.000000  0.000000 -0.023500 -0.005117
  4C   1dx2y2     0.017332  0.000000  0.006927  0.013676  0.000000 -0.000000
  4C   1dxy      -0.016096 -0.000000  0.005044 -0.008378 -0.000000 -0.000000
  5H   1s        -0.189840 -0.000000 -0.105089  0.120678  0.000000  0.000000
  5H   2s        -0.176488 -0.000000 -0.113395  0.140159  0.000000 -0.000000
  6H   1s         0.097636  0.000000 -0.174461 -0.105849 -0.000000  0.000000
  6H   2s         0.086850  0.000000 -0.192136 -0.121319 -0.000000  0.000000
  7H   1s        -0.100130 -0.000000  0.177159 -0.102080 -0.000000 -0.000000
  7H   2s        -0.089034 -0.000000  0.195358 -0.117462  0.000000  0.000000
  8H   1s         0.189771  0.000000  0.102155  0.122686 -0.000000  0.000000
  8H   2s         0.176463  0.000000  0.110138  0.142694 -0.000000 -0.000000
  9H   1s         0.000870 -0.000000  0.000020 -0.047566 -0.000000  0.000000
  9H   2s         0.001071 -0.000000  0.000073 -0.047568 -0.000000  0.000000
                     18        19        20        21        22        23   
                   0.05949   0.07040   0.10967   0.14145   0.17454   0.17518
                   0.00000   0.00000   0.00000   0.00000   0.00000   0.00000
                  --------  --------  --------  --------  --------  --------
  0C   1s         0.000000  0.024438  0.000000 -0.025948 -0.049112  0.008307
  0C   2s        -0.000000 -0.048251  0.000000  0.024364  0.084527  0.005486
  0C   1pz        0.178627 -0.000000 -0.390011  0.000000  0.000000  0.000000
  0C   1px        0.000000  0.017606 -0.000000 -0.108180 -0.132441  0.077557
  0C   1py       -0.000000 -0.013343 -0.000000  0.121240  0.116889 -0.117268
  0C   3s        -0.000000 -0.151247 -0.000000  0.625443  0.767252 -0.658745
  0C   2pz        0.261300 -0.000000 -0.687938  0.000000  0.000000  0.000000
  0C   2px       -0.000000  0.061392  0.000000 -0.193407 -0.653926 -0.100086
  0C   2py        0.000000 -0.094668 -0.000000  0.214831  0.363431 -0.312901
  0C   1dz2       0.000000 -0.003125  0.000000  0.003314  0.001460  0.002459
  0C   1dxz       0.014150 -0.000000  0.018981 -0.000000 -0.000000 -0.000000
  0C   1dyz       0.022479 -0.000000 -0.007183  0.000000  0.000000 -0.000000
  0C   1dx2y2    -0.000000 -0.005912  0.000000 -0.004542  0.002204 -0.009558
  0C   1dxy      -0.000000 -0.012199  0.000000  0.013820  0.006958 -0.002775
  1C   1s         0.000000  0.024195 -0.000000 -0.026750 -0.046361  0.012632
  1C   2s        -0.000000 -0.047448  0.000000  0.026233  0.070388 -0.039743
  1C   1pz        0.173581 -0.000000  0.392177 -0.000000 -0.000000 -0.000000
  1C   1px       -0.000000 -0.013747  0.000000  0.082027  0.114657  0.004519
  1C   1py       -0.000000 -0.017154  0.000000  0.140413  0.179826  0.060430
  1C   3s         0.000000 -0.153978  0.000000  0.625417  0.966040  0.281247
  1C   2pz        0.253609 -0.000000  0.691757 -0.000000 -0.000000 -0.000000
  1C   2px       -0.000000 -0.036749  0.000000  0.160061  0.434092 -0.381128
  1C   2py       -0.000000 -0.102114  0.000000  0.258480  0.533497  0.061625
  1C   1dz2      -0.000000 -0.003062  0.000000  0.003430  0.000077 -0.002755
  1C   1dxz      -0.018611  0.000000  0.016917 -0.000000 -0.000000 -0.000000
  1C   1dyz       0.019036 -0.000000  0.011128 -0.000000 -0.000000 -0.000000
  1C   1dx2y2    -0.000000 -0.010158  0.000000  0.001210  0.008249  0.006945
  1C   1dxy       0.000000  0.008832  0.000000 -0.014501 -0.004595  0.003428
  2C   1s         0.000000  0.005320  0.000000 -0.068246  0.071443  0.043936
  2C   2s        -0.000000 -0.001142  0.000000  0.098912 -0.115013 -0.074804
  2C   1pz       -0.359758  0.000000  0.228285 -0.000000 -0.000000 -0.000000
  2C   1px        0.000000  0.121566  0.000000 -0.091894  0.109573  0.219541
  2C   1py        0.000000  0.005831  0.000000 -0.110039  0.098051  0.107487
  2C   3s         0.000000 -0.313913 -0.000000  0.863350 -0.968105 -0.912278
  2C   2pz       -0.532144  0.000000  0.401460 -0.000000 -0.000000 -0.000000
  2C   2px        0.000000  0.107579  0.000000 -0.294227  0.663513  0.780740
  2C   2py        0.000000 -0.077931  0.000000 -0.411771  0.324935  0.295531
  2C   1dz2      -0.000000  0.000119  0.000000  0.006290 -0.004928 -0.000639
  2C   1dxz       0.016443 -0.000000 -0.000778  0.000000  0.000000  0.000000
  2C   1dyz      -0.000664 -0.000000 -0.027078  0.000000  0.000000  0.000000
  2C   1dx2y2     0.000000  0.010120 -0.000000 -0.010180  0.008856 -0.003731
  2C   1dxy       0.000000  0.011714 -0.000000 -0.006994 -0.017977  0.002291
  3N   1s         0.000000  0.085177  0.000000  0.057144 -0.036210  0.008483
  3N   2s        -0.000000 -0.162461  0.000000 -0.103567  0.114438 -0.026110
  3N   1pz        0.362857 -0.000000  0.002341  0.000000  0.000000 -0.000000
  3N   1px       -0.000000 -0.027888 -0.000000 -0.008153 -0.032766 -0.067597
  3N   1py        0.000000  0.271218 -0.000000  0.088443  0.138496 -0.037339
  3N   3s        -0.000000 -1.042165 -0.000000 -0.798967  0.081784 -0.025670
  3N   2pz        0.511202 -0.000000  0.003876  0.000000 -0.000000 -0.000000
  3N   2px        0.000000 -0.071616 -0.000000 -0.034444 -0.053620 -0.164204
  3N   2py        0.000000  0.670939 -0.000000  0.319878  0.109975 -0.040141
  3N   1dz2       0.000000 -0.003580  0.000000  0.005138  0.006280 -0.001315
  3N   1dxz       0.002425 -0.000000 -0.028556  0.000000  0.000000  0.000000
  3N   1dyz      -0.021541  0.000000 -0.003094 -0.000000 -0.000000  0.000000
  3N   1dx2y2    -0.000000 -0.012257  0.000000  0.023200 -0.008714  0.002293
  3N   1dxy       0.000000 -0.002754 -0.000000  0.004721 -0.001768 -0.001102
  4C   1s         0.000000  0.006142 -0.000000 -0.067173  0.044752 -0.070018
  4C   2s         0.000000 -0.003121 -0.000000  0.096854 -0.068970  0.115875
  4C   1pz       -0.357157  0.000000 -0.232690  0.000000  0.000000  0.000000
  4C   1px       -0.000000 -0.119978  0.000000  0.111290 -0.017884  0.268932
  4C   1py       -0.000000 -0.017500 -0.000000 -0.087332  0.041181 -0.086659
  4C   3s        -0.000000 -0.317357  0.000000  0.856404 -0.492233  1.243137
  4C   2pz       -0.529028  0.000000 -0.409092  0.000000  0.000000  0.000000
  4C   2px        0.000000 -0.094956 -0.000000  0.360911 -0.297669  1.051149
  4C   2py       -0.000000 -0.097715  0.000000 -0.344973  0.103705 -0.198311
  4C   1dz2       0.000000  0.000012 -0.000000  0.006149 -0.003887  0.002588
  4C   1dxz      -0.015928  0.000000 -0.006522 -0.000000  0.000000  0.000000
  4C   1dyz      -0.004306  0.000000  0.026337 -0.000000 -0.000000 -0.000000
  4C   1dx2y2     0.000000  0.013741 -0.000000 -0.012304  0.002309  0.001746
  4C   1dxy      -0.000000 -0.006710  0.000000  0.002338  0.019457 -0.005178
  5H   1s         0.000000  0.021613 -0.000000 -0.077612  0.037071  0.019707
  5H   2s         0.000000  0.327633  0.000000 -1.076906  1.299103  1.411969
  6H   1s         0.000000  0.047018 -0.000000 -0.031886 -0.045666  0.002143
  6H   2s         0.000000  0.310153  0.000000 -0.743941 -1.228717  0.534374
  7H   1s         0.000000  0.046358 -0.000000 -0.032394 -0.040090  0.016882
  7H   2s         0.000000  0.306613 -0.000000 -0.759489 -1.300375  0.019139
  8H   1s         0.000000  0.021337 -0.000000 -0.077069  0.025188 -0.033693
  8H   2s         0.000000  0.334645 -0.000000 -1.062705  0.576391 -1.834834
  9H   1s         0.000000  0.150585 -0.000000  0.017942 -0.009109  0.002136
  9H   2s         0.000000  1.542389 -0.000000  0.704839  0.146719 -0.025416
                     24        25        26        27        28        29   
                   0.19392   0.25654   0.26238   0.35033   0.36870   0.46877
                   0.00000   0.00000   0.00000   0.00000   0.00000   0.00000
                  --------  --------  --------  --------  --------  --------
  0C   1s        -0.087385 -0.045720  0.045139  0.048134 -0.064856 -0.057912
  0C   2s         0.166691  0.041797 -0.046400 -0.088994 -0.028089  0.073478
  0C   1pz       -0.000000 -0.000000  0.000000  0.000000  0.000000  0.000000
  0C   1px       -0.110989 -0.077405 -0.183922 -0.151305 -0.049019  0.158249
  0C   1py        0.130344 -0.140680 -0.068978  0.033064 -0.208860  0.002614
  0C   3s         0.792205  1.259110 -1.287028 -1.378982  3.433013  2.626963
  0C   2pz       -0.000000 -0.000000 -0.000000 -0.000000 -0.000000 -0.000000
  0C   2px       -0.798423 -0.499977 -1.131424 -0.025859  0.853951  2.938373
  0C   2py        0.961323 -0.588035 -0.448137  1.492509 -2.575952  0.212434
  0C   1dz2       0.005647  0.005158  0.000702  0.012639 -0.018293 -0.011576
  0C   1dxz       0.000000  0.000000 -0.000000 -0.000000 -0.000000 -0.000000
  0C   1dyz      -0.000000 -0.000000  0.000000 -0.000000 -0.000000  0.000000
  0C   1dx2y2    -0.000400  0.009203  0.027071 -0.035192 -0.004471 -0.015786
  0C   1dxy      -0.006618 -0.025447  0.016040  0.007373  0.015221  0.008608
  1C   1s         0.087934 -0.045308 -0.045506  0.048687  0.064534  0.057750
  1C   2s        -0.166932  0.041625  0.045948 -0.088047  0.028710 -0.070328
  1C   1pz        0.000000  0.000000 -0.000000 -0.000000  0.000000 -0.000000
  1C   1px       -0.084560  0.106162 -0.194965  0.138372 -0.090495  0.156017
  1C   1py       -0.153352 -0.120808  0.026635  0.062594  0.194592  0.025748
  1C   3s        -0.810286  1.242993  1.301247 -1.425103 -3.441196 -2.608753
  1C   2pz        0.000000  0.000000 -0.000000  0.000000 -0.000000  0.000000
  1C   2px       -0.602508  0.628233 -1.194141 -0.266404  0.313366  2.927178
  1C   2py       -1.117103 -0.460027  0.191088  1.485083  2.690338  0.379661
  1C   1dz2      -0.005530  0.005128 -0.000523  0.013138  0.018395  0.011185
  1C   1dxz       0.000000  0.000000 -0.000000  0.000000 -0.000000 -0.000000
  1C   1dyz       0.000000  0.000000 -0.000000  0.000000 -0.000000  0.000000
  1C   1dx2y2     0.003034 -0.001251 -0.031007 -0.029940 -0.001490  0.011192
  1C   1dxy      -0.005648  0.027037  0.004279 -0.020622  0.015465  0.014087
  2C   1s         0.036743  0.020628  0.062150 -0.063291  0.059800  0.048442
  2C   2s        -0.094656 -0.058961 -0.108201 -0.043516 -0.071837  0.031035
  2C   1pz        0.000000 -0.000000 -0.000000  0.000000 -0.000000 -0.000000
  2C   1px       -0.015511  0.142454 -0.182913  0.108535 -0.140056 -0.223979
  2C   1py       -0.028633 -0.191421  0.038105  0.191351  0.083159  0.272479
  2C   3s         0.082140 -0.397154 -1.244349  2.634087 -2.461450 -1.300839
  2C   2pz        0.000000  0.000000  0.000000 -0.000000 -0.000000  0.000000
  2C   2px        0.446550  0.887012 -0.639770  1.875604 -0.753900 -1.686685
  2C   2py       -0.026101 -1.186012  0.356707  0.794554 -2.371613  0.838605
  2C   1dz2      -0.007524  0.003253 -0.007824  0.003246  0.008255 -0.022371
  2C   1dxz      -0.000000 -0.000000  0.000000  0.000000  0.000000  0.000000
  2C   1dyz      -0.000000 -0.000000  0.000000  0.000000  0.000000  0.000000
  2C   1dx2y2    -0.008944 -0.030323 -0.003656 -0.000902 -0.018290  0.005977
  2C   1dxy      -0.004417  0.006749 -0.030957 -0.005582  0.007610 -0.000132
  3N   1s         0.000924  0.065430  0.000335  0.072156 -0.000396 -0.000844
  3N   2s        -0.002295 -0.080631 -0.000471 -0.041956  0.000444  0.002939
  3N   1pz       -0.000000 -0.000000  0.000000  0.000000  0.000000  0.000000
  3N   1px       -0.049202  0.022163 -0.333685  0.015201  0.159281 -0.374663
  3N   1py       -0.005855 -0.178945 -0.035409 -0.154028  0.019405 -0.038471
  3N   3s        -0.007648 -1.746759 -0.012279 -2.559494  0.011742 -0.010696
  3N   2pz        0.000000  0.000000 -0.000000 -0.000000  0.000000 -0.000000
  3N   2px        0.066370  0.081925 -1.140739  0.169236  0.067263 -1.739251
  3N   2py        0.006888 -0.714079 -0.117302 -1.691643  0.012885 -0.175532
  3N   1dz2      -0.000007  0.009123  0.000282  0.037175  0.000060  0.001251
  3N   1dxz      -0.000000 -0.000000  0.000000  0.000000  0.000000  0.000000
  3N   1dyz       0.000000 -0.000000  0.000000  0.000000 -0.000000 -0.000000
  3N   1dx2y2    -0.004293  0.029348 -0.006580 -0.022218 -0.012939 -0.008621
  3N   1dxy       0.022062  0.006004  0.033009 -0.004389  0.061443  0.042203
  4C   1s        -0.038413  0.021387 -0.061768 -0.064210 -0.059073 -0.047334
  4C   2s         0.096401 -0.059993  0.106749 -0.041922  0.071330 -0.035387
  4C   1pz       -0.000000 -0.000000  0.000000  0.000000  0.000000 -0.000000
  4C   1px       -0.018159 -0.098779 -0.169347 -0.147182 -0.118051 -0.157294
  4C   1py        0.019948 -0.214338 -0.077515  0.162641 -0.109943 -0.303626
  4C   3s        -0.056892 -0.405910  1.238199  2.673295  2.454896  1.295397
  4C   2pz       -0.000000  0.000000 -0.000000 -0.000000 -0.000000  0.000000
  4C   2px        0.449393 -0.630287 -0.544841 -2.022463 -1.206616 -1.475504
  4C   2py        0.106608 -1.331666 -0.504296  0.401480  2.180478 -1.187970
  4C   1dz2       0.007615  0.003061  0.007925  0.003205 -0.008479  0.021903
  4C   1dxz      -0.000000 -0.000000 -0.000000  0.000000 -0.000000  0.000000
  4C   1dyz       0.000000  0.000000 -0.000000 -0.000000  0.000000 -0.000000
  4C   1dx2y2     0.009688 -0.025254  0.015263 -0.002740  0.013708 -0.005712
  4C   1dxy      -0.001030 -0.017855 -0.027154  0.004623  0.014547 -0.002042
  5H   1s         0.014726 -0.059053 -0.061986 -0.039951 -0.052144  0.144182
  5H   2s         0.385899  0.392330 -0.111305  0.960753 -0.646023 -0.440768
  6H   1s        -0.045835  0.073995 -0.066460 -0.009013 -0.030518 -0.004716
  6H   2s        -1.762281 -0.140989 -0.081065 -0.571117  1.035987  0.716199
  7H   1s         0.046805  0.074045  0.065542 -0.010141  0.028331  0.008806
  7H   2s         1.793704 -0.159413  0.100288 -0.565700 -1.031208 -0.720835
  8H   1s        -0.016492 -0.059262  0.060832 -0.038655  0.052638 -0.143070
  8H   2s        -0.420580  0.399112  0.099744  0.969901  0.639637  0.431807
  9H   1s        -0.000466 -0.128936 -0.002943  0.013231 -0.002284 -0.007686
  9H   2s         0.004541 -0.468269  0.005511 -0.771802  0.011909  0.010394
                     30        31        32        33        34        35   
                   0.55594   0.56138   0.58261   0.60988   0.62494   0.63403
                   0.00000   0.00000   0.00000   0.00000   0.00000   0.00000
                  --------  --------  --------  --------  --------  --------
  0C   1s        -0.011136  0.000000 -0.020616  0.000000  0.044349  0.000000
  0C   2s         0.393430  0.000000  0.120443  0.000000  0.255541  0.000000
  0C   1pz        0.000000 -0.434447 -0.000000  0.327709 -0.000000  0.594348
  0C   1px       -0.194878 -0.000000 -0.140826  0.000000  0.296116  0.000000
  0C   1py       -0.137634 -0.000000 -0.347538  0.000000  0.305286  0.000000
  0C   3s        -0.022303 -0.000000  0.415494 -0.000000 -0.344532  0.000000
  0C   2pz       -0.000000  0.275460  0.000000 -0.302176  0.000000 -0.732571
  0C   2px        0.459664  0.000000  0.258204 -0.000000 -0.538507  0.000000
  0C   2py       -0.253897 -0.000000 -0.001287  0.000000 -0.075830 -0.000000
  0C   1dz2      -0.055126 -0.000000  0.004090 -0.000000 -0.072975 -0.000000
  0C   1dxz       0.000000 -0.020465  0.000000 -0.000936 -0.000000  0.048302
  0C   1dyz      -0.000000  0.029004  0.000000 -0.042562  0.000000 -0.009509
  0C   1dx2y2    -0.030858 -0.000000 -0.011331  0.000000 -0.005620 -0.000000
  0C   1dxy      -0.066384 -0.000000  0.049802  0.000000 -0.001711 -0.000000
  1C   1s        -0.010322 -0.000000 -0.021056  0.000000  0.039558  0.000000
  1C   2s         0.393260  0.000000  0.122862  0.000000  0.268300 -0.000000
  1C   1pz        0.000000 -0.437573  0.000000 -0.322082 -0.000000  0.591087
  1C   1px        0.215558  0.000000  0.207752 -0.000000 -0.348727 -0.000000
  1C   1py       -0.095496 -0.000000 -0.315556 -0.000000  0.228182  0.000000
  1C   3s        -0.045031  0.000000  0.452452 -0.000000 -0.238397 -0.000000
  1C   2pz       -0.000000  0.278408 -0.000000  0.297524  0.000000 -0.726322
  1C   2px       -0.400671 -0.000000 -0.288600  0.000000  0.468536  0.000000
  1C   2py       -0.310260 -0.000000 -0.056088 -0.000000 -0.031047  0.000000
  1C   1dz2      -0.055159 -0.000000  0.003744 -0.000000 -0.071114 -0.000000
  1C   1dxz      -0.000000  0.014011 -0.000000 -0.009857  0.000000 -0.045442
  1C   1dyz      -0.000000  0.033030 -0.000000  0.041341 -0.000000 -0.019138
  1C   1dx2y2    -0.055064 -0.000000  0.009305 -0.000000 -0.004460 -0.000000
  1C   1dxy       0.048744  0.000000 -0.050827  0.000000  0.000254 -0.000000
  2C   1s         0.016246 -0.000000  0.051106 -0.000000 -0.016993  0.000000
  2C   2s         0.500109  0.000000 -0.057312 -0.000000 -0.188948 -0.000000
  2C   1pz        0.000000 -0.575481 -0.000000  0.659564 -0.000000 -0.422123
  2C   1px        0.030161 -0.000000 -0.199424 -0.000000 -0.289841  0.000000
  2C   1py        0.070342 -0.000000  0.324696  0.000000  0.436947  0.000000
  2C   3s        -1.220605 -0.000000 -0.593045  0.000000  0.598903 -0.000000
  2C   2pz       -0.000000  0.551511  0.000000 -0.796122  0.000000  0.662549
  2C   2px       -0.577131  0.000000 -0.544024  0.000000  0.769511 -0.000000
  2C   2py       -0.345195 -0.000000 -0.788926 -0.000000 -0.331034 -0.000000
  2C   1dz2      -0.060615 -0.000000 -0.041507 -0.000000  0.023655  0.000000
  2C   1dxz       0.000000 -0.018901 -0.000000  0.042369 -0.000000 -0.018550
  2C   1dyz       0.000000 -0.017304 -0.000000  0.029025 -0.000000  0.021553
  2C   1dx2y2     0.008005 -0.000000 -0.041702  0.000000  0.059406  0.000000
  2C   1dxy       0.065829  0.000000 -0.043178 -0.000000 -0.014276  0.000000
  3N   1s        -0.012331  0.000000 -0.078216 -0.000000 -0.023388 -0.000000
  3N   2s         0.068149  0.000000  0.277590  0.000000  0.025199 -0.000000
  3N   1pz        0.000000 -0.169764 -0.000000  0.000826  0.000000 -0.225768
  3N   1px        0.003502  0.000000 -0.008095 -0.000000  0.008035 -0.000000
  3N   1py       -0.050836 -0.000000  0.125774  0.000000 -0.005269 -0.000000
  3N   3s         0.848195  0.000000  0.396787 -0.000000 -0.920772 -0.000000
  3N   2pz        0.000000 -0.049745  0.000000 -0.000181  0.000000  0.050810
  3N   2px       -0.073712  0.000000 -0.055129  0.000000  0.031490  0.000000
  3N   2py        0.700556  0.000000  0.690480 -0.000000 -0.192009 -0.000000
  3N   1dz2      -0.080884 -0.000000  0.071100  0.000000  0.110372  0.000000
  3N   1dxz       0.000000  0.003703  0.000000 -0.042946  0.000000  0.006377
  3N   1dyz       0.000000 -0.038848 -0.000000 -0.004514  0.000000 -0.061552
  3N   1dx2y2    -0.051681 -0.000000  0.046479 -0.000000 -0.041093 -0.000000
  3N   1dxy      -0.010862  0.000000  0.008812  0.000000 -0.007036 -0.000000
  4C   1s         0.015433  0.000000  0.052669  0.000000 -0.013228 -0.000000
  4C   2s         0.501993  0.000000 -0.055541  0.000000 -0.179139 -0.000000
  4C   1pz        0.000000 -0.581375  0.000000 -0.654941  0.000000 -0.418624
  4C   1px       -0.044996 -0.000000  0.133927  0.000000  0.194819  0.000000
  4C   1py        0.066341 -0.000000  0.367724  0.000000  0.461895  0.000000
  4C   3s        -1.195021 -0.000000 -0.628347 -0.000000  0.507762  0.000000
  4C   2pz       -0.000000  0.559165 -0.000000  0.792789 -0.000000  0.657287
  4C   2px        0.623050  0.000000  0.723312 -0.000000 -0.625733 -0.000000
  4C   2py       -0.210455  0.000000 -0.651366 -0.000000 -0.460724 -0.000000
  4C   1dz2      -0.060414 -0.000000 -0.042571 -0.000000  0.020089  0.000000
  4C   1dxz      -0.000000  0.022496 -0.000000  0.047205 -0.000000  0.013725
  4C   1dyz       0.000000 -0.013317  0.000000 -0.019770 -0.000000  0.025055
  4C   1dx2y2     0.034033  0.000000 -0.055921  0.000000  0.048656  0.000000
  4C   1dxy      -0.057500 -0.000000  0.023565  0.000000  0.035473  0.000000
  5H   1s         0.369455  0.000000 -0.016216 -0.000000 -0.025896  0.000000
  5H   2s        -0.376644 -0.000000 -0.346089  0.000000  0.136637 -0.000000
  6H   1s         0.310439  0.000000 -0.195334  0.000000  0.346892  0.000000
  6H   2s         0.041813 -0.000000  0.248252 -0.000000 -0.230984  0.000000
  7H   1s         0.312294  0.000000 -0.196481  0.000000  0.336953  0.000000
  7H   2s         0.032016  0.000000  0.259774 -0.000000 -0.184284 -0.000000
  8H   1s         0.370086  0.000000 -0.014947  0.000000 -0.006638 -0.000000
  8H   2s        -0.371735 -0.000000 -0.355979 -0.000000  0.109701  0.000000
  9H   1s         0.275799  0.000000 -0.518536 -0.000000 -0.231269 -0.000000
[...]
 1 C  dxy             0.0       0.0       0.6       2.2       0.0       0.0
 2 C  s               0.0       0.0       5.4       2.4       0.0       0.0
 2 C  pz              0.3       0.4       0.0       0.0       1.0       0.1
 2 C  px              0.0       0.0       3.4       2.3       0.0       0.0
 2 C  py              0.0       0.0       0.7       2.8       0.0       0.0
 2 C  dz2             0.0       0.0       1.0       1.2       0.0       0.0
 2 C  dxz             9.3       0.0       0.0       0.0      20.1       4.5
 2 C  dyz            14.9      15.8       0.0       0.0       9.8       2.5
 2 C  dx2y2           0.0       0.0       0.2       0.8       0.0       0.0
 2 C  dxy             0.0       0.0       0.7       2.5       0.0       0.0
 3 N  s               0.0       0.0       0.0      26.5       0.0       0.0
 3 N  pz              0.0       0.8       0.0       0.0       0.0       0.7
 3 N  px              0.0       0.0       2.2       0.1       0.0       0.0
 3 N  py              0.0       0.0       0.0       7.5       0.0       0.0
 3 N  dz2             0.0       0.0       0.0       4.9       0.0       0.0
 3 N  dxz            38.1       0.0       0.0       0.0       5.6       0.3
 3 N  dyz             0.4       2.9       0.0       0.0       0.1      28.7
 3 N  dx2y2           0.0       0.0       0.1       8.8       0.0       0.0
 3 N  dxy             0.0       0.0       1.3       0.4       0.0       0.0
 4 C  s               0.0       0.0       5.6       2.3       0.0       0.0
 4 C  pz              0.3       0.4       0.0       0.0       1.0       0.1
 4 C  px              0.0       0.0       4.0       3.1       0.0       0.0
 4 C  py              0.0       0.0       0.2       1.8       0.0       0.0
 4 C  dz2             0.0       0.0       1.1       1.2       0.0       0.0
 4 C  dxz             4.9       0.8       0.0       0.0      25.4       3.0
 4 C  dyz            19.4      15.1       0.0       0.0       4.6       4.0
 4 C  dx2y2           0.0       0.0       0.0       2.1       0.0       0.0
 4 C  dxy             0.0       0.0       0.8       1.2       0.0       0.0
 5 H  s               0.0       0.0       2.5       6.8       0.0       0.0
 6 H  s               0.0       0.0       5.3       1.4       0.0       0.0
 7 H  s               0.0       0.0       5.2       1.5       0.0       0.0
 8 H  s               0.0       0.0       2.7       6.6       0.0       0.0
 9 H  s               0.0       0.0       0.0       0.5       0.0       0.0

                     60        61        62        63        64        65   
                   1.80302   1.89014   2.00323   2.01907   2.05553   2.11852
                   0.00000   0.00000   0.00000   0.00000   0.00000   0.00000
                  --------  --------  --------  --------  --------  --------
 0 C  s               0.1       3.6       0.0       1.4       1.0       0.0
 0 C  px              0.4       2.4       1.9       0.6       1.4       0.1
 0 C  py              0.6       0.9       1.2       2.0       0.2       1.0
 0 C  dz2             7.2       7.8       0.0       0.7       0.3       0.1
 0 C  dx2y2           0.1       1.5      26.8       1.3       2.1       0.0
 0 C  dxy             4.1       9.9       0.3       5.9       4.6      14.1
 1 C  s               0.1       3.6       0.0       1.4       1.0       0.0
 1 C  px              0.2       1.8       2.5       0.9       1.2       0.2
 1 C  py              0.8       1.5       0.6       1.6       0.4       0.9
 1 C  dz2             7.3       7.8       0.0       0.7       0.3       0.1
 1 C  dx2y2           0.3       5.7      20.6       0.0       4.8       2.3
 1 C  dxy             3.9       5.7       6.4       7.3       1.9      11.8
 2 C  s               2.1       1.5       2.2       0.1       1.3       0.1
 2 C  px              1.4       0.1       0.6       1.3       1.3       0.3
 2 C  py              0.3       0.1       1.5       0.6       0.1       2.5
 2 C  dz2             8.4       6.7       2.6       0.0       1.6       0.0
 2 C  dx2y2           2.2       1.7       7.2      26.2       0.8       1.0
 2 C  dxy             0.3       3.9       3.7       2.1      20.6       5.2
 3 N  s               0.8       5.9       1.1       0.0       0.0       0.9
 3 N  px              0.1       0.1       0.0       2.1       7.8       0.1
 3 N  py              5.9       7.8       1.1       0.0       0.1       6.2
 3 N  dz2            25.1       0.2       0.0       0.0       0.0       0.0
 3 N  dx2y2           0.0       0.7       0.8       0.3       0.6      27.9
 3 N  dxy             0.0       0.0       0.0       6.2      15.0       1.2
 4 C  s               2.1       1.5       2.3       0.1       1.3       0.1
 4 C  px              1.5       0.1       0.9       1.1       1.2       0.0
 4 C  py              0.2       0.1       1.2       0.8       0.2       2.7
 4 C  dz2             8.4       6.7       2.6       0.0       1.6       0.0
 4 C  dx2y2           2.5       3.9       2.8      27.9       1.0       3.3
 4 C  dxy             0.0       1.6       8.1       0.5      20.4       2.9
 5 H  s               0.6       0.1       0.2       2.5       1.6       0.8
 6 H  s               3.1       1.5       0.0       0.9       1.2       2.1
 7 H  s               3.1       1.5       0.0       0.9       1.2       2.1
 8 H  s               0.6       0.1       0.2       2.5       1.6       0.8
 9 H  s               6.3       1.7       0.6       0.0       0.0       9.1

                     66        67        68        69        70        71   
                   2.22133   2.24763   2.26405   2.27182   2.33865   2.34638
                   0.00000   0.00000   0.00000   0.00000   0.00000   0.00000
                  --------  --------  --------  --------  --------  --------
 0 C  s               0.0       0.0       2.3       3.4       0.0       0.0
 0 C  pz              0.4       0.5       0.0       0.0       1.7       0.3
 0 C  px              0.0       0.0       0.2       1.4       0.0       0.0
 0 C  py              0.0       0.0       1.9       0.5       0.0       0.0
 0 C  dz2             0.0       0.0       8.5      17.8       0.0       0.0
 0 C  dxz            23.1       1.2       0.0       0.0      15.2       0.0
 0 C  dyz             3.0      13.6       0.0       0.0      15.6       7.5
 0 C  dx2y2           0.0       0.0       2.4       0.8       0.0       0.0
 0 C  dxy             0.0       0.0       0.2       1.1       0.0       0.0
 1 C  s               0.0       0.0       2.3       3.4       0.0       0.0
 1 C  pz              0.4       0.5       0.0       0.0       1.7       0.3
 1 C  px              0.0       0.0       0.0       1.1       0.0       0.0
 1 C  py              0.0       0.0       2.0       0.9       0.0       0.0
 1 C  dz2             0.0       0.0       8.4      17.9       0.0       0.0
 1 C  dxz            25.5       3.3       0.0       0.0       9.1       0.3
 1 C  dyz             0.5      11.5       0.0       0.0      21.7       7.2
 1 C  dx2y2           0.0       0.0       2.5       0.2       0.0       0.0
 1 C  dxy             0.0       0.0       0.1       1.7       0.0       0.0
 2 C  s               0.0       0.0       5.0       0.9       0.0       0.0
 2 C  pz              0.7       0.0       0.0       0.0       0.9       1.4
 2 C  px              0.0       0.0       2.1       0.5       0.0       0.0
 2 C  py              0.0       0.0       1.2       0.3       0.0       0.0
 2 C  dz2             0.0       0.0      23.0       5.5       0.0       0.0
 2 C  dxz             7.7       4.0       0.0       0.0       8.6      22.4
 2 C  dyz             0.6      25.8       0.0       0.0       5.9       2.3
 2 C  dx2y2           0.0       0.0       0.0       3.1       0.0       0.0
 2 C  dxy             0.0       0.0       0.9       2.6       0.0       0.0
 3 N  s               0.0       0.0       0.0       7.0       0.0       0.0
 3 N  pz              0.0       1.4       0.0       0.0       0.0       2.7
 3 N  px              0.0       0.0       0.6       0.1       0.0       0.0
 3 N  py              0.0       0.0       0.0       5.3       0.0       0.0
 3 N  dz2             0.0       0.0       0.0       8.7       0.0       0.0
 3 N  dxz            29.0       0.1       0.0       0.0       4.3       0.3
 3 N  dyz             0.3       8.3       0.0       0.0       0.0      29.3
 3 N  dx2y2           0.0       0.0       0.0       0.3       0.0       0.0
 3 N  dxy             0.0       0.0       1.0       0.0       0.0       0.0
 4 C  s               0.0       0.0       5.0       0.9       0.0       0.0
 4 C  pz              0.7       0.0       0.0       0.0       0.9       1.4
 4 C  px              0.0       0.0       2.7       0.3       0.0       0.0
 4 C  py              0.0       0.0       0.6       0.4       0.0       0.0
 4 C  dz2             0.0       0.0      23.1       5.4       0.0       0.0
 4 C  dxz             6.6       0.9       0.0       0.0      11.3      24.4
 4 C  dyz             1.7      28.9       0.0       0.0       3.2       0.3
 4 C  dx2y2           0.0       0.0       0.2       1.0       0.0       0.0
 4 C  dxy             0.0       0.0       0.7       4.8       0.0       0.0
 5 H  s               0.0       0.0       1.3       0.1       0.0       0.0
 6 H  s               0.0       0.0       0.5       1.2       0.0       0.0
 7 H  s               0.0       0.0       0.4       1.2       0.0       0.0
 8 H  s               0.0       0.0       1.3       0.1       0.0       0.0
 9 H  s               0.0       0.0       0.0       0.3       0.0       0.0

                     72        73        74        75        76        77   
                   2.56397   2.60977   2.64345   2.70198   2.70410   2.97359
                   0.00000   0.00000   0.00000   0.00000   0.00000   0.00000
                  --------  --------  --------  --------  --------  --------
 0 C  s               0.0       0.0       8.8       3.2       0.4       0.1
 0 C  px              0.0       0.0       1.3       0.0       1.6       2.0
 0 C  py              0.0       0.1       0.5       3.2       0.3       1.6
 0 C  dz2             0.0       0.1      25.8       3.9       0.0       0.0
 0 C  dxz             9.8       0.0       0.0       0.0       0.0       0.0
 0 C  dyz             9.6       0.0       0.0       0.0       0.0       0.0
 0 C  dx2y2           0.0       0.0       1.2      10.2      15.2      13.0
 0 C  dxy             0.0       0.3       0.0       0.1       0.2       6.7
 1 C  s               0.0       0.0       8.9       3.3       0.3       0.1
 1 C  px              0.0       0.0       0.9       0.2       1.9       2.7
 1 C  py              0.0       0.1       0.9       2.9       0.1       0.9
 1 C  dz2             0.0       0.2      25.9       3.9       0.0       0.0
 1 C  dxz            13.7       0.0       0.0       0.0       0.0       0.0
 1 C  dyz             5.7       0.0       0.0       0.0       0.0       0.0
 1 C  dx2y2           0.0       0.1       1.0       7.6      11.8       5.2
 1 C  dxy             0.0       0.3       0.2       2.2       4.1      14.5
 2 C  s               0.0       3.5       1.9       1.7       5.6       0.0
 2 C  px              0.0       1.5       0.0       0.1       2.6       0.8
 2 C  py              0.0       0.3       0.7       3.0       0.1       3.7
 2 C  dz2             0.0      12.4       7.0       3.0       3.6       0.0
 2 C  dxz             3.6       0.0       0.0       0.0       0.0       0.0
 2 C  dyz            17.3       0.0       0.0       0.0       0.0       0.0
 2 C  dx2y2           0.0       1.1       1.0      12.4       1.2      11.3
 2 C  dxy             0.0       0.9       0.5       7.5       0.5       1.3
 3 N  s               0.0      18.5       0.0       1.4       0.0       0.0
 3 N  px              0.0       0.0       0.1       0.0       5.0       3.1
 3 N  py              0.0       2.3       0.0       1.0       0.0       0.0
 3 N  dz2             0.0      35.5       0.0       0.1       0.0       0.0
 3 N  dxz            19.4       0.0       0.0       0.0       0.0       0.0
 3 N  dyz             0.2       0.0       0.0       0.0       0.0       0.0
 3 N  dx2y2           0.0       0.1       0.0       0.4       1.3       0.6
 3 N  dxy             0.0       0.0       0.0       0.0      30.3      14.1
 4 C  s               0.0       3.5       1.9       1.6       5.8       0.0
 4 C  px              0.0       1.2       0.1       0.1       2.5       0.3
 4 C  py              0.0       0.6       0.6       2.9       0.1       4.3
 4 C  dz2             0.0      12.5       7.0       2.9       3.8       0.0
 4 C  dxz             1.0       0.0       0.0       0.0       0.0       0.0
 4 C  dyz            19.8       0.0       0.0       0.0       0.0       0.0
 4 C  dx2y2           0.0       0.3       0.4       4.6       0.5       6.9
 4 C  dxy             0.0       1.6       1.1      15.5       1.0       5.7
 5 H  s               0.0       0.5       0.2       0.2       0.2       0.0
 6 H  s               0.0       0.0       0.8       0.2       0.0       0.4
 7 H  s               0.0       0.0       0.8       0.2       0.0       0.4
 8 H  s               0.0       0.5       0.2       0.2       0.2       0.0
 9 H  s               0.0       1.7       0.0       0.1       0.0       0.0

                     78        79   
                   3.01153   3.02262
                   0.00000   0.00000
                  --------  --------
 0 C  s               0.1       0.0
 0 C  px              0.5       0.3
 0 C  py              0.4       0.1
 0 C  dx2y2           3.7       0.6
 0 C  dxy            26.0       3.3
 1 C  s               0.1       0.0
 1 C  px              0.7       0.3
 1 C  py              0.2       0.1
 1 C  dx2y2          14.4       2.0
 1 C  dxy            15.3       1.8
 2 C  s               0.1       0.1
 2 C  py              0.2       0.3
 2 C  dx2y2           0.5       9.6
 2 C  dxy            13.9      13.6
 3 N  s               0.0       0.1
 3 N  px              1.7       0.0
 3 N  dx2y2           0.0      34.9
 3 N  dxy             1.1       1.5
 4 C  s               0.1       0.1
 4 C  py              0.2       0.3
 4 C  dx2y2           4.6      18.5
 4 C  dxy             9.9       4.6
 5 H  s               1.0       1.7
 6 H  s               2.0       0.2
 7 H  s               2.1       0.2
 8 H  s               1.0       1.7
 9 H  s               0.0       3.9


                      *****************************
                      * MAYER POPULATION ANALYSIS *
                      *****************************

  NA   - Mulliken gross atomic population
  ZA   - Total nuclear charge
  QA   - Mulliken gross atomic charge
  VA   - Mayer's total valence
  BVA  - Mayer's bonded valence
  FA   - Mayer's free valence

  ATOM       NA         ZA         QA         VA         BVA        FA
  0 C      6.1716     6.0000    -0.1716     3.9798     3.9798    -0.0000
  1 C      6.1706     6.0000    -0.1706     3.9795     3.9795    -0.0000
  2 C      5.9840     6.0000     0.0160     3.7920     3.7920    -0.0000
  3 N      7.5275     7.0000    -0.5275     3.2771     3.2771     0.0000
  4 C      5.9850     6.0000     0.0150     3.7915     3.7915     0.0000
  5 H      0.8638     1.0000     0.1362     0.9381     0.9381    -0.0000
  6 H      0.8807     1.0000     0.1193     0.9426     0.9426    -0.0000
  7 H      0.8814     1.0000     0.1186     0.9427     0.9427     0.0000
  8 H      0.8632     1.0000     0.1368     0.9379     0.9379     0.0000
  9 H      0.6723     1.0000     0.3277     0.8588     0.8588    -0.0000

  Mayer bond orders larger than 0.1
B(  0-C ,  1-C ) :   1.3704 B(  0-C ,  2-C ) :   1.5826 B(  0-C ,  6-H ) :   0.9384 
B(  1-C ,  4-C ) :   1.5823 B(  1-C ,  7-H ) :   0.9386 B(  2-C ,  3-N ) :   1.1499 
B(  2-C ,  4-C ) :   0.1070 B(  2-C ,  5-H ) :   0.9337 B(  3-N ,  4-C ) :   1.1498 
B(  3-N ,  9-H ) :   0.8396 B(  4-C ,  8-H ) :   0.9336 

-------
TIMINGS
-------

Total SCF time: 0 days 0 hours 0 min 6 sec 

Total time                  ....       6.848 sec
Sum of individual times     ....       6.560 sec  ( 95.8%)

Fock matrix formation       ....       5.531 sec  ( 80.8%)
  XC integration            ....       1.285 sec  ( 23.2% of F)
    Basis function eval.    ....       0.494 sec  ( 38.4% of XC)
    Density eval.           ....       0.301 sec  ( 23.4% of XC)
    XC-Functional eval.     ....       0.121 sec  (  9.4% of XC)
    XC-Potential eval.      ....       0.288 sec  ( 22.4% of XC)
Diagonalization             ....       0.001 sec  (  0.0%)
Density matrix formation    ....       0.000 sec  (  0.0%)
Population analysis         ....       0.017 sec  (  0.2%)
Initial guess               ....       0.010 sec  (  0.1%)
Orbital Transformation      ....       0.000 sec  (  0.0%)
Orbital Orthonormalization  ....       0.001 sec  (  0.0%)
DIIS solution               ....       0.000 sec  (  0.0%)
SOSCF solution              ....       0.004 sec  (  0.1%)
Grid generation             ....       0.996 sec  ( 14.5%)

-------------------------   --------------------
FINAL SINGLE POINT ENERGY      -210.029076657990
-------------------------   --------------------

                                *** OPTIMIZATION RUN DONE ***

                            ***************************************
                            *     ORCA property calculations      *
                            ***************************************

                                    ---------------------
                                    Active property flags
                                    ---------------------
   (+) Dipole Moment


------------------------------------------------------------------------------
                       ORCA ELECTRIC PROPERTIES CALCULATION
------------------------------------------------------------------------------

Dipole Moment Calculation                       ... on
Quadrupole Moment Calculation                   ... off
Polarizability Calculation                      ... off
GBWName                                         ... /Users/lailaal-madhagi/Desktop/Testing_XAS_Analysis_code/Pyrrole//Results_dir_Pyrrole_geom_element_N_2019-11-28_02-54-11//GTE1_Pyrrole_geom_2019-11-28_02-54-20//opt.gbw
Electron density file                           ... /Users/lailaal-madhagi/Desktop/Testing_XAS_Analysis_code/Pyrrole//Results_dir_Pyrrole_geom_element_N_2019-11-28_02-54-11//GTE1_Pyrrole_geom_2019-11-28_02-54-20//opt.scfp.tmp
The origin for moment calculation is the CENTER OF MASS  = (-3.340799, -0.006281  0.000000)

-------------
DIPOLE MOMENT
-------------
                                X             Y             Z
Electronic contribution:      0.07951      -0.77436      -0.00000
Nuclear contribution   :     -0.00272       0.02590      -0.00000
                        -----------------------------------------
Total Dipole Moment    :      0.07678      -0.74846      -0.00000
                        -----------------------------------------
Magnitude (a.u.)       :      0.75239
Magnitude (Debye)      :      1.91242



--------------------
Rotational spectrum 
--------------------
 
Rotational constants in cm-1:     0.304240     0.299818     0.151006 
Rotational constants in MHz :  9120.893140  8988.318411  4527.060248 

 Dipole components along the rotational axes: 
x,y,z [a.u.] :    -0.752386    -0.001147    -0.000000 
x,y,z [Debye]:    -1.912414    -0.002915    -0.000000 

 

Timings for individual modules:

Sum of individual times         ...      113.254 sec (=   1.888 min)
GTO integral calculation        ...        3.925 sec (=   0.065 min)   3.5 %
SCF iterations                  ...       72.228 sec (=   1.204 min)  63.8 %
SCF Gradient evaluation         ...       35.492 sec (=   0.592 min)  31.3 %
Geometry relaxation             ...        1.609 sec (=   0.027 min)   1.4 %
                             ****ORCA TERMINATED NORMALLY****
TOTAL RUN TIME: 0 days 0 hours 1 minutes 54 seconds 532 msec
