12
	Energy:       5.3370617
O         -2.82082       -0.18547        0.20633
C         -1.72260        0.61035        0.21770
O         -0.51473        0.06116       -0.06339
O         -1.81988        1.80382        0.47722
C         -4.09725        0.26089        0.47582
H         -4.80445       -0.59031        0.39865
H         -4.39364        1.04004       -0.25877
H         -4.14842        0.67638        1.50504
C          0.66750        0.77048       -0.08154
H          1.50004        0.08394       -0.33875
H          0.86432        1.21259        0.91863
H          0.61915        1.57609       -0.84522
