
                                 *****************
                                 * O   R   C   A *
                                 *****************

           --- An Ab Initio, DFT and Semiempirical electronic structure package ---

                  #######################################################
                  #                        -***-                        #
                  #          Department of theory and spectroscopy      #
                  #               Directorship: Frank Neese             #
                  #        Max Planck Institute fuer Kohlenforschung    #
                  #                Kaiser Wilhelm Platz 1               #
                  #                 D-45470 Muelheim/Ruhr               #
                  #                      Germany                        #
                  #                                                     #
                  #                  All rights reserved                #
                  #                        -***-                        #
                  #######################################################


                         Program Version 4.1.0  - RELEASE  -


 With contributions from (in alphabetic order):
   Daniel Aravena         : Magnetic Properties
   Michael Atanasov       : Ab Initio Ligand Field Theory
   Alexander A. Auer      : GIAO ZORA
   Ute Becker             : Parallelization
   Giovanni Bistoni       : ED, Open-shell LED
   Martin Brehm           : Molecular dynamics
   Dmytro Bykov           : SCF Hessian
   Vijay G. Chilkuri      : MRCI spin determinant printing
   Dipayan Datta          : RHF DLPNO-CCSD density
   Achintya Kumar Dutta   : EOM-CC, STEOM-CC
   Dmitry Ganyushin       : Spin-Orbit,Spin-Spin,Magnetic field MRCI
   Miquel Garcia          : C-PCM Hessian
   Yang Guo               : DLPNO-NEVPT2, CIM, IAO-localization
   Andreas Hansen         : Spin unrestricted coupled pair/coupled cluster methods
   Benjamin Helmich-Paris : CASSCF linear response (MC-RPA)
   Lee Huntington         : MR-EOM, pCC
   Robert Izsak           : Overlap fitted RIJCOSX, COSX-SCS-MP3, EOM
   Christian Kollmar      : KDIIS, OOCD, Brueckner-CCSD(T), CCSD density
   Simone Kossmann        : Meta GGA functionals, TD-DFT gradient, OOMP2, MP2 Hessian
   Martin Krupicka        : AUTO-CI
   Lucas Lang             : DCDCAS
   Dagmar Lenk            : GEPOL surface, SMD
   Dimitrios Liakos       : Extrapolation schemes; parallel MDCI
   Dimitrios Manganas     : ROCIS; embedding schemes
   Dimitrios Pantazis     : SARC Basis sets
   Taras Petrenko         : DFT Hessian,TD-DFT gradient, ASA, ECA, R-Raman, ABS, FL, XAS/XES, NRVS
   Peter Pinski           : DLPNO-MP2, DLPNO-MP2 Gradient
   Christoph Reimann      : Effective Core Potentials
   Marius Retegan         : Local ZFS, SOC
   Christoph Riplinger    : Optimizer, TS searches, QM/MM, DLPNO-CCSD(T), (RO)-DLPNO pert. Triples
   Tobias Risthaus        : Range-separated hybrids, TD-DFT gradient, RPA, STAB
   Michael Roemelt        : Restricted open shell CIS
   Masaaki Saitow         : Open-shell DLPNO
   Barbara Sandhoefer     : DKH picture change effects
   Avijit Sen             : IP-ROCIS
   Kantharuban Sivalingam : CASSCF convergence, NEVPT2, FIC-MRCI
   Bernardo de Souza      : ESD, SOC TD-DFT
   Georgi Stoychev        : AutoAux, RI-MP2 NMR
   Willem Van den Heuvel  : Paramagnetic NMR
   Boris Wezisla          : Elementary symmetry handling
   Frank Wennmohs         : Technical directorship


 We gratefully acknowledge several colleagues who have allowed us to
 interface, adapt or use parts of their codes:
   Stefan Grimme, W. Hujo, H. Kruse,             : VdW corrections, initial TS optimization,
                  C. Bannwarth                     DFT functionals, gCP, sTDA/sTD-DF
   Ed Valeev                                     : LibInt (2-el integral package), F12 methods
   Garnet Chan, S. Sharma, J. Yang, R. Olivares  : DMRG
   Ulf Ekstrom                                   : XCFun DFT Library
   Mihaly Kallay                                 : mrcc  (arbitrary order and MRCC methods)
   Andreas Klamt, Michael Diedenhofen            : otool_cosmo (COSMO solvation model)
   Jiri Pittner, Ondrej Demel                    : Mk-CCSD
   Frank Weinhold                                : gennbo (NPA and NBO analysis)
   Christopher J. Cramer and Donald G. Truhlar   : smd solvation model
   Lars Goerigk                                  : TD-DFT with DH, B97 family of functionals
   V. Asgeirsson, H. Jonsson                     : NEB implementation
   FAccTs GmbH                                   : IRC, NEB, NEB-TS, Multilevel


 Your calculation uses the libint2 library for the computation of 2-el integrals
 For citations please refer to: http://libint.valeyev.net

 This ORCA versions uses:
   CBLAS   interface :  Fast vector & matrix operations
   LAPACKE interface :  Fast linear algebra routines
   SCALAPACK package :  Parallel linear algebra routines




***************************************
The coordinates will be read from file: /Users/lailaal-madhagi/Desktop/Testing_XAS_Analysis_code/AceticAcid//Results_dir_AceticAcid_geom_element_O_2019-11-03_20-05-49//GTE1_AceticAcid_geom_2019-11-03_20-06-00//opt.xyz
***************************************


----- Orbital basis set information -----
Your calculation utilizes the basis: 6-31G*
   H-He, Li-Ne : W. J. Hehre, R. Ditchfield and J.A. Pople, J. Chem. Phys. 56, 2257 (1972).
                 Note: He and Ne are unpublished basis sets taken from the Gaussian program.
                 Note: Li and B from J. D. Dill and J. A. Pople, J. Chem. Phys. 62, 2921 (1975).
   Na - Ar     : M. M. Francl, W. J. Pietro, W. J. Hehre, J. S. Binkley, M. S. Gordon, 
                 D. J. DeFrees and J. A. Pople, J. Chem. Phys. 77, 3654 (1982).
   K - Zn      : V. A. Rassolov, J. A. Pople, M. A. Ratner, and T. L. Windus, J. Chem. Phys. 109, 1223 (1998).

================================================================================
                                        WARNINGS
                       Please study these warnings very carefully!
================================================================================

INFO   : Checking CIS options ...

WARNING: CIS/ROCIS methods need fully converged wavefunctions
  ===> : Setting SCFConvForced true
         You can overwrite this default with %scf ConvForced false 


INFO   : the flag for use of LIBINT has been found!

================================================================================
                                       INPUT FILE
================================================================================
NAME = /Users/lailaal-madhagi/Desktop/Testing_XAS_Analysis_code/AceticAcid//Results_dir_AceticAcid_geom_element_O_2019-11-03_20-05-49//GTE1_AceticAcid_geom_2019-11-03_20-06-00//TDDFT_O-edge.inp
|  1> #This is O K-edge calculation 
|  2> ! B3LYP 6-31G* TIGHTSCF Grid3 FinalGrid5 
|  3> !NormalPrint 
|  4> %output 
|  5> Print[P_Basis] 2 
|  6> Print[P_MOS] 1 
|  7> end 
|  8> 
|  9> %tddft 
| 10> orbwin[0]=0,1,-1,-1 
| 11> nroots=20 
| 12> maxdim=200 
| 13> end 
| 14> *xyzfile 0 1 /Users/lailaal-madhagi/Desktop/Testing_XAS_Analysis_code/AceticAcid//Results_dir_AceticAcid_geom_element_O_2019-11-03_20-05-49//GTE1_AceticAcid_geom_2019-11-03_20-06-00//opt.xyz                           ****END OF INPUT****
================================================================================

                       ****************************
                       * Single Point Calculation *
                       ****************************

---------------------------------
CARTESIAN COORDINATES (ANGSTROEM)
---------------------------------
  C     -3.784133   -0.110931    0.005576
  C     -2.307535    0.265775   -0.010335
  H     -4.278944    0.450290    0.804448
  H     -3.978929   -1.178631    0.151055
  H     -4.234852    0.204299   -0.940722
  O     -1.916194    1.394804   -0.159638
  O     -1.415595   -0.749841    0.156322
  H     -1.881339   -1.594225    0.264034

----------------------------
CARTESIAN COORDINATES (A.U.)
----------------------------
  NO LB      ZA    FRAG     MASS         X           Y           Z
   0 C     6.0000    0    12.011   -7.150974   -0.209629    0.010537
   1 C     6.0000    0    12.011   -4.360609    0.502242   -0.019531
   2 H     1.0000    0     1.008   -8.086032    0.850924    1.520186
   3 H     1.0000    0     1.008   -7.519086   -2.227290    0.285452
   4 H     1.0000    0     1.008   -8.002710    0.386070   -1.777706
   5 O     8.0000    0    15.999   -3.621082    2.635797   -0.301672
   6 O     8.0000    0    15.999   -2.675087   -1.416994    0.295405
   7 H     1.0000    0     1.008   -3.555215   -3.012649    0.498953

--------------------------------
INTERNAL COORDINATES (ANGSTROEM)
--------------------------------
 C      0   0   0     0.000000000000     0.00000000     0.00000000
 C      1   0   0     1.523975515865     0.00000000     0.00000000
 H      1   2   0     1.094533002125   108.59622628     0.00000000
 H      1   2   3     1.095031142256   114.50448092   238.17074714
 H      1   2   3     1.094530459501   108.58871076   116.35812276
 O      2   1   3     1.204219519756   123.22431768   301.82189094
 O      2   1   3     1.361912686413   116.67605420   121.77444352
 H      7   2   1     0.970311286419   110.37571609     0.00000000

---------------------------
INTERNAL COORDINATES (A.U.)
---------------------------
 C      0   0   0     0.000000000000     0.00000000     0.00000000
 C      1   0   0     2.879896359787     0.00000000     0.00000000
 H      1   2   0     2.068367618555   108.59622628     0.00000000
 H      1   2   3     2.069308966979   114.50448092   238.17074714
 H      1   2   3     2.068362813691   108.58871076   116.35812276
 O      2   1   3     2.275645097461   123.22431768   301.82189094
 O      2   1   3     2.573641995634   116.67605420   121.77444352
 H      7   2   1     1.833622595985   110.37571609     0.00000000

---------------------
BASIS SET INFORMATION
---------------------
There are 3 groups of distinct atoms

 Group   1 Type C   : 10s4p1d contracted to 3s2p1d pattern {631/31/1}
 Group   2 Type H   : 4s contracted to 2s pattern {31}
 Group   3 Type O   : 10s4p1d contracted to 3s2p1d pattern {631/31/1}

Atom   0C    basis set group =>   1
Atom   1C    basis set group =>   1
Atom   2H    basis set group =>   2
Atom   3H    basis set group =>   2
Atom   4H    basis set group =>   2
Atom   5O    basis set group =>   3
Atom   6O    basis set group =>   3
Atom   7H    basis set group =>   2

-------------------------
BASIS SET IN INPUT FORMAT
-------------------------

 # Basis set for element : H 
 NewGTO H 
 S 3 
   1      18.7311370000      0.0334945995
   2       2.8253937000      0.2347269467
   3       0.6401217000      0.8137573184
 S 1 
   1       0.1612778000      1.0000000000
  end;

 # Basis set for element : C 
 NewGTO C 
 S 6 
   1    3047.5249000000      0.0018347002
   2     457.3695100000      0.0140373012
   3     103.9486900000      0.0688426061
   4      29.2101550000      0.2321844206
   5       9.2866630000      0.4679413416
   6       3.1639270000      0.3623120322
 S 3 
   1       7.8682724000     -0.1193324086
   2       1.8812885000     -0.1608542116
   3       0.5442493000      1.1434564826
 P 3 
   1       7.8682724000      0.0689990956
   2       1.8812885000      0.3164239798
   3       0.5442493000      0.7443082524
 S 1 
   1       0.1687144000      1.0000000000
 P 1 
   1       0.1687144000      1.0000000000
 D 1 
   1       0.8000000000      1.0000000000
  end;

 # Basis set for element : O 
 NewGTO O 
 S 6 
   1    5484.6717000000      0.0018310998
   2     825.2349500000      0.0139500985
   3     188.0469600000      0.0684450927
   4      52.9645000000      0.2327142753
   5      16.8975700000      0.4701929501
   6       5.7996353000      0.3585208619
 S 3 
   1      15.5396160000     -0.1107775038
   2       3.5999336000     -0.1480263051
   3       1.0137618000      1.1307670390
 P 3 
   1      15.5396160000      0.0708742995
   2       3.5999336000      0.3397527978
   3       1.0137618000      0.7271585953
 S 1 
   1       0.2700058000      1.0000000000
 P 1 
   1       0.2700058000      1.0000000000
 D 1 
   1       0.8000000000      1.0000000000
  end;

------------------------------------------------------------------------------
                           ORCA GTO INTEGRAL CALCULATION
------------------------------------------------------------------------------

                         BASIS SET STATISTICS AND STARTUP INFO

 # of primitive gaussian shells          ...   76
 # of primitive gaussian functions       ...  124
 # of contracted shells                  ...   32
 # of contracted basis functions         ...   64
 Highest angular momentum                ...    2
 Maximum contraction depth               ...    6
 Integral package used                   ... LIBINT
 Integral threshhold            Thresh   ...  2.500e-11
 Primitive cut-off              TCut     ...  2.500e-12


------------------------------ INTEGRAL EVALUATION ----------------------------


 * One electron integrals 
 Pre-screening matrix                    ... done
 Shell pair data                         ... done (   0.000 sec)

-------------------------------------------------------------------------------
                                 ORCA SCF
-------------------------------------------------------------------------------

------------
SCF SETTINGS
------------
Hamiltonian:
 Density Functional     Method          .... DFT(GTOs)
 Exchange Functional    Exchange        .... B88
   X-Alpha parameter    XAlpha          ....  0.666667
   Becke's b parameter  XBeta           ....  0.004200
 Correlation Functional Correlation     .... LYP
 LDA part of GGA corr.  LDAOpt          .... VWN-5
 Gradients option       PostSCFGGA      .... off
 Hybrid DFT is turned on
   Fraction HF Exchange ScalHFX         ....  0.200000
   Scaling of DF-GGA-X  ScalDFX         ....  0.720000
   Scaling of DF-GGA-C  ScalDFC         ....  0.810000
   Scaling of DF-LDA-C  ScalLDAC        ....  1.000000
   Perturbative correction              ....  0.000000
   Density functional embedding theory  .... OFF
   NL short-range parameter             ....  4.800000


General Settings:
 Integral files         IntName         .... /Users/lailaal-madhagi/Desktop/Testing_XAS_Analysis_code/AceticAcid//Results_dir_AceticAcid_geom_element_O_2019-11-03_20-05-49//GTE1_AceticAcid_geom_2019-11-03_20-06-00//TDDFT_O-edge
 Hartree-Fock type      HFTyp           .... RHF
 Total Charge           Charge          ....    0
 Multiplicity           Mult            ....    1
 Number of Electrons    NEL             ....   32
 Basis Dimension        Dim             ....   64
 Nuclear Repulsion      ENuc            ....    120.3444744669 Eh

Convergence Acceleration:
 DIIS                   CNVDIIS         .... on
   Start iteration      DIISMaxIt       ....    12
   Startup error        DIISStart       ....  0.200000
   # of expansion vecs  DIISMaxEq       ....     5
   Bias factor          DIISBfac        ....   1.050
   Max. coefficient     DIISMaxC        ....  10.000
 Newton-Raphson         CNVNR           .... off
 SOSCF                  CNVSOSCF        .... on
   Start iteration      SOSCFMaxIt      ....   150
   Startup grad/error   SOSCFStart      ....  0.003300
 Level Shifting         CNVShift        .... on
   Level shift para.    LevelShift      ....    0.2500
   Turn off err/grad.   ShiftErr        ....    0.0010
 Zerner damping         CNVZerner       .... off
 Static damping         CNVDamp         .... on
   Fraction old density DampFac         ....    0.7000
   Max. Damping (<1)    DampMax         ....    0.9800
   Min. Damping (>=0)   DampMin         ....    0.0000
   Turn off err/grad.   DampErr         ....    0.1000
 Fernandez-Rico         CNVRico         .... off

SCF Procedure:
 Maximum # iterations   MaxIter         ....   125
 SCF integral mode      SCFMode         .... Direct
   Integral package                     .... LIBINT
 Reset frequency        DirectResetFreq ....    20
 Integral Threshold     Thresh          ....  2.500e-11 Eh
 Primitive CutOff       TCut            ....  2.500e-12 Eh

Convergence Tolerance:
 Convergence Check Mode ConvCheckMode   .... Total+1el-Energy
 Convergence forced     ConvForced      .... 1
 Energy Change          TolE            ....  1.000e-08 Eh
 1-El. energy change                    ....  1.000e-05 Eh
 Orbital Gradient       TolG            ....  1.000e-05
 Orbital Rotation angle TolX            ....  1.000e-05
 DIIS Error             TolErr          ....  5.000e-07


Diagonalization of the overlap matrix:
Smallest eigenvalue                        ... 6.749e-03
Time for diagonalization                   ...    0.001 sec
Threshold for overlap eigenvalues          ... 1.000e-08
Number of eigenvalues below threshold      ... 0
Time for construction of square roots      ...    0.000 sec
Total time needed                          ...    0.001 sec

-------------------
DFT GRID GENERATION
-------------------

General Integration Accuracy     IntAcc      ...  4.340
Radial Grid Type                 RadialGrid  ... Gauss-Chebyshev
Angular Grid (max. acc.)         AngularGrid ... Lebedev-194
Angular grid pruning method      GridPruning ... 3 (G Style)
Weight generation scheme         WeightScheme... Becke
Basis function cutoff            BFCut       ...    1.0000e-11
Integration weight cutoff        WCut        ...    1.0000e-14
Grids for H and He will be reduced by one unit

# of grid points (after initial pruning)     ...  19384 (   0.0 sec)
# of grid points (after weights+screening)   ...  18573 (   0.0 sec)
nearest neighbour list constructed           ...    0.0 sec
Grid point re-assignment to atoms done       ...    0.0 sec
Grid point division into batches done        ...    0.0 sec
Reduced shell lists constructed in    0.1 sec

Total number of grid points                  ...    18573
Total number of batches                      ...      294
Average number of points per batch           ...       63
Average number of grid points per atom       ...     2322
Average number of shells per batch           ...    25.29 (79.05%)
Average number of basis functions per batch  ...    52.30 (81.72%)
Average number of large shells per batch     ...    21.61 (85.43%)
Average number of large basis fcns per batch ...    44.76 (85.58%)
Maximum spatial batch extension              ...  17.64, 18.67, 21.24 au
Average spatial batch extension              ...   3.44,  3.46,  3.51 au

Time for grid setup =    0.092 sec

------------------------------
INITIAL GUESS: MODEL POTENTIAL
------------------------------
Loading Hartree-Fock densities                     ... done
Calculating cut-offs                               ... done
Setting up the integral package                    ... done
Initializing the effective Hamiltonian             ... done
Starting the Coulomb interaction                   ... done (   0.0 sec)
Reading the grid                                   ... done
Mapping shells                                     ... done
Starting the XC term evaluation                    ... done (   0.1 sec)
  promolecular density results
     # of electrons  =     31.998003805
     EX              =    -27.849078422
     EC              =     -1.096030438
     EX+EC           =    -28.945108861
Transforming the Hamiltonian                       ... done (   0.0 sec)
Diagonalizing the Hamiltonian                      ... done (   0.0 sec)
Back transforming the eigenvectors                 ... done (   0.0 sec)
Now organizing SCF variables                       ... done
                      ------------------
                      INITIAL GUESS DONE (   0.3 sec)
                      ------------------
--------------
SCF ITERATIONS
--------------
               ***  Starting incremental Fock matrix formation  ***

                         ----------------------------
                         !        ITERATION     0   !
                         ----------------------------
   Total Energy        :    -228.756484343352 Eh
   Energy Change       :    -228.756484343352 Eh
   MAX-DP              :       0.108576055777
   RMS-DP              :       0.005279256330
   Actual Damping      :       0.7000
   Actual Level Shift  :       0.2500 Eh
   Int. Num. El.       :    31.99998211 (UP=   15.99999105 DN=   15.99999105)
   Exchange            :   -22.91211790
   Correlation         :    -1.31254398


                         ----------------------------
                         !        ITERATION     1   !
                         ----------------------------
   Total Energy        :    -228.850335828326 Eh
   Energy Change       :      -0.093851484974 Eh
   MAX-DP              :       0.062879542498
   RMS-DP              :       0.003221770116
   Actual Damping      :       0.7000
   Actual Level Shift  :       0.2500 Eh
   Int. Num. El.       :    31.99998141 (UP=   15.99999071 DN=   15.99999071)
   Exchange            :   -22.66980693
   Correlation         :    -1.30502534

                               ***Turning on DIIS***

                         ----------------------------
                         !        ITERATION     2   !
                         ----------------------------
   Total Energy        :    -228.881521662484 Eh
   Energy Change       :      -0.031185834158 Eh
   MAX-DP              :       0.068456788287
   RMS-DP              :       0.004316974996
   Actual Damping      :       0.0000
   Actual Level Shift  :       0.2500 Eh
   Int. Num. El.       :    31.99997980 (UP=   15.99998990 DN=   15.99998990)
   Exchange            :   -22.53255098
   Correlation         :    -1.30031317
   DIIS-Error          :       0.040248689978


                         ----------------------------
                         !        ITERATION     3   !
                         ----------------------------
   Total Energy        :    -228.936710279978 Eh
   Energy Change       :      -0.055188617494 Eh
   MAX-DP              :       0.040380196876
   RMS-DP              :       0.002224902831
   Actual Damping      :       0.0000
   Actual Level Shift  :       0.2500 Eh
   Int. Num. El.       :    31.99997769 (UP=   15.99998884 DN=   15.99998884)
   Exchange            :   -22.37225069
   Correlation         :    -1.29386297
   DIIS-Error          :       0.056512940077
   DIIS coefficients:
      0.62853   0.37147


                         ----------------------------
                         !        ITERATION     4   !
                         ----------------------------
   Total Energy        :    -228.946626201825 Eh
   Energy Change       :      -0.009915921846 Eh
   MAX-DP              :       0.011091925582
   RMS-DP              :       0.000689326260
   Actual Damping      :       0.0000
   Actual Level Shift  :       0.2500 Eh
   Int. Num. El.       :    31.99997874 (UP=   15.99998937 DN=   15.99998937)
   Exchange            :   -22.45699532
   Correlation         :    -1.29682486
   DIIS-Error          :       0.016755219484
   DIIS coefficients:
      0.33700   0.12285   0.54015

                      *** Initiating the SOSCF procedure ***
                           *** Shutting down DIIS ***
                      *** Re-Reading the Fockian *** 
                      *** Removing any level shift *** 

                         ----------------------------
                         !        ITERATION     5   !
                         ----------------------------
   Total Energy        :    -228.947622570758 Eh
   Energy Change       :      -0.000996368934 Eh
   MAX-DP              :       0.003643938965
   RMS-DP              :       0.000197815675
   Orbital gradient    :       0.000978952625
   Orbital Rotation    :       0.000978952625
   Actual Damping      :       0.0000
   Int. Num. El.       :    31.99997812 (UP=   15.99998906 DN=   15.99998906)
   Exchange            :   -22.46785440
   Correlation         :    -1.29752263

               *** Restarting incremental Fock matrix formation ***

                         ----------------------------
                         !        ITERATION     6   !
                         ----------------------------
   Total Energy        :    -228.947646014357 Eh
   Energy Change       :      -0.000023443598 Eh
   MAX-DP              :       0.002672349104
   RMS-DP              :       0.000135605740
   Orbital gradient    :       0.000756916264
   Orbital Rotation    :       0.002345413964
   Actual Damping      :       0.0000
   Int. Num. El.       :    31.99997845 (UP=   15.99998923 DN=   15.99998923)
   Exchange            :   -22.47077923
   Correlation         :    -1.29766917


                         ----------------------------
                         !        ITERATION     7   !
                         ----------------------------
   Total Energy        :    -228.947636243077 Eh
   Energy Change       :       0.000009771280 Eh
   MAX-DP              :       0.001734864271
   RMS-DP              :       0.000081739663
   Orbital gradient    :       0.001597408419
   Orbital Rotation    :       0.001600978722
   Actual Damping      :       0.0000
   Int. Num. El.       :    31.99997843 (UP=   15.99998922 DN=   15.99998922)
   Exchange            :   -22.47118829
   Correlation         :    -1.29769664


                         ----------------------------
                         !        ITERATION     8   !
                         ----------------------------
   Total Energy        :    -228.947651166557 Eh
   Energy Change       :      -0.000014923480 Eh
   MAX-DP              :       0.000434169689
   RMS-DP              :       0.000020558796
   Orbital gradient    :       0.000128960475
   Orbital Rotation    :       0.000263096295
   Actual Damping      :       0.0000
   Int. Num. El.       :    31.99997863 (UP=   15.99998932 DN=   15.99998932)
   Exchange            :   -22.47115528
   Correlation         :    -1.29768709


                         ----------------------------
                         !        ITERATION     9   !
                         ----------------------------
   Total Energy        :    -228.947650943635 Eh
   Energy Change       :       0.000000222922 Eh
   MAX-DP              :       0.000247172172
   RMS-DP              :       0.000012246465
   Orbital gradient    :       0.000196046871
   Orbital Rotation    :       0.000158999254
   Actual Damping      :       0.0000
   Int. Num. El.       :    31.99997861 (UP=   15.99998930 DN=   15.99998930)
   Exchange            :   -22.47065680
   Correlation         :    -1.29767410


                         ----------------------------
                         !        ITERATION    10   !
                         ----------------------------
   Total Energy        :    -228.947651344027 Eh
   Energy Change       :      -0.000000400391 Eh
   MAX-DP              :       0.000059646600
   RMS-DP              :       0.000003216346
   Orbital gradient    :       0.000016228647
   Orbital Rotation    :       0.000021724534
   Actual Damping      :       0.0000
   Int. Num. El.       :    31.99997862 (UP=   15.99998931 DN=   15.99998931)
   Exchange            :   -22.47101695
   Correlation         :    -1.29768320


                         ----------------------------
                         !        ITERATION    11   !
                         ----------------------------
   Total Energy        :    -228.947651341955 Eh
   Energy Change       :       0.000000002072 Eh
   MAX-DP              :       0.000035682150
   RMS-DP              :       0.000001795114
   Orbital gradient    :       0.000016212684
   Orbital Rotation    :       0.000012108755
   Actual Damping      :       0.0000
   Int. Num. El.       :    31.99997861 (UP=   15.99998931 DN=   15.99998931)
   Exchange            :   -22.47096714
   Correlation         :    -1.29768240

                  ***Gradient check signals convergence***
              ***Rediagonalizing the Fockian in SOSCF/NRSCF***

               *****************************************************
               *                     SUCCESS                       *
               *           SCF CONVERGED AFTER  12 CYCLES          *
               *****************************************************

Setting up the final grid:

General Integration Accuracy     IntAcc      ...  5.010
Radial Grid Type                 RadialGrid  ... Gauss-Chebyshev
Angular Grid (max. acc.)         AngularGrid ... Lebedev-434
Angular grid pruning method      GridPruning ... 3 (G Style)
Weight generation scheme         WeightScheme... Becke
Basis function cutoff            BFCut       ...    1.0000e-11
Integration weight cutoff        WCut        ...    1.0000e-14
Grids for H and He will be reduced by one unit

# of grid points (after initial pruning)     ...  69848 (   0.1 sec)
# of grid points (after weights+screening)   ...  66491 (   0.1 sec)
nearest neighbour list constructed           ...    0.0 sec
Grid point re-assignment to atoms done       ...    0.0 sec
Grid point division into batches done        ...    0.6 sec
Reduced shell lists constructed in    1.2 sec

Total number of grid points                  ...    66491
Total number of batches                      ...     1045
Average number of points per batch           ...       63
Average number of grid points per atom       ...     8311
Average number of shells per batch           ...    23.71 (74.09%)
Average number of basis functions per batch  ...    48.94 (76.47%)
Average number of large shells per batch     ...    19.83 (83.64%)
Average number of large basis fcns per batch ...    40.90 (83.57%)
Maximum spatial batch extension              ...  18.31, 18.53, 21.45 au
Average spatial batch extension              ...   2.40,  2.30,  2.40 au

Final grid set up in    1.3 sec
Final integration                            ... done (   0.8 sec)
Change in XC energy                          ...    -0.000099134
Integrated number of electrons               ...    31.999997603
Previous integrated no of electrons          ...    31.999978616

----------------
TOTAL SCF ENERGY
----------------

Total Energy       :         -228.94775048 Eh           -6229.98502 eV

Components:
Nuclear Repulsion  :          120.34447447 Eh            3274.73963 eV
Electronic Energy  :         -349.29222495 Eh           -9504.72465 eV
One Electron Energy:         -550.53260439 Eh          -14980.75377 eV
Two Electron Energy:          201.24037944 Eh            5476.02912 eV

Virial components:
Potential Energy   :         -456.56182493 Eh          -12423.67886 eV
Kinetic Energy     :          227.61407444 Eh            6193.69385 eV
Virial Ratio       :            2.00585937


DFT components:
N(Alpha)           :       15.999998801378 electrons
N(Beta)            :       15.999998801378 electrons
N(Total)           :       31.999997602756 electrons
E(X)               :      -22.471088454984 Eh       
E(C)               :       -1.297679069139 Eh       
E(XC)              :      -23.768767524123 Eh       
DFET-embed. en.    :        0.000000000000 Eh       

---------------
SCF CONVERGENCE
---------------

  Last Energy change         ...   -6.2618e-09  Tolerance :   1.0000e-08
  Last MAX-Density change    ...    2.1010e-06  Tolerance :   1.0000e-07
  Last RMS-Density change    ...    1.3060e-07  Tolerance :   5.0000e-09
  Last Orbital Gradient      ...    9.9554e-07  Tolerance :   1.0000e-05
  Last Orbital Rotation      ...    9.0468e-07  Tolerance :   1.0000e-05

             **** THE GBW FILE WAS UPDATED (/Users/lailaal-madhagi/Desktop/Testing_XAS_Analysis_code/AceticAcid//Results_dir_AceticAcid_geom_element_O_2019-11-03_20-05-49//GTE1_AceticAcid_geom_2019-11-03_20-06-00//TDDFT_O-edge.gbw) ****
             **** DENSITY FILE WAS UPDATED (/Users/lailaal-madhagi/Desktop/Testing_XAS_Analysis_code/AceticAcid//Results_dir_AceticAcid_geom_element_O_2019-11-03_20-05-49//GTE1_AceticAcid_geom_2019-11-03_20-06-00//TDDFT_O-edge.scfp.tmp) ****
             **** ENERGY FILE WAS UPDATED (/Users/lailaal-madhagi/Desktop/Testing_XAS_Analysis_code/AceticAcid//Results_dir_AceticAcid_geom_element_O_2019-11-03_20-05-49//GTE1_AceticAcid_geom_2019-11-03_20-06-00//TDDFT_O-edge.en.tmp) ****
----------------
ORBITAL ENERGIES
----------------

  NO   OCC          E(Eh)            E(eV) 
   0   2.0000     -19.187112      -522.1079 
   1   2.0000     -19.124608      -520.4070 
   2   2.0000     -10.315961      -280.7116 
   3   2.0000     -10.200232      -277.5624 
   4   2.0000      -1.095187       -29.8015 
   5   2.0000      -1.013544       -27.5799 
   6   2.0000      -0.752796       -20.4846 
   7   2.0000      -0.614021       -16.7084 
   8   2.0000      -0.513827       -13.9819 
   9   2.0000      -0.464967       -12.6524 
  10   2.0000      -0.461269       -12.5518 
  11   2.0000      -0.416270       -11.3273 
  12   2.0000      -0.393772       -10.7151 
  13   2.0000      -0.372248       -10.1294 
  14   2.0000      -0.309876        -8.4321 
  15   2.0000      -0.267798        -7.2872 
  16   0.0000       0.013131         0.3573 
  17   0.0000       0.049973         1.3598 
  18   0.0000       0.121640         3.3100 
  19   0.0000       0.145416         3.9570 
  20   0.0000       0.166788         4.5385 
  21   0.0000       0.199954         5.4410 
  22   0.0000       0.318982         8.6799 
  23   0.0000       0.356711         9.7066 
  24   0.0000       0.517669        14.0865 
  25   0.0000       0.538207        14.6454 
  26   0.0000       0.569375        15.4935 
  27   0.0000       0.616268        16.7695 
  28   0.0000       0.617647        16.8070 
  29   0.0000       0.691694        18.8220 
  30   0.0000       0.746519        20.3138 
  31   0.0000       0.801706        21.8155 
  32   0.0000       0.835331        22.7305 
  33   0.0000       0.847792        23.0696 
  34   0.0000       0.922925        25.1141 
  35   0.0000       0.936639        25.4872 
  36   0.0000       0.939148        25.5555 
  37   0.0000       1.004261        27.3273 
  38   0.0000       1.041579        28.3428 
  39   0.0000       1.099272        29.9127 
  40   0.0000       1.148596        31.2549 
  41   0.0000       1.336254        36.3613 
  42   0.0000       1.345047        36.6006 
  43   0.0000       1.441424        39.2231 
  44   0.0000       1.591609        43.3099 
  45   0.0000       1.635146        44.4946 
  46   0.0000       1.720215        46.8094 
  47   0.0000       1.740151        47.3519 
  48   0.0000       1.807858        49.1943 
  49   0.0000       1.819337        49.5067 
  50   0.0000       1.852994        50.4225 
  51   0.0000       1.894705        51.5575 
  52   0.0000       1.973000        53.6881 
  53   0.0000       2.026628        55.1474 
  54   0.0000       2.194786        59.7232 
  55   0.0000       2.205117        60.0043 
  56   0.0000       2.350864        63.9703 
  57   0.0000       2.416044        65.7439 
  58   0.0000       2.491068        67.7854 
  59   0.0000       2.650485        72.1234 
  60   0.0000       2.684367        73.0453 
  61   0.0000       2.801875        76.2429 
  62   0.0000       2.981120        81.1204 
  63   0.0000       3.058974        83.2389 
------------------
MOLECULAR ORBITALS
------------------
                      0         1         2         3         4         5   
                 -19.18711 -19.12461 -10.31596 -10.20023  -1.09519  -1.01354
                   2.00000   2.00000   2.00000   2.00000   2.00000   2.00000
                  --------  --------  --------  --------  --------  --------
  0C   1s         0.000014 -0.000055  0.000504  0.995273 -0.017829 -0.006928
  0C   2s         0.000433 -0.000744 -0.001411  0.037374  0.034801  0.015072
  0C   1pz       -0.000003  0.000021 -0.000002 -0.000004  0.000111 -0.001858
  0C   1px        0.000233 -0.000031 -0.000770  0.000231  0.025114  0.006892
  0C   1py        0.000062 -0.000153 -0.000126  0.000071  0.003697  0.014387
  0C   3s        -0.001407  0.004286  0.009545 -0.033086  0.001836 -0.001922
  0C   2pz        0.000396  0.000327  0.000027  0.000058  0.000691 -0.002178
  0C   2px        0.000068  0.001676  0.005217 -0.001547 -0.000809 -0.008199
  0C   2py       -0.002787 -0.002035  0.000738 -0.000685 -0.004793  0.013878
  0C   1dz2      -0.000077 -0.000143  0.000487 -0.000026 -0.002711 -0.000179
  0C   1dxz       0.000061  0.000083  0.000017 -0.000004  0.000051 -0.000500
  0C   1dyz       0.000009 -0.000035 -0.000003 -0.000007 -0.000077  0.000094
  0C   1dx2y2     0.000263  0.000100 -0.000788 -0.000009  0.003935  0.000300
  0C   1dxy      -0.000359 -0.000527 -0.000411  0.000039  0.001185  0.003648
  1C   1s        -0.000024  0.000301  0.995133 -0.000544 -0.115172 -0.060968
  1C   2s         0.000022  0.000675  0.036343 -0.001394  0.221209  0.119144
  1C   1pz       -0.000075  0.000015 -0.000040 -0.000001  0.002165 -0.032720
  1C   1px       -0.000386 -0.000144  0.001555  0.000476  0.087727  0.011438
  1C   1py        0.000459 -0.000135  0.000572  0.000089  0.000894  0.233716
  1C   3s        -0.006854  0.007858 -0.011225  0.007143  0.049980  0.047902
  1C   2pz       -0.001193 -0.001430 -0.000324  0.000119 -0.000123  0.002723
  1C   2px       -0.005955  0.004714  0.010436 -0.004640 -0.035733 -0.005982
  1C   2py        0.007347  0.010989  0.004171 -0.001673 -0.005757 -0.020314
  1C   1dz2       0.000202  0.000333 -0.001740  0.000499 -0.015603 -0.006308
  1C   1dxz       0.000036  0.000076  0.000051  0.000032  0.001441 -0.003672
  1C   1dyz       0.000029  0.000194 -0.000587 -0.000016 -0.005942 -0.002790
  1C   1dx2y2    -0.000088  0.000856 -0.001061 -0.000875 -0.012782 -0.013250
  1C   1dxy      -0.000334 -0.000490  0.000015 -0.000539 -0.007420  0.025611
  2H   1s         0.000127 -0.000022 -0.000519 -0.000503  0.006002  0.004093
  2H   2s         0.000505 -0.000112  0.000741  0.005831  0.000501 -0.001263
  3H   1s        -0.000151 -0.000381 -0.000541 -0.000572  0.006800  0.000320
  3H   2s        -0.000771 -0.000917  0.000331  0.005609  0.002457 -0.000478
  4H   1s         0.000127 -0.000022 -0.000519 -0.000502  0.006008  0.004094
  4H   2s         0.000504 -0.000114  0.000740  0.005831  0.000525 -0.001276
  5O   1s         0.000507  0.995151 -0.000045 -0.000024 -0.095360 -0.169638
  5O   2s         0.000509  0.030248  0.000860 -0.000556  0.206612  0.372052
  5O   1pz        0.000011  0.000296 -0.000115 -0.000007  0.012100  0.016585
  5O   1px       -0.000181 -0.000748  0.000521  0.000133 -0.022803 -0.052819
  5O   1py       -0.000111 -0.002235  0.000907  0.000071 -0.089846 -0.127120
  5O   3s        -0.001727 -0.023348 -0.008072  0.001349  0.187252  0.332475
  5O   2pz        0.000107 -0.000861 -0.000767  0.000090  0.004853  0.004368
  5O   2px        0.002022  0.001976 -0.000194  0.000179 -0.000336 -0.018004
  5O   2py       -0.000387  0.006459  0.005409 -0.000608 -0.034383 -0.034249
  5O   1dz2       0.000120  0.000074  0.000962 -0.000252 -0.002490 -0.002990
  5O   1dxz       0.000029  0.000010  0.000087  0.000027 -0.000388 -0.000974
  5O   1dyz      -0.000031  0.000045  0.000418 -0.000078 -0.001678 -0.001319
  5O   1dx2y2    -0.000363  0.000197  0.001363 -0.000085 -0.007734 -0.005278
  5O   1dxy      -0.000312 -0.000058 -0.000682 -0.000126  0.002171  0.006931
  6O   1s        -0.995144  0.000481  0.000129 -0.000004 -0.169138  0.119067
  6O   2s        -0.029954 -0.000498  0.001033 -0.000344  0.369939 -0.264061
  6O   1pz        0.000064  0.000021  0.000042  0.000021 -0.004706 -0.004165
  6O   1px        0.001759  0.000270  0.000450  0.000144 -0.101398  0.065441
  6O   1py       -0.000134 -0.000100 -0.000218 -0.000124  0.014980  0.041237
  6O   3s         0.021356  0.001585 -0.004223  0.000247  0.373368 -0.273543
  6O   2pz       -0.000537  0.000077  0.000626 -0.000056 -0.002708 -0.002125
  6O   2px       -0.004949 -0.002074  0.001053  0.000119 -0.050581  0.036963
  6O   2py        0.002895 -0.000927 -0.004230  0.000419  0.009954  0.021752
  6O   1dz2      -0.000426 -0.000240  0.001099 -0.000161 -0.011644  0.006393
  6O   1dxz       0.000066  0.000005 -0.000305 -0.000014  0.000363  0.000794
  6O   1dyz      -0.000139  0.000015  0.000398 -0.000048 -0.003471  0.001453
  6O   1dx2y2    -0.000159  0.000493  0.000497 -0.000079 -0.003932  0.000371
  6O   1dxy      -0.000355  0.000128  0.001887  0.000135  0.000459 -0.007584
  7H   1s        -0.000649 -0.000551 -0.000289 -0.000148  0.097205 -0.087012
  7H   2s        -0.001927  0.000593  0.000044  0.000205 -0.007826 -0.002414
                      6         7         8         9        10        11   
                  -0.75280  -0.61402  -0.51383  -0.46497  -0.46127  -0.41627
                   2.00000   2.00000   2.00000   2.00000   2.00000   2.00000
                  --------  --------  --------  --------  --------  --------
  0C   1s         0.187423  0.030871 -0.046085 -0.000001  0.003449  0.004228
  0C   2s        -0.359962 -0.056125  0.092201  0.000082 -0.013298 -0.005855
  0C   1pz        0.000214  0.001900  0.003738 -0.314518  0.044929  0.036147
  0C   1px       -0.028348  0.072920 -0.302854  0.007838  0.056765 -0.028471
  0C   1py       -0.006344 -0.000347 -0.080611 -0.043801 -0.312903 -0.261028
  0C   3s        -0.337889 -0.088272  0.117885 -0.000198 -0.006918 -0.044320
  0C   2pz       -0.000999  0.001418  0.001626 -0.160417  0.021612  0.015011
  0C   2px       -0.004991  0.005394 -0.125484  0.003853  0.052201 -0.030460
  0C   2py        0.005482 -0.009323 -0.034210 -0.022178 -0.145567 -0.111359
  0C   1dz2      -0.000426 -0.002765  0.008993  0.003469 -0.012589 -0.008378
  0C   1dxz      -0.000044  0.000188  0.000184  0.004455  0.000166 -0.001180
  0C   1dyz       0.000063  0.000253 -0.000112 -0.012985 -0.004284 -0.003692
  0C   1dx2y2     0.001098  0.006428 -0.015164  0.001770 -0.008094 -0.012801
  0C   1dxy       0.000663  0.000678 -0.006784  0.000968  0.001443  0.008746
  1C   1s         0.059062 -0.095656  0.085972 -0.000063  0.019697 -0.033380
  1C   2s        -0.121941  0.208838 -0.191031  0.000115 -0.049607  0.083306
  1C   1pz       -0.006580  0.027946  0.004869 -0.286778  0.029339 -0.033463
  1C   1px        0.172078  0.139982  0.267281  0.007221  0.029281  0.114475
  1C   1py        0.077559 -0.172364  0.013758 -0.040053 -0.206933  0.257417
  1C   3s        -0.074279  0.164394 -0.133759  0.000331 -0.063578  0.020079
  1C   2pz       -0.001908  0.006388 -0.002313 -0.130663  0.006580  0.000234
  1C   2px        0.031797 -0.009262  0.095438  0.003266  0.007135 -0.007860
  1C   2py        0.019384 -0.046983  0.033914 -0.018474 -0.047405 -0.003070
  1C   1dz2       0.002988 -0.005286 -0.001916  0.000158 -0.000690  0.000123
  1C   1dxz       0.000136  0.002873  0.000947 -0.000815 -0.001067 -0.003009
  1C   1dyz      -0.001248  0.000064  0.000683 -0.000830 -0.001302 -0.000788
  1C   1dx2y2    -0.013079  0.012662  0.008881  0.000159 -0.008942 -0.009312
  1C   1dxy      -0.004187 -0.016343 -0.004455 -0.000102  0.006187  0.019591
  2H   1s        -0.117610 -0.038066  0.097563 -0.152337 -0.095655 -0.066541
  2H   2s        -0.024588 -0.018045  0.054237 -0.101912 -0.059207 -0.060088
  3H   1s        -0.119089 -0.035292  0.114433 -0.000290  0.182991  0.182250
  3H   2s        -0.024687 -0.027697  0.062559 -0.000122  0.154119  0.165090
  4H   1s        -0.117632 -0.038071  0.097535  0.152687 -0.095079 -0.066628
  4H   2s        -0.024714 -0.018097  0.054208  0.102034 -0.058807 -0.060134
  5O   1s        -0.041059  0.058519 -0.033671  0.000130 -0.062608  0.066426
  5O   2s         0.094747 -0.134844  0.082404 -0.000294  0.138950 -0.150378
  5O   1pz        0.002394  0.012599 -0.001966 -0.204147 -0.025473  0.056701
  5O   1px        0.031646  0.041956  0.154550  0.004918  0.139644 -0.085340
  5O   1py       -0.011289 -0.081609  0.041959 -0.029219  0.202577 -0.417695
  5O   3s         0.089880 -0.156168  0.082401 -0.000497  0.258764 -0.247270
  5O   2pz       -0.000076  0.007150 -0.002742 -0.110949 -0.011638  0.032141
  5O   2px        0.014513  0.022021  0.083716  0.002704  0.068701 -0.038932
  5O   2py        0.003109 -0.046643  0.034553 -0.015857  0.093113 -0.235253
  5O   1dz2       0.000874 -0.002797  0.002979 -0.003555  0.007242 -0.009591
  5O   1dxz       0.000461  0.000110  0.001456  0.005864  0.001053 -0.000992
  5O   1dyz      -0.000170 -0.001765  0.000138  0.015243  0.002077 -0.004429
  5O   1dx2y2    -0.001990 -0.007194 -0.002069 -0.002344  0.003312 -0.015539
  5O   1dxy      -0.003899 -0.001169 -0.011633  0.000441 -0.009106  0.007343
  6O   1s        -0.035235  0.022852 -0.044748 -0.000106  0.042673  0.009681
  6O   2s         0.082134 -0.048974  0.110159  0.000228 -0.100972 -0.024134
  6O   1pz        0.004553 -0.065553 -0.019706 -0.234645 -0.007210  0.015688
  6O   1px        0.036191 -0.070131  0.179674  0.006600 -0.245784  0.072904
  6O   1py       -0.025603  0.449963  0.171576 -0.033273  0.002607 -0.096986
  6O   3s         0.098285 -0.077275  0.141773  0.000438 -0.158994 -0.048617
  6O   2pz        0.002851 -0.031997 -0.008557 -0.151159 -0.005902  0.007169
  6O   2px        0.017773 -0.025948  0.114363  0.004251 -0.157893  0.051819
  6O   2py       -0.016987  0.221049  0.080884 -0.021488  0.010835 -0.040744
  6O   1dz2       0.000517  0.004119  0.007657  0.001381 -0.006932 -0.000318
  6O   1dxz      -0.000769  0.004188  0.000460  0.016213  0.000381 -0.000733
  6O   1dyz      -0.000739  0.001862  0.000151 -0.002511  0.000712 -0.001392
  6O   1dx2y2    -0.006766  0.011089 -0.010836 -0.000090  0.016509 -0.009736
  6O   1dxy       0.004077 -0.028872 -0.007560  0.002362  0.002683  0.003511
  7H   1s         0.022134 -0.215489 -0.098177 -0.000091  0.044493  0.047257
  7H   2s        -0.001082 -0.098958 -0.049215 -0.000221  0.041017  0.055619
                     12        13        14        15        16        17   
                  -0.39377  -0.37225  -0.30988  -0.26780   0.01313   0.04997
                   2.00000   2.00000   2.00000   2.00000   0.00000   0.00000
                  --------  --------  --------  --------  --------  --------
  0C   1s         0.000006  0.014482 -0.000013 -0.030036 -0.000069  0.068451
  0C   2s         0.000019 -0.026469 -0.000004  0.059797  0.000013 -0.089936
  0C   1pz       -0.316102 -0.026106  0.054356 -0.006662  0.026054 -0.017183
  0C   1px        0.008040 -0.235796 -0.001300  0.189567 -0.000447  0.058334
  0C   1py       -0.044680  0.142208  0.007733  0.081050  0.003783  0.132822
  0C   3s        -0.000050 -0.109935  0.000205  0.227129  0.001023 -0.937828
  0C   2pz       -0.157040 -0.011268  0.073054  0.001391  0.267250 -0.032969
  0C   2px        0.004025 -0.139114 -0.001751  0.144098 -0.006321  0.305448
  0C   2py       -0.022103  0.055175  0.010197  0.016027  0.038000  0.292870
  0C   1dz2       0.003773  0.010879 -0.000120  0.001907  0.002174  0.003533
  0C   1dxz       0.018259  0.001081 -0.006391  0.000391  0.036396  0.001114
  0C   1dyz      -0.011873  0.002593 -0.000655  0.001680 -0.002244  0.000298
  0C   1dx2y2     0.001255  0.001191  0.000260  0.008721 -0.000585 -0.002202
  0C   1dxy       0.002895 -0.010825 -0.000889 -0.001871  0.005212 -0.009454
  1C   1s         0.000019 -0.006675 -0.000008 -0.014146  0.000107 -0.006345
  1C   2s         0.000005  0.015446  0.000043  0.038038 -0.000071 -0.005564
  1C   1pz        0.195726  0.005084 -0.148214  0.004063  0.538714  0.004665
  1C   1px       -0.005021  0.237266  0.003732 -0.056969 -0.013750  0.080253
  1C   1py        0.027632  0.006731 -0.021000 -0.039005  0.076219 -0.020526
  1C   3s        -0.000138 -0.043761 -0.000035  0.065420 -0.001594  0.067616
  1C   2pz        0.115881  0.006602 -0.087630  0.008506  0.481228 -0.012142
  1C   2px       -0.002925 -0.014124  0.002273  0.122076 -0.012093  0.142649
  1C   2py        0.016508 -0.049667 -0.012255 -0.038167  0.068003  0.111081
  1C   1dz2       0.000957 -0.001281  0.009788  0.001654  0.004378  0.005663
  1C   1dxz       0.022114  0.000093  0.002166 -0.005119 -0.019565  0.000701
  1C   1dyz       0.000192 -0.002634 -0.038757  0.005878 -0.021143  0.002378
  1C   1dx2y2    -0.000575 -0.015433  0.005543  0.030259  0.003539  0.007550
  1C   1dxy       0.003130 -0.002953  0.001344  0.040998 -0.002221 -0.005452
  2H   1s        -0.177498  0.099111  0.035103 -0.003066 -0.106673  0.022844
  2H   2s        -0.150564  0.091972  0.000038 -0.026252 -0.427362  0.374395
  3H   1s         0.000086 -0.085289 -0.000064 -0.065255  0.000022  0.000110
  3H   2s         0.000156 -0.062480 -0.000192 -0.127176  0.000128  0.742591
  4H   1s         0.177406  0.099239 -0.035086 -0.003043  0.106587  0.022940
  4H   2s         0.150495  0.092217  0.000010 -0.026188  0.426733  0.375528
  5O   1s        -0.000002  0.010758 -0.000002  0.000892 -0.000023  0.017009
  5O   2s         0.000020 -0.028293  0.000005  0.000592  0.000033 -0.037397
  5O   1pz        0.200992  0.026854 -0.453258  0.036251 -0.372250 -0.009763
  5O   1px       -0.005114  0.093840  0.011733  0.571582  0.009517 -0.025515
  5O   1py        0.028377 -0.173834 -0.063859 -0.152290 -0.052631  0.065300
  5O   3s        -0.000080  0.000015 -0.000030 -0.025065  0.000362 -0.178687
  5O   2pz        0.116483  0.018369 -0.311663  0.023918 -0.393961 -0.016062
  5O   2px       -0.002946  0.060831  0.008082  0.392206  0.010025 -0.017231
  5O   2py        0.016470 -0.119490 -0.043933 -0.097850 -0.055818  0.111386
  5O   1dz2       0.003220 -0.002172 -0.005243  0.001698  0.000954  0.002370
  5O   1dxz      -0.003324  0.000613  0.009896  0.002349 -0.001830  0.000804
  5O   1dyz      -0.013499 -0.002626  0.022806 -0.001991 -0.004214  0.001229
  5O   1dx2y2     0.002028 -0.013397 -0.003527 -0.013123  0.000647  0.005380
  5O   1dxy      -0.000113 -0.006022  0.000786 -0.019544 -0.000139 -0.005464
  6O   1s        -0.000006  0.054467 -0.000005  0.021814 -0.000017  0.063260
  6O   2s         0.000030 -0.125368  0.000041 -0.049892  0.000050 -0.118475
  6O   1pz        0.357196  0.000059  0.443679  0.022967 -0.246102 -0.029018
  6O   1px       -0.009128 -0.457541 -0.011263  0.149997  0.006235  0.144548
  6O   1py        0.050644 -0.082899  0.062881 -0.135888 -0.034656  0.230357
  6O   3s         0.000009 -0.209969 -0.000034 -0.168588  0.000083 -0.735153
  6O   2pz        0.246384 -0.003579  0.346990  0.018763 -0.243862 -0.045709
  6O   2px       -0.006328 -0.301209 -0.008836  0.133540  0.006166  0.212385
  6O   2py        0.034959 -0.028679  0.049207 -0.108894 -0.034232  0.361715
  6O   1dz2      -0.001095 -0.012645  0.001028  0.000135 -0.004762  0.007984
  6O   1dxz      -0.019532 -0.000564 -0.021249 -0.000891 -0.007729  0.000894
  6O   1dyz       0.000815 -0.001030 -0.007975 -0.000810  0.017620  0.001121
  6O   1dx2y2     0.000380  0.012926  0.001690 -0.006811 -0.002341 -0.004230
  6O   1dxy      -0.002796  0.010232 -0.002803  0.005084 -0.001571 -0.009565
  7H   1s        -0.000022  0.139535 -0.000030  0.035890 -0.000016  0.132050
  7H   2s         0.000085  0.078112  0.000147  0.061324  0.000324  1.190708
                     18        19        20        21        22        23   
                   0.12164   0.14542   0.16679   0.19995   0.31898   0.35671
                   0.00000   0.00000   0.00000   0.00000   0.00000   0.00000
                  --------  --------  --------  --------  --------  --------
  0C   1s        -0.118876 -0.064035 -0.000170 -0.067289 -0.033773 -0.017223
  0C   2s         0.139437  0.059440  0.000376  0.056018 -0.042290 -0.017510
  0C   1pz       -0.032752  0.040220 -0.420705  0.013732  0.002414 -0.028517
  0C   1px       -0.128170 -0.082072  0.010715  0.318064 -0.127512  0.018078
  0C   1py        0.209292 -0.296086 -0.059862 -0.038112 -0.038939  0.206170
  0C   3s         1.989793  1.188021  0.002856  0.995072  1.286488  0.293704
  0C   2pz       -0.112105  0.136345 -1.351911  0.035577  0.020908 -0.138934
  0C   2px       -0.305074 -0.057857  0.035769  1.544189  1.085879  0.480525
  0C   2py        0.740512 -0.953454 -0.192810  0.032548  0.044595  1.068614
  0C   1dz2      -0.009058  0.012639 -0.004075  0.016777  0.010258  0.019494
  0C   1dxz      -0.000134  0.002431  0.002619  0.000253 -0.002914  0.007420
  0C   1dyz      -0.003023  0.004421  0.016987 -0.000969 -0.001972  0.004196
  0C   1dx2y2    -0.005788  0.012608 -0.002495 -0.033194 -0.033649  0.005630
  0C   1dxy       0.002648 -0.018971 -0.000130 -0.013234  0.011758 -0.057538
  1C   1s         0.033152 -0.013371  0.000106  0.151485 -0.035409 -0.014757
  1C   2s         0.019978  0.027353 -0.000077 -0.231770 -0.073956  0.066090
  1C   1pz       -0.008013  0.017809  0.195039 -0.023421 -0.001128  0.063474
  1C   1px        0.019252  0.152449 -0.004508  0.193020  0.368268  0.456625
  1C   1py        0.058148 -0.101696  0.027460  0.195776  0.075373 -0.365543
  1C   3s        -0.786110  0.145163 -0.001781 -2.560776  1.143438 -0.655649
  1C   2pz       -0.000324  0.007112  0.424072 -0.039066 -0.182377  0.284169
  1C   2px        0.116036  0.190544 -0.009449  0.570854  1.731501  0.863644
  1C   2py        0.019965 -0.021855  0.060807  0.372633  1.605715 -1.855820
  1C   1dz2      -0.008910  0.007086 -0.000349 -0.018619  0.026001  0.019110
  1C   1dxz       0.003059 -0.003480  0.008418  0.001046 -0.000948 -0.005255
  1C   1dyz      -0.000366  0.000516  0.002856 -0.003981  0.004796  0.004218
  1C   1dx2y2     0.015757 -0.012449 -0.000640  0.004719 -0.011022 -0.009394
  1C   1dxy      -0.016020  0.020092  0.001167 -0.000552 -0.003740  0.029190
  2H   1s        -0.048800  0.041237  0.072763  0.060824 -0.008393  0.089458
  2H   2s        -1.337113  0.077441  1.474193  0.394279 -0.032620 -0.290223
  3H   1s         0.037106 -0.137117 -0.000251  0.026520  0.134479 -0.062858
  3H   2s         0.087445 -1.892479 -0.003997 -0.157370 -0.043820  1.059120
  4H   1s        -0.048953  0.041924 -0.072348  0.060942 -0.008237  0.089472
  4H   2s        -1.337266  0.083978 -1.472562  0.396465 -0.032705 -0.290505
  5O   1s        -0.006047 -0.004792 -0.000015 -0.029483  0.096709 -0.049825
  5O   2s        -0.000489  0.027294  0.000112  0.059478 -0.146796  0.060791
  5O   1pz       -0.002010 -0.007163 -0.152270  0.017013 -0.021806 -0.004544
  5O   1px       -0.011599 -0.148652  0.003543 -0.049435 -0.028509 -0.190251
  5O   1py        0.013360  0.026294 -0.021536 -0.127177  0.148872 -0.002707
  5O   3s         0.177033 -0.044508 -0.000410  0.363886 -1.970071  1.215830
  5O   2pz        0.009832 -0.010613 -0.178864  0.030418 -0.124614  0.033864
  5O   2px       -0.027782 -0.143558  0.004115 -0.160433  0.014753 -0.516963
  5O   2py       -0.073305  0.051844 -0.025112 -0.241610  0.886133 -0.334590
  5O   1dz2      -0.008729  0.004284  0.000465 -0.013183  0.028310 -0.007319
  5O   1dxz      -0.000142  0.000153 -0.003282  0.000131  0.002990  0.000088
  5O   1dyz      -0.002408  0.000519 -0.002433 -0.003699  0.010373 -0.005743
  5O   1dx2y2    -0.002271 -0.003299  0.000430 -0.003509  0.027699 -0.026591
  5O   1dxy       0.003409 -0.003018 -0.000406  0.002744 -0.025352 -0.003166
  6O   1s         0.005101  0.052992  0.000103 -0.048232  0.032218  0.050032
  6O   2s        -0.001753 -0.118944 -0.000246  0.099902 -0.095006 -0.109649
  6O   1pz       -0.023471 -0.004619 -0.048108 -0.025140  0.027599  0.046731
  6O   1px       -0.042604  0.130165  0.001374 -0.142232 -0.052916  0.185043
  6O   1py        0.158561  0.056104 -0.006415  0.152685 -0.204844 -0.295056
  6O   3s        -0.103499 -0.574070 -0.001053  0.593287 -0.201494 -0.814309
  6O   2pz       -0.040644 -0.006034 -0.108205 -0.048707  0.079168  0.094050
  6O   2px       -0.050773  0.205677  0.002904 -0.356045 -0.145007  0.397582
  6O   2py        0.278972  0.081423 -0.014824  0.281284 -0.586397 -0.591592
  6O   1dz2      -0.003009  0.002105 -0.002518 -0.010397  0.003574 -0.004421
  6O   1dxz       0.000502  0.001037  0.002825 -0.000805 -0.002529  0.002936
  6O   1dyz      -0.001529 -0.000754  0.010556 -0.001618 -0.000723 -0.001557
  6O   1dx2y2    -0.004648 -0.006954 -0.001606  0.005239 -0.013756  0.000361
  6O   1dxy      -0.003371 -0.009314  0.000102  0.009982  0.014099 -0.019136
  7H   1s         0.075193  0.071484  0.000293  0.017298  0.028250 -0.108381
  7H   2s         0.535700  0.718366  0.002061 -0.060796 -0.374624 -0.632096
                     24        25        26        27        28        29   
                   0.51767   0.53821   0.56937   0.61627   0.61765   0.69169
                   0.00000   0.00000   0.00000   0.00000   0.00000   0.00000
                  --------  --------  --------  --------  --------  --------
  0C   1s         0.000022  0.018420  0.027680 -0.000142 -0.003883 -0.005121
  0C   2s        -0.000935 -0.286000 -0.191622 -0.000880 -0.042991  0.068680
  0C   1pz       -0.477348 -0.040103  0.039632  0.644778  0.068156 -0.043211
  0C   1px        0.011013 -0.692290 -0.639448 -0.008609  0.208477  0.006123
  0C   1py       -0.066304  0.160351 -0.390595  0.067655 -0.622997  0.307345
  0C   3s         0.001262  0.640458 -0.147426  0.031010  0.830038  0.381131
  0C   2pz        0.896410  0.040248 -0.066825 -1.723284 -0.245595  0.177829
  0C   2px       -0.021189  1.161910  0.889395  0.043139 -0.037981  0.250757
  0C   2py        0.124424 -0.074411  0.621595 -0.160475  2.203524 -1.213868
  0C   1dz2       0.017918  0.031039 -0.035824 -0.024188 -0.092804  0.015557
  0C   1dxz       0.038480  0.000337  0.001453 -0.023169  0.007467  0.001253
  0C   1dyz      -0.064772  0.010614 -0.013914  0.078327 -0.028295  0.011455
  0C   1dx2y2     0.008371  0.021525 -0.034273 -0.011008 -0.009992  0.054048
  0C   1dxy       0.007148 -0.008509 -0.005464 -0.006065 -0.018191 -0.004443
  1C   1s        -0.000030  0.012247 -0.029955  0.001326  0.034830  0.067929
  1C   2s         0.000050 -0.495348  0.411870 -0.012607 -0.339735 -0.237141
  1C   1pz       -0.743463 -0.052313  0.054281 -0.619451  0.036740  0.115095
  1C   1px        0.018770 -0.537607  0.086316 -0.000818 -0.417454 -0.206745
  1C   1py       -0.104890  0.283227 -0.371534 -0.093962 -0.172614 -0.849428
  1C   3s        -0.000613  0.170932 -1.839903 -0.000299 -0.034618  0.170175
  1C   2pz        0.675224  0.102275 -0.066997  1.397759  0.208391 -0.316183
  1C   2px       -0.017480  1.193652 -0.894239  0.037569  1.859342  0.196933
  1C   2py        0.096484 -0.521830  0.318297  0.139946 -1.510773  2.268222
  1C   1dz2       0.000607  0.030403  0.067285 -0.003423 -0.051651 -0.092666
  1C   1dxz      -0.018484  0.003344 -0.004985  0.000777  0.002262 -0.013130
  1C   1dyz      -0.005481 -0.006978  0.010559  0.004924 -0.019836 -0.037278
  1C   1dx2y2     0.001147 -0.092142 -0.044710 -0.002620 -0.044954 -0.117084
  1C   1dxy      -0.002519 -0.049099  0.006199 -0.000358 -0.008096  0.101949
  2H   1s        -0.306830  0.136002  0.024816  0.235394 -0.158922  0.029590
  2H   2s        -0.166094  0.081478  0.079486  0.383293 -0.376376  0.182899
  3H   1s        -0.000273 -0.129594  0.298740  0.010051  0.284219 -0.150473
  3H   2s        -0.000520  0.142586  0.129849  0.032298  0.860866 -0.485186
  4H   1s         0.307063  0.136040  0.024058 -0.245845 -0.140448  0.029652
  4H   2s         0.166363  0.081631  0.078834 -0.409158 -0.346378  0.182919
  5O   1s         0.000006 -0.003625 -0.018391 -0.000955 -0.026107 -0.011907
  5O   2s         0.000046  0.035790 -0.004365  0.000914  0.022139  0.150445
  5O   1pz       -0.034802  0.011424  0.013325 -0.168698  0.021705  0.054916
  5O   1px        0.001012 -0.016002  0.245777  0.002270 -0.041529 -0.184326
  5O   1py       -0.005013 -0.082770 -0.051372 -0.028372 -0.116442 -0.420676
  5O   3s        -0.000532 -0.062658  0.582101  0.021299  0.605293 -1.215835
  5O   2pz       -0.055436 -0.016442  0.057868 -0.145860  0.016966 -0.015022
  5O   2px        0.001593 -0.121127  0.039588 -0.014812 -0.491532  0.166688
  5O   2py       -0.007720  0.095652 -0.403412 -0.026345 -0.170007  0.136995
  5O   1dz2      -0.011448  0.020804 -0.015820 -0.006382  0.009475  0.091581
  5O   1dxz       0.005578 -0.005307 -0.000484  0.028643  0.000122  0.011960
  5O   1dyz       0.047008  0.012273 -0.004264  0.032856  0.011032  0.034954
  5O   1dx2y2    -0.006908  0.042778 -0.003729 -0.002730  0.068807  0.102006
  5O   1dxy      -0.000434  0.038207  0.008122  0.003205  0.000346 -0.095710
  6O   1s        -0.000068 -0.005844 -0.016111  0.001199  0.030877 -0.009902
  6O   2s         0.000231  0.046942 -0.009479 -0.001353 -0.035993 -0.006612
  6O   1pz       -0.114850 -0.011855  0.009323 -0.115332 -0.001927 -0.000714
  6O   1px        0.003022 -0.054954  0.189360 -0.006322 -0.238054 -0.027825
  6O   1py       -0.016487  0.075653 -0.032827 -0.016027  0.003345 -0.001781
  6O   3s         0.000756 -0.497498  0.714637 -0.046214 -1.193942  0.626957
  6O   2pz       -0.025477  0.036556 -0.048771 -0.150887  0.085797 -0.008897
  6O   2px        0.000329  0.033107 -0.181082  0.018093  0.368820 -0.232590
  6O   2py       -0.003524 -0.251015  0.311234 -0.041141 -0.498453  0.022671
  6O   1dz2       0.009219  0.060682 -0.039333  0.003216  0.051666 -0.038378
  6O   1dxz       0.008581 -0.010793  0.015105  0.034006 -0.009681  0.009012
  6O   1dyz      -0.035112  0.030170 -0.009951  0.002081  0.019404 -0.003866
  6O   1dx2y2     0.004986  0.089873  0.015990  0.000357  0.036317  0.047883
  6O   1dxy       0.002141  0.072286 -0.090839  0.006850  0.049043 -0.042869
  7H   1s        -0.000558 -0.142960 -0.145631 -0.003840 -0.112472 -0.095651
  7H   2s        -0.000418 -0.305266  0.318388 -0.003382 -0.076586  0.313968
                     30        31        32        33        34        35   
                   0.74652   0.80171   0.83533   0.84779   0.92292   0.93664
                   0.00000   0.00000   0.00000   0.00000   0.00000   0.00000
                  --------  --------  --------  --------  --------  --------
  0C   1s        -0.029964 -0.035386 -0.000010  0.001074  0.040225 -0.000331
  0C   2s         0.098207 -0.092215 -0.001100  0.058969 -0.698199  0.008054
  0C   1pz       -0.001380  0.025641 -0.714261  0.099494 -0.026744 -0.352534
  0C   1px        0.069736 -0.084420  0.018202  0.122602  0.263952  0.005672
  0C   1py        0.023398 -0.194375 -0.101210 -0.682866  0.231039 -0.049238
  0C   3s        -1.039999 -0.122713  0.002582  0.074489  1.276350 -0.013539
  0C   2pz       -0.001125 -0.079144  1.068189 -0.131769 -0.002223  0.535373
  0C   2px       -1.164122 -0.487760 -0.027081 -0.033494 -0.491427 -0.006283
  0C   2py       -0.206805  0.469030  0.152063  0.928719 -0.064621  0.075202
  0C   1dz2       0.032043 -0.009664 -0.032269  0.103908 -0.053588 -0.023721
  0C   1dxz       0.001510  0.007079 -0.157994  0.010137  0.008445 -0.047270
  0C   1dyz      -0.001997 -0.002303  0.101388  0.041145 -0.026897  0.084679
  0C   1dx2y2    -0.064513  0.008869 -0.010605  0.122185 -0.085812 -0.010480
  0C   1dxy      -0.032832 -0.044739 -0.025078 -0.082623 -0.058629 -0.008562
  1C   1s         0.019872 -0.001959 -0.000023  0.008265  0.017687  0.000147
  1C   2s        -0.847889 -0.956379 -0.000425  0.410707  0.077550  0.004142
  1C   1pz       -0.017076  0.012899 -0.037566 -0.023840 -0.021180 -0.104191
  1C   1px        0.516998  0.119440  0.000816 -0.019743  0.050901  0.002148
  1C   1py        0.212336 -0.071832 -0.005271  0.166046  0.156724 -0.014525
  1C   3s         2.701564  0.926678 -0.000861 -0.100407  0.942438 -0.006523
  1C   2pz        0.005910  0.048136 -0.075583 -0.076162  0.019708  0.320693
  1C   2px       -1.392778 -0.516463  0.002572  0.175661  0.254065 -0.005238
  1C   2py       -0.286051 -0.430284 -0.011354  0.568509 -0.085884  0.045716
  1C   1dz2      -0.017874  0.049086 -0.000126 -0.030070 -0.044859  0.004302
  1C   1dxz      -0.000086 -0.013314  0.091001 -0.014412 -0.010114  0.009729
  1C   1dyz      -0.013111  0.019547  0.017226 -0.014885 -0.023386 -0.017719
  1C   1dx2y2    -0.059219  0.034991 -0.004729 -0.069311 -0.097277  0.002417
  1C   1dxy      -0.003471  0.084154  0.012475  0.099115  0.068661  0.002060
  2H   1s        -0.222044 -0.267354  0.656074  0.365594  0.204310  0.282085
  2H   2s        -0.163199 -0.219641 -1.251889 -0.631266 -0.452715 -0.663799
  3H   1s        -0.140761 -0.322860 -0.000363 -0.706226  0.679520 -0.002422
  3H   2s        -0.188164  0.474020  0.000856  1.362531 -0.897961  0.005105
  4H   1s        -0.223056 -0.266801 -0.655711  0.366367  0.202671 -0.289143
  4H   2s        -0.162903 -0.220879  1.249653 -0.632377 -0.449273  0.679409
  5O   1s         0.011126 -0.014378 -0.000001  0.049804  0.032316  0.000085
  5O   2s         0.018125 -0.022782 -0.000148 -0.214309 -0.118615 -0.000433
  5O   1pz        0.035074  0.012404  0.076307  0.034167  0.065462 -0.343075
  5O   1px        0.185835  0.133791 -0.002196 -0.074879 -0.094293  0.008096
  5O   1py       -0.217333 -0.067276  0.011010 -0.255178 -0.488516 -0.049393
  5O   3s        -0.386206  0.293250  0.000650 -0.473156 -0.376365  0.000342
  5O   2pz       -0.054478  0.025848 -0.085706 -0.095987 -0.130144  0.319622
  5O   2px        0.155124 -0.199389  0.002192  0.289230  0.188598 -0.007791
  5O   2py        0.414967 -0.216645 -0.012553  0.732881  0.963300  0.047268
  5O   1dz2       0.040172  0.023252  0.004050  0.004154  0.024184 -0.005918
  5O   1dxz       0.001504  0.004075  0.023868  0.000831 -0.001631 -0.019774
  5O   1dyz       0.010322  0.007979 -0.012012  0.004232  0.008367  0.019266
  5O   1dx2y2     0.006101  0.021060  0.001151  0.022752  0.014657 -0.002387
  5O   1dxy      -0.022022 -0.032559  0.003667 -0.003260  0.005964 -0.003379
  6O   1s        -0.018835  0.002152 -0.000005 -0.026213  0.006858  0.000039
  6O   2s         0.124213 -0.060421  0.000052  0.159879 -0.055786 -0.000178
  6O   1pz       -0.005078 -0.001247 -0.391222  0.014838 -0.023758  0.779543
  6O   1px       -0.219910  0.544901  0.010420  0.077896  0.301401 -0.020790
  6O   1py       -0.005455  0.109195 -0.055754 -0.090275  0.236655  0.109844
  6O   3s        -0.298565  0.099939 -0.000163  0.104071 -0.147796  0.000289
  6O   2pz        0.041247 -0.038655  0.409829 -0.030810  0.040514 -1.003760
  6O   2px        0.323359 -0.461634 -0.010938 -0.278815 -0.264484  0.026695
  6O   2py       -0.232560  0.186910  0.058538  0.167079 -0.352263 -0.141454
  6O   1dz2       0.099507 -0.030012 -0.000470 -0.006800  0.012582 -0.012628
  6O   1dxz       0.004834 -0.012468 -0.020477  0.004100 -0.002515 -0.016316
  6O   1dyz       0.031370 -0.007913 -0.002071 -0.000463  0.008620  0.046926
  6O   1dx2y2     0.054497 -0.020044  0.000815  0.013214  0.033614 -0.006426
  6O   1dxy      -0.056058  0.094123 -0.002731 -0.024375  0.019421 -0.003598
  7H   1s        -0.684869  0.583342  0.000342 -0.115676  0.103084  0.000411
  7H   2s         0.522307 -0.655308 -0.000510  0.152474 -0.233011 -0.000350
                     36        37        38        39        40        41   
                   0.93915   1.00426   1.04158   1.09927   1.14860   1.33625
                   0.00000   0.00000   0.00000   0.00000   0.00000   0.00000
                  --------  --------  --------  --------  --------  --------
  0C   1s        -0.039349  0.001992 -0.000018 -0.001369  0.065409  0.089295
  0C   2s         1.052423  0.218007 -0.000643  0.125506  1.586754  1.234915
  0C   1pz       -0.029055  0.011462  0.012680  0.024590  0.004138  0.006076
  0C   1px       -0.384839 -0.160976 -0.000143 -0.052737  0.102829 -0.017495
  0C   1py        0.149024 -0.111730  0.001840 -0.184159 -0.014336 -0.041204
  0C   3s        -1.659420 -0.998288  0.001930 -1.347808 -3.498351 -5.260018
  0C   2pz       -0.000803 -0.044132 -0.470380 -0.061119 -0.006795  0.017518
  0C   2px        0.906854  0.136208  0.011704 -0.552315 -0.085120 -1.592747
  0C   2py        0.150450  0.343139 -0.066633  0.335163  0.039479 -0.405451
  0C   1dz2      -0.135529  0.080249 -0.016574  0.025385  0.021765  0.093583
  0C   1dxz       0.005854 -0.006223  0.047885  0.002583 -0.000384 -0.008707
  0C   1dyz      -0.028031  0.022106  0.075119 -0.002735  0.006648  0.011865
  0C   1dx2y2     0.041705  0.011491 -0.011971 -0.056597  0.008304 -0.061341
  0C   1dxy       0.010408  0.020719  0.004782 -0.035916 -0.002005  0.004613
  1C   1s         0.029262  0.007441 -0.000020 -0.008694 -0.018390 -0.041498
  1C   2s         0.635312  0.099508 -0.000385 -0.341980 -0.203047 -0.676764
  1C   1pz       -0.022563  0.011653 -0.208296  0.008485 -0.005809  0.003952
  1C   1px       -0.082315  0.177444  0.005308  0.251039 -0.157841  0.214547
  1C   1py        0.149791 -0.050123 -0.029381 -0.016216  0.012498  0.005567
  1C   3s        -0.732044  1.190410  0.000117  1.405818  1.931647  3.226935
  1C   2pz        0.041114  0.108624  1.040965 -0.022282  0.014083 -0.029810
  1C   2px        0.671923  0.072402 -0.025666 -1.423221  0.635069 -3.309897
  1C   2py       -0.184533 -0.755970  0.147253 -0.093268  0.015444 -0.371749
  1C   1dz2      -0.090626 -0.069202 -0.012338  0.019414  0.047450  0.106120
  1C   1dxz      -0.006581  0.012157 -0.010114  0.013747 -0.001841 -0.018950
  1C   1dyz      -0.023090 -0.024342  0.048091 -0.014049  0.021428  0.013962
  1C   1dx2y2    -0.017692 -0.036023 -0.006601 -0.108729  0.065795 -0.099504
  1C   1dxy       0.071652 -0.069633 -0.002672 -0.122267  0.008318  0.114870
  2H   1s        -0.541324  0.040068  0.087053 -0.055625  0.318749  0.349743
  2H   2s         1.074873  0.047437  0.093304 -0.077249  0.565249  0.267105
  3H   1s        -0.039677 -0.204295 -0.000099 -0.004028  0.232837  0.422297
  3H   2s         0.477751  0.826058 -0.000621  0.400379  0.755351  0.217166
  4H   1s        -0.538466  0.040356 -0.087036 -0.055536  0.318296  0.351585
  4H   2s         1.068251  0.047927 -0.094052 -0.077288  0.566746  0.266086
  5O   1s         0.024950 -0.005771  0.000010 -0.004416 -0.009872 -0.015628
  5O   2s        -0.120664  0.109140 -0.000127  0.070357  0.260249  0.311494
  5O   1pz        0.042391  0.029411  0.848740 -0.049252 -0.005679  0.014354
  5O   1px       -0.183298  0.171567 -0.021154 -0.753712  0.165555 -0.101409
  5O   1py       -0.316346 -0.172939  0.119760  0.214893  0.069207 -0.116172
  5O   3s         0.022394 -0.068161 -0.000197 -0.102989 -0.841507 -0.315671
  5O   2pz       -0.095932 -0.048817 -1.301731  0.084349 -0.024366 -0.008962
  5O   2px        0.132132 -0.157633  0.032396  1.369784 -0.315828  0.700130
  5O   2py        0.687169  0.312014 -0.183663 -0.354213  0.117681  0.180129
  5O   1dz2      -0.026325  0.011050  0.007952  0.034507  0.127075  0.074117
  5O   1dxz       0.001743 -0.002966 -0.026681 -0.014614 -0.009449 -0.004933
  5O   1dyz      -0.009288  0.002865 -0.036599  0.021730  0.026866  0.011636
  5O   1dx2y2    -0.016829 -0.002232  0.005936  0.071878 -0.038043 -0.044134
  5O   1dxy      -0.006261  0.017096 -0.002824  0.104992  0.019293  0.014073
  6O   1s         0.000098  0.060663 -0.000011 -0.003988 -0.015667  0.003932
  6O   2s         0.031180 -0.418533 -0.000018  0.097104  0.225753  0.052538
  6O   1pz        0.006003 -0.097653  0.311820 -0.031547 -0.046269  0.055001
  6O   1px        0.075678 -0.374278 -0.007683  0.091853  0.290658 -0.218583
  6O   1py       -0.062269  0.615927  0.044163  0.241839  0.378690 -0.425294
  6O   3s        -0.170101  0.010306 -0.000229  0.079885 -0.600861 -0.033429
  6O   2pz       -0.001675  0.180764 -0.586611  0.055910  0.138674 -0.200656
  6O   2px       -0.084093  0.932109  0.014448  0.069988 -0.457909  0.758954
  6O   2py        0.040558 -1.100180 -0.083263 -0.386735 -1.061118  1.539561
  6O   1dz2      -0.009509 -0.069036 -0.003947 -0.019191  0.154154 -0.053813
  6O   1dxz      -0.000402 -0.002773 -0.033930  0.004507  0.000934 -0.015850
  6O   1dyz      -0.000661 -0.017802  0.010205 -0.010499  0.024932  0.014569
  6O   1dx2y2     0.012866 -0.010534 -0.000579 -0.034396 -0.081610  0.145963
  6O   1dxy       0.008924  0.039610 -0.005099 -0.031852 -0.070636  0.147097
  7H   1s         0.023499  0.558516 -0.000299 -0.000142 -0.264072  0.512431
  7H   2s        -0.052739 -1.216107  0.000112 -0.203996 -0.307590  0.639137
                     42        43        44        45        46        47   
                   1.34505   1.44142   1.59161   1.63515   1.72022   1.74015
                   0.00000   0.00000   0.00000   0.00000   0.00000   0.00000
                  --------  --------  --------  --------  --------  --------
  0C   1s        -0.000670  0.000004 -0.010202 -0.013432  0.000159 -0.079991
  0C   2s        -0.009133  0.000108 -0.234856 -0.587815  0.000092 -0.284300
  0C   1pz        0.106333 -0.034854 -0.009635  0.012518 -0.090184  0.000232
  0C   1px       -0.002531  0.000904 -0.043883 -0.141486  0.001455  0.317707
  0C   1py        0.015349 -0.004874  0.060581 -0.113051 -0.012939  0.054617
  0C   3s         0.039780 -0.000671  0.728836  1.457327 -0.005215  3.068817
  0C   2pz       -0.022595 -0.129624 -0.032140 -0.056927  0.282471  0.004545
  0C   2px        0.012941  0.002900  0.113970  0.257884 -0.008495  0.785643
  0C   2py        0.000324 -0.018442  0.249018  0.447241  0.040242  0.108578
  0C   1dz2       0.066413 -0.023888 -0.192286  0.215089 -0.037583  0.195041
  0C   1dxz      -0.300611  0.242647  0.069742 -0.055783  0.285514 -0.019504
  0C   1dyz      -0.324123  0.138954 -0.050928  0.070520  0.201475  0.009347
  0C   1dx2y2     0.054523 -0.025898  0.055286  0.056218 -0.035384 -0.279756
  0C   1dxy      -0.034277  0.030362 -0.424006  0.335715  0.035439  0.029335
  1C   1s         0.000316 -0.000006 -0.006795  0.022265 -0.000033  0.024371
  1C   2s         0.005170  0.000043  0.002702 -0.010543 -0.001554  0.740088
  1C   1pz       -0.073524  0.074738 -0.005239  0.006262  0.027350  0.002990
  1C   1px        0.000031 -0.001749 -0.026701 -0.030279 -0.000520 -0.151982
  1C   1py       -0.010360  0.010637  0.031799 -0.050320  0.003894 -0.047933
  1C   3s        -0.025664  0.000157  0.891485  1.485993  0.003504 -1.493749
  1C   2pz        0.153087 -0.141303  0.133028 -0.024563 -0.187138 -0.118474
  1C   2px        0.021688  0.002435  0.992016  1.158185  0.000590  2.403269
  1C   2py        0.024296 -0.019316 -0.759967  0.386097 -0.029471  1.268410
  1C   1dz2       0.069129  0.131938  0.071021 -0.030799  0.000032  0.200035
  1C   1dxz       0.557949 -0.178944 -0.013070 -0.000968  0.008031 -0.003056
  1C   1dyz      -0.179316 -0.559824  0.008069  0.004251 -0.000379 -0.018451
  1C   1dx2y2     0.012857  0.084783 -0.078648  0.077906  0.000915 -0.453381
  1C   1dxy       0.083055 -0.010108  0.058302  0.032325  0.001473 -0.120336
  2H   1s        -0.107844  0.083047 -0.080305 -0.096402  0.018877 -0.300410
  2H   2s         0.095911  0.065911 -0.088887 -0.289503 -0.138960 -0.105492
  3H   1s        -0.003024  0.000148  0.063361  0.009986  0.000723 -0.319219
  3H   2s        -0.001286 -0.000147 -0.058594  0.040967  0.000458 -0.162481
  4H   1s         0.102473 -0.083103 -0.080103 -0.096225 -0.017796 -0.300569
  4H   2s        -0.099772 -0.065927 -0.088572 -0.289870  0.138932 -0.105356
  5O   1s         0.000132 -0.000000  0.006982 -0.038614 -0.000021 -0.000275
  5O   2s        -0.002803  0.000234 -0.052821  1.242842 -0.000601  0.523519
  5O   1pz        0.046991  0.113429 -0.005230  0.033073  0.023291  0.001026
  5O   1px       -0.000503 -0.002944  0.099151 -0.112407 -0.001109  0.200679
  5O   1py        0.007608  0.016124  0.054756 -0.254403  0.003043  0.028761
  5O   3s         0.003232 -0.000586 -0.020768 -2.427882  0.002781 -1.645337
  5O   2pz       -0.096073  0.159973 -0.024885 -0.132879  0.021680 -0.079995
  5O   2px       -0.003104 -0.003709 -0.326678  0.148158  0.000209 -0.377167
  5O   2py       -0.015221  0.022645  0.116140  0.967549  0.002404  0.500266
  5O   1dz2       0.023565 -0.084550  0.219457 -0.125158 -0.010022  0.227118
  5O   1dxz       0.181855  0.147442 -0.014887  0.011099  0.148989 -0.057334
  5O   1dyz      -0.064014  0.365893  0.036340 -0.055500  0.064365  0.051473
  5O   1dx2y2     0.004888 -0.056429 -0.128572 -0.156407 -0.013042 -0.095447
  5O   1dxy       0.027081  0.011157  0.010951 -0.067444  0.018405  0.317541
  6O   1s        -0.000004 -0.000002 -0.035720 -0.010456 -0.000035  0.009251
  6O   2s        -0.001324 -0.000127  1.271230  0.628276  0.000615 -0.014681
  6O   1pz        0.026529 -0.060243 -0.025789 -0.001098 -0.018239  0.007723
  6O   1px        0.001154  0.001446 -0.228673 -0.036302  0.000043  0.169528
  6O   1py        0.007191 -0.008724  0.141339  0.000999 -0.002458 -0.024067
  6O   3s         0.001793  0.000618 -2.519741 -1.471174 -0.000937 -0.141598
  6O   2pz       -0.205479  0.012483  0.082220  0.048177  0.097027  0.012659
  6O   2px       -0.001151 -0.000128  0.751501  0.220444 -0.001337 -0.429599
  6O   2py       -0.041505  0.002751 -0.445942 -0.301312  0.013814 -0.165821
  6O   1dz2      -0.097458 -0.037085 -0.314388  0.097743 -0.122121  0.025380
  6O   1dxz      -0.151972 -0.326309  0.016250 -0.003413  0.669031  0.015799
  6O   1dyz       0.363918  0.088033 -0.088235 -0.020031  0.607889  0.053641
  6O   1dx2y2    -0.050039 -0.004034 -0.062084 -0.294928 -0.105514  0.325105
  6O   1dxy      -0.032374 -0.048439 -0.025738 -0.065348  0.078774 -0.050398
  7H   1s        -0.004229  0.000238  0.184794  0.087187 -0.000178  0.111979
  7H   2s        -0.005473  0.000467  0.160311  0.142588 -0.000058  0.048764
                     48        49        50        51        52        53   
                   1.80786   1.81934   1.85299   1.89471   1.97300   2.02663
                   0.00000   0.00000   0.00000   0.00000   0.00000   0.00000
                  --------  --------  --------  --------  --------  --------
  0C   1s         0.000054  0.017817 -0.009833 -0.004927  0.000050 -0.011908
  0C   2s         0.002547  0.481500 -0.177826  0.022573 -0.000539  0.078017
  0C   1pz       -0.034348 -0.007737 -0.014531  0.004144 -0.006649 -0.012044
  0C   1px        0.001464  0.090565 -0.048567 -0.027580 -0.000247  0.051247
  0C   1py       -0.004308  0.072348  0.094136 -0.034490 -0.001262  0.094045
  0C   3s        -0.005234 -1.165879  0.278177 -0.429570 -0.001052  0.050481
  0C   2pz        0.174084  0.005663  0.096456 -0.121302 -0.570592 -0.011402
  0C   2px       -0.006197 -0.392162  0.108384 -0.278497  0.014085 -0.165576
  0C   2py        0.023798 -0.119016 -0.663151  0.815513 -0.079597  0.039534
  0C   1dz2      -0.038648  0.013816 -0.150356  0.287425  0.122562  0.394467
  0C   1dxz       0.268890  0.014115  0.082053 -0.057764 -0.358414  0.015952
  0C   1dyz       0.203551 -0.024225 -0.038229  0.049018 -0.558974  0.079497
  0C   1dx2y2    -0.036979 -0.156414  0.088715 -0.212787  0.089313 -0.070928
  0C   1dxy       0.031282 -0.143760 -0.517261  0.282394 -0.035173 -0.257057
  1C   1s        -0.000139 -0.029859  0.018643  0.013538 -0.000040  0.006322
  1C   2s        -0.001278 -0.306353  0.234459  0.027678 -0.001630  0.394735
  1C   1pz       -0.002630  0.003578  0.021171  0.026000  0.169071  0.007389
  1C   1px       -0.000216 -0.005223  0.016733 -0.146740 -0.003963 -0.147625
  1C   1py       -0.000760 -0.026333 -0.146476 -0.211353  0.023937 -0.074974
  1C   3s         0.008619  1.828336 -0.792247 -1.517294  0.003321 -0.693146
  1C   2pz       -0.111272  0.128978 -0.207596  0.398513  0.607980 -0.009252
  1C   2px        0.006000  0.451366 -0.892800 -0.470424 -0.015466 -0.238459
  1C   2py       -0.020538 -0.822248  1.305463 -2.912367  0.081930  0.034064
  1C   1dz2      -0.001841 -0.187925  0.185734  0.381538  0.026000  0.488587
  1C   1dxz       0.118859  0.061959 -0.028880  0.044125 -0.267710 -0.053332
  1C   1dyz       0.025349 -0.073319  0.046269  0.126708 -0.156730  0.115182
  1C   1dx2y2    -0.007370 -0.106493 -0.027221  0.289227  0.029760 -0.081733
  1C   1dxy       0.013472 -0.401080  0.138175 -0.380732 -0.034713  0.200609
  2H   1s        -0.019136  0.062968 -0.048342 -0.110098  0.194855 -0.233175
  2H   2s        -0.042592  0.150739  0.055607 -0.034433  0.126649  0.044088
[...]
    Density eval.           ....       0.850 sec  ( 25.9% of XC)
    XC-Functional eval.     ....       0.333 sec  ( 10.1% of XC)
    XC-Potential eval.      ....       0.611 sec  ( 18.6% of XC)
Diagonalization             ....       0.004 sec  (  0.0%)
Density matrix formation    ....       0.001 sec  (  0.0%)
Population analysis         ....       0.016 sec  (  0.1%)
Initial guess               ....       0.177 sec  (  1.4%)
Orbital Transformation      ....       0.000 sec  (  0.0%)
Orbital Orthonormalization  ....       0.000 sec  (  0.0%)
DIIS solution               ....       0.004 sec  (  0.0%)
SOSCF solution              ....       0.005 sec  (  0.0%)
Grid generation             ....       1.394 sec  ( 10.9%)
------------------------------------------------------------------------------
                        ORCA TD-DFT/TDA CALCULATION
------------------------------------------------------------------------------

Input orbitals are from        ... /Users/lailaal-madhagi/Desktop/Testing_XAS_Analysis_code/AceticAcid//Results_dir_AceticAcid_geom_element_O_2019-11-03_20-05-49//GTE1_AceticAcid_geom_2019-11-03_20-06-00//TDDFT_O-edge.gbw
CI-vector output               ... /Users/lailaal-madhagi/Desktop/Testing_XAS_Analysis_code/AceticAcid//Results_dir_AceticAcid_geom_element_O_2019-11-03_20-05-49//GTE1_AceticAcid_geom_2019-11-03_20-06-00//TDDFT_O-edge.cis
Tamm-Dancoff approximation     ... operative
CIS-Integral strategy          ... AO-integrals
Integral handling              ... AO integral Direct
Max. core memory used          ... 512 MB
Reference state                ... RHF
Generation of triplets         ... off
Follow IRoot                   ... off
Number of operators            ... 1
Orbital ranges used for CIS calculation:
 Operator 0:  Orbitals   0...  1  to  16... 63
XAS localization array:
 Operator 0:  Orbitals  -1... -1
-------------------
XC-INTEGRATION GRID
-------------------

General Integration Accuracy     IntAcc      ...  3.670
Radial Grid Type                 RadialGrid  ... Gauss-Chebyshev
Angular Grid (max. acc.)         AngularGrid ... Lebedev-50
Angular grid pruning method      GridPruning ... 3 (G Style)
Weight generation scheme         WeightScheme... Becke
Basis function cutoff            BFCut       ...    1.0000e-11
Integration weight cutoff        WCut        ...    1.0000e-14
Grids for H and He will be reduced by one unit

# of grid points (after initial pruning)     ...   4616 (   0.0 sec)
# of grid points (after weights+screening)   ...   4449 (   0.0 sec)
nearest neighbour list constructed           ...    0.0 sec
Grid point re-assignment to atoms done       ...    0.0 sec
Grid point division into batches done        ...    0.0 sec
Reduced shell lists constructed in    0.0 sec

Total number of grid points                  ...     4449
Total number of batches                      ...       74
Average number of points per batch           ...       60
Average number of grid points per atom       ...      556
Average number of shells per batch           ...    28.03 (87.58%)
Average number of basis functions per batch  ...    58.03 (90.67%)
Average number of large shells per batch     ...    24.32 (86.77%)
Average number of large basis fcns per batch ...    50.45 (86.95%)
Maximum spatial batch extension              ...  16.66, 19.55, 22.67 au
Average spatial batch extension              ...   5.27,  4.91,  5.30 au


---------------
TD-DFT XC SETUP
---------------

DFT calculation                         ... on
Name of the grid file                   ... /Users/lailaal-madhagi/Desktop/Testing_XAS_Analysis_code/AceticAcid//Results_dir_AceticAcid_geom_element_O_2019-11-03_20-05-49//GTE1_AceticAcid_geom_2019-11-03_20-06-00//TDDFT_O-edge.grid_cis.tmp
Exchange functional (SCF)               ... B88
Exchange functional (TD-DFT)            ... B88
   X-Alpha parameter    XAlpha (SCF)    ...  0.666667
   X-Alpha parameter    XAlpha (TD-DFT) ...  0.666667
   Becke's b parameter  XBeta (SCF)     ...  0.004200
   Becke's b parameter  XBeta (TD-DFT)  ...  0.004200
Correlation functional (SCF)            ... LYP
Correlation functional (TD-DFT)         ... LYP
 LDA part of GGA corr.  LDAOpt (SCF)    ... VWN-5
 LDA part of GGA corr.  LDAOpt (TD-DFT) ... VWN-5
Hybrid DFT                              ... on
   Exchange mixing (SCF)                ...  0.200
   Exchange mixing (TD-DFT)             ...  0.200
   GGA exch. scaling(SCF)               ...  0.720
   GGA exch. scaling (TD-DFT)           ...  0.720
   GGA corr. scaling (SCF)              ...  0.810
   GGA corr. scaling (TD-DFT)           ...  0.810

Building densities             ... done
Calculating rho(r) on the grid ... done
Building xc-kernel on the grid ... done
                    *** TD-DFT CALCULATION INITIALIZED ***


------------------------
DAVIDSON-DIAGONALIZATION
------------------------

Dimension of the eigenvalue problem            ...     96
Number of roots to be determined               ...     20
Maximum size of the expansion space            ...     96
Maximum number of iterations                   ...    100
Convergence tolerance for the residual         ...    2.500e-07
Convergence tolerance for the energies         ...    2.500e-07
Orthogonality tolerance                        ...    1.000e-14
Level Shift                                    ...    0.000e+00
Constructing the preconditioner                ... o.k.
Building the initial guess                     ... o.k.
Number of trial vectors determined             ...     96


                       ****Iteration    0****

   Memory handling for direct AO based CIS:
   Memory per vector needed      ...     1 MB
   Memory needed                 ...     7 MB
   Memory available              ...   512 MB
   Number of vectors per batch   ...   512
   Number of batches             ...     1
   Time for densities:     0.008
   Using LibInt in JK Direct
   Time for J+K (Direct):    10.905
   Time for XC-Integration:     1.120
   Time for Sigma-Completion:     0.037
   Size of expansion space: 60
   Lowest Energy          :    19.041972890431
   Maximum Energy change  :    19.649450408537 (vector 19)
   Maximum residual norm  :     0.000287489437

                       ****Iteration    1****
   Time for densities:     0.001
   Using LibInt in JK Direct
   Time for J+K (Direct):     2.517
   Time for XC-Integration:     0.257
   Time for Sigma-Completion:     0.013
   Size of expansion space: 80
   Lowest Energy          :    19.041942144081
   Maximum Energy change  :     0.000185149586 (vector 14)
   Maximum residual norm  :     0.000000076588

      *** CONVERGENCE OF RESIDUAL NORM REACHED ***

Storing the converged CI vectors               ... /Users/lailaal-madhagi/Desktop/Testing_XAS_Analysis_code/AceticAcid//Results_dir_AceticAcid_geom_element_O_2019-11-03_20-05-49//GTE1_AceticAcid_geom_2019-11-03_20-06-00//TDDFT_O-edge.cis1

                 *** DAVIDSON DONE ***

Total time for solving the CIS problem:    15.164sec

------------------------------------
TD-DFT/TDA EXCITED STATES (SINGLETS)
------------------------------------

the weight of the individual excitations are printed if larger than 1.0e-02

STATE  1:  E=  19.041942 au    518.158 eV  4179223.2 cm**-1
     1a ->  16a  :     0.988117 (c=  0.99404073)
     1a ->  20a  :     0.010578 (c=  0.10284907)

STATE  2:  E=  19.128911 au    520.524 eV  4198310.7 cm**-1
     0a ->  16a  :     0.996027 (c=  0.99801135)

STATE  3:  E=  19.138433 au    520.783 eV  4200400.6 cm**-1
     1a ->  17a  :     0.997107 (c= -0.99855226)

STATE  4:  E=  19.163790 au    521.473 eV  4205965.8 cm**-1
     0a ->  17a  :     0.961955 (c= -0.98079330)
     0a ->  18a  :     0.019471 (c= -0.13953869)
     0a ->  19a  :     0.013893 (c= -0.11786749)

STATE  5:  E=  19.207997 au    522.676 eV  4215668.0 cm**-1
     1a ->  18a  :     0.984081 (c= -0.99200862)
     1a ->  19a  :     0.012060 (c=  0.10981609)

STATE  6:  E=  19.227789 au    523.215 eV  4220011.9 cm**-1
     1a ->  18a  :     0.012408 (c=  0.11139260)
     1a ->  19a  :     0.978125 (c=  0.98900199)

STATE  7:  E=  19.248404 au    523.776 eV  4224536.3 cm**-1
     1a ->  16a  :     0.010701 (c=  0.10344388)
     1a ->  20a  :     0.989011 (c= -0.99449015)

STATE  8:  E=  19.264809 au    524.222 eV  4228136.8 cm**-1
     0a ->  17a  :     0.017887 (c=  0.13374239)
     0a ->  18a  :     0.917596 (c= -0.95791223)
     0a ->  19a  :     0.010358 (c=  0.10177183)
     0a ->  21a  :     0.041934 (c= -0.20477798)

STATE  9:  E=  19.270731 au    524.383 eV  4229436.6 cm**-1
     1a ->  21a  :     0.988938 (c=  0.99445352)

STATE 10:  E=  19.285778 au    524.793 eV  4232739.1 cm**-1
     0a ->  17a  :     0.016973 (c=  0.13027918)
     0a ->  18a  :     0.013542 (c= -0.11637086)
     0a ->  19a  :     0.951987 (c= -0.97569803)
     0a ->  21a  :     0.014743 (c=  0.12142065)

STATE 11:  E=  19.316760 au    525.636 eV  4239538.7 cm**-1
     0a ->  20a  :     0.996547 (c= -0.99827190)

STATE 12:  E=  19.326589 au    525.903 eV  4241696.0 cm**-1
     0a ->  18a  :     0.042534 (c= -0.20623760)
     0a ->  19a  :     0.021847 (c=  0.14780881)
     0a ->  21a  :     0.917134 (c=  0.95767103)
     0a ->  23a  :     0.011695 (c= -0.10814335)

STATE 13:  E=  19.379596 au    527.346 eV  4253329.7 cm**-1
     1a ->  22a  :     0.986361 (c=  0.99315694)

STATE 14:  E=  19.416424 au    528.348 eV  4261412.4 cm**-1
     1a ->  23a  :     0.984474 (c=  0.99220653)

STATE 15:  E=  19.440837 au    529.012 eV  4266770.4 cm**-1
     0a ->  21a  :     0.012720 (c=  0.11278185)
     0a ->  22a  :     0.897949 (c=  0.94760172)
     0a ->  23a  :     0.079862 (c=  0.28259940)

STATE 16:  E=  19.472313 au    529.869 eV  4273678.7 cm**-1
     0a ->  21a  :     0.011396 (c=  0.10675397)
     0a ->  22a  :     0.089676 (c= -0.29946016)
     0a ->  23a  :     0.886541 (c=  0.94156297)

STATE 17:  E=  19.585803 au    532.957 eV  4298587.0 cm**-1
     1a ->  24a  :     0.981388 (c= -0.99065032)
     1a ->  27a  :     0.017952 (c= -0.13398448)

STATE 18:  E=  19.605097 au    533.482 eV  4302821.4 cm**-1
     1a ->  25a  :     0.939730 (c=  0.96939680)
     1a ->  26a  :     0.028987 (c= -0.17025581)
     1a ->  28a  :     0.018763 (c=  0.13697954)

STATE 19:  E=  19.635231 au    534.302 eV  4309435.1 cm**-1
     1a ->  25a  :     0.028550 (c= -0.16896879)
     1a ->  26a  :     0.959746 (c= -0.97966610)

STATE 20:  E=  19.649436 au    534.688 eV  4312552.7 cm**-1
     0a ->  24a  :     0.986744 (c= -0.99334994)
     0a ->  27a  :     0.011332 (c= -0.10645089)


-----------------------------
TD-DFT/TDA-EXCITATION SPECTRA
-----------------------------

Center of mass = ( -4.4358,  0.3160,  0.0054)
Calculating the Dipole integrals                  ... done
Transforming integrals                            ... done
Calculating the Linear Momentum integrals         ... done
Transforming integrals                            ... done
Calculating angular momentum integrals            ... done
Transforming integrals                            ... done

-----------------------------------------------------------------------------
         ABSORPTION SPECTRUM VIA TRANSITION ELECTRIC DIPOLE MOMENTS
-----------------------------------------------------------------------------
State   Energy    Wavelength  fosc         T2        TX        TY        TZ  
        (cm-1)      (nm)                 (au**2)    (au)      (au)      (au) 
-----------------------------------------------------------------------------
   1 4179223.2      2.4   0.032751208   0.00258   0.00129  -0.00711  -0.05028
   2 4198310.7      2.4   0.013241468   0.00104  -0.00081   0.00448   0.03190
   3 4200400.6      2.4   0.001342846   0.00011   0.00366  -0.00948   0.00143
   4 4205965.8      2.4   0.020020113   0.00157   0.01853   0.03470  -0.00444
   5 4215668.0      2.4   0.000001268   0.00000   0.00001  -0.00031   0.00003
   6 4220011.9      2.4   0.006096793   0.00048  -0.02144   0.00387  -0.00106
   7 4224536.3      2.4   0.002761184   0.00022  -0.00032   0.00205   0.01452
   8 4228136.8      2.4   0.010062471   0.00078  -0.01546   0.02305  -0.00365
   9 4229436.6      2.4   0.005363047   0.00042  -0.00803  -0.01863   0.00246
  10 4232739.1      2.4   0.003583405   0.00028   0.01656   0.00209   0.00012
  11 4239538.7      2.4   0.000343038   0.00003   0.00012  -0.00067  -0.00512
  12 4241696.0      2.4   0.009250559   0.00072   0.01687  -0.02055   0.00333
  13 4253329.7      2.4   0.005098038   0.00039  -0.00637   0.01861  -0.00279
  14 4261412.4      2.3   0.007043057   0.00054  -0.02332  -0.00026  -0.00057
  15 4266770.4      2.3   0.013783813   0.00106   0.00249   0.03220  -0.00450
  16 4273678.7      2.3   0.013547269   0.00104  -0.02234   0.02301  -0.00385
  17 4298587.0      2.3   0.000517052   0.00004  -0.00018   0.00089   0.00623
  18 4302821.4      2.3   0.004134845   0.00032  -0.01175  -0.01326   0.00158
  19 4309435.2      2.3   0.011302297   0.00086  -0.02751   0.01011  -0.00212
  20 4312552.7      2.3   0.003254316   0.00025   0.00042  -0.00224  -0.01560

-----------------------------------------------------------------------------
         ABSORPTION SPECTRUM VIA TRANSITION VELOCITY DIPOLE MOMENTS
-----------------------------------------------------------------------------
State   Energy    Wavelength   fosc        P2         PX        PY        PZ  
        (cm-1)      (nm)                 (au**2)     (au)      (au)      (au) 
-----------------------------------------------------------------------------
   1 4179223.2      2.4   0.031815206   0.90873  -0.02415   0.13347   0.94358
   2 4198310.7      2.4   0.013181052   0.37821   0.01548  -0.08551  -0.60882
   3 4200400.6      2.4   0.001474664   0.04233  -0.07636   0.18891  -0.02857
   4 4205965.8      2.4   0.020523951   0.58998  -0.35791  -0.67410   0.08637
   5 4215668.0      2.4   0.000005123   0.00015   0.00900   0.00814  -0.00060
   6 4220011.9      2.4   0.005932399   0.17110   0.40681  -0.07217   0.01996
   7 4224536.3      2.4   0.002742977   0.07920   0.00612  -0.03938  -0.27858
   8 4228136.8      2.4   0.009869966   0.28521   0.28926  -0.44345   0.06997
   9 4229436.6      2.4   0.005285637   0.15279   0.14507   0.35982  -0.04768
  10 4232739.1      2.4   0.003599611   0.10413  -0.32129  -0.02988  -0.00391
  11 4239538.7      2.4   0.000267997   0.00777  -0.00211   0.01138   0.08736
  12 4241696.0      2.4   0.009067261   0.26286  -0.31923   0.39605  -0.06398
  13 4253329.7      2.4   0.005215707   0.15162   0.09775  -0.37284   0.05522
  14 4261412.4      2.3   0.006798027   0.19799   0.44352   0.03522   0.00650
  15 4266770.4      2.3   0.012973999   0.37834  -0.04701  -0.60740   0.08480
  16 4273678.7      2.3   0.013994635   0.40876   0.44276  -0.45488   0.07621
  17 4298587.0      2.3   0.000791311   0.02325   0.00424  -0.02143  -0.15090
  18 4302821.4      2.3   0.004091724   0.12033   0.21684   0.26879  -0.03261
  19 4309435.2      2.3   0.011093303   0.32673   0.53361  -0.20062   0.04172
  20 4312552.7      2.3   0.003561265   0.10497  -0.00864   0.04602   0.32058

-------------------------------------------------------------------
                             CD SPECTRUM
-------------------------------------------------------------------
State  Energy     Wavelength     R         MX        MY        MZ   
       (cm-1)       (nm)     (1e40*cgs)   (au)      (au)      (au)  
-------------------------------------------------------------------
   1 4179223.2      2.4     -0.00005  -1.11432   0.38062  -0.08236
   2 4198310.7      2.4     -0.00021  -0.54023  -0.53768   0.06178
   3 4200400.6      2.4      0.00008   0.00416  -0.02351  -0.16660
   4 4205965.8      2.4      0.00002  -0.02290   0.12789   0.90321
   5 4215668.0      2.4     -0.00008  -0.00055   0.00116   0.00727
   6 4220011.9      2.4      0.00007  -0.01206   0.07054   0.50094
   7 4224536.3      2.4      0.00031   0.32938  -0.11204   0.02308
   8 4228136.8      2.4      0.00005  -0.00364   0.01948   0.13849
   9 4229436.6      2.4     -0.00015   0.00007   0.00286   0.02177
  10 4232739.1      2.4      0.00015  -0.00774   0.04323   0.30526
  11 4239538.7      2.4     -0.00015   0.07787   0.07810  -0.00830
  12 4241696.0      2.4      0.00004   0.00198  -0.00991  -0.07123
  13 4253329.7      2.4     -0.00014  -0.00682   0.03758   0.26581
  14 4261412.4      2.3      0.00026  -0.01297   0.07086   0.50092
  15 4266770.4      2.3     -0.00011  -0.01462   0.08155   0.57602
  16 4273678.7      2.3      0.00000   0.00007   0.00294   0.01719
  17 4298587.0      2.3     -0.00030   0.17763  -0.06079   0.01363
  18 4302821.4      2.3     -0.00004  -0.00347   0.02012   0.14281
  19 4309435.2      2.3      0.00008  -0.01758   0.09890   0.70057
  20 4312552.7      2.3      0.00005   0.28464   0.28306  -0.03296

Total run time:       15.359 sec

           *** ORCA-CIS/TD-DFT FINISHED WITHOUT ERROR ***

-----------------------
CIS/TD-DFT TOTAL ENERGY
-----------------------

    E(SCF)  =   -228.947750482 Eh
    DE(CIS) =     19.041942144 Eh (Root  1)
    ----------------------------- ---------
    E(tot)  =   -209.905808338 Eh


-------------------------   --------------------
FINAL SINGLE POINT ENERGY      -209.905808338212
-------------------------   --------------------


                            ***************************************
                            *     ORCA property calculations      *
                            ***************************************

                                    ---------------------
                                    Active property flags
                                    ---------------------
   (+) Dipole Moment


------------------------------------------------------------------------------
                       ORCA ELECTRIC PROPERTIES CALCULATION
------------------------------------------------------------------------------

Dipole Moment Calculation                       ... on
Quadrupole Moment Calculation                   ... off
Polarizability Calculation                      ... off
GBWName                                         ... /Users/lailaal-madhagi/Desktop/Testing_XAS_Analysis_code/AceticAcid//Results_dir_AceticAcid_geom_element_O_2019-11-03_20-05-49//GTE1_AceticAcid_geom_2019-11-03_20-06-00//TDDFT_O-edge.gbw
Electron density file                           ... /Users/lailaal-madhagi/Desktop/Testing_XAS_Analysis_code/AceticAcid//Results_dir_AceticAcid_geom_element_O_2019-11-03_20-05-49//GTE1_AceticAcid_geom_2019-11-03_20-06-00//TDDFT_O-edge.scfp.tmp
The origin for moment calculation is the CENTER OF MASS  = (-4.435795,  0.316047  0.005376)

-------------
DIPOLE MOMENT
-------------
                                X             Y             Z
Electronic contribution:      3.58595       1.33613      -0.09808
Nuclear contribution   :     -4.65644      -2.61034       0.25077
                        -----------------------------------------
Total Dipole Moment    :     -1.07050      -1.27420       0.15269
                        -----------------------------------------
Magnitude (a.u.)       :      1.67119
Magnitude (Debye)      :      4.24782



--------------------
Rotational spectrum 
--------------------
 
Rotational constants in cm-1:     0.366116     0.314873     0.174782 
Rotational constants in MHz : 10975.885985  9439.640372  5239.830197 

 Dipole components along the rotational axes: 
x,y,z [a.u.] :    -1.110239    -1.249096    -0.000158 
x,y,z [Debye]:    -2.822003    -3.174949    -0.000401 

 

Timings for individual modules:

Sum of individual times         ...       29.704 sec (=   0.495 min)
GTO integral calculation        ...        0.314 sec (=   0.005 min)   1.1 %
SCF iterations                  ...       12.848 sec (=   0.214 min)  43.3 %
CIS module                      ...       16.542 sec (=   0.276 min)  55.7 %
                             ****ORCA TERMINATED NORMALLY****
TOTAL RUN TIME: 0 days 0 hours 0 minutes 29 seconds 842 msec
