
                                 *****************
                                 * O   R   C   A *
                                 *****************

           --- An Ab Initio, DFT and Semiempirical electronic structure package ---

                  #######################################################
                  #                        -***-                        #
                  #          Department of theory and spectroscopy      #
                  #               Directorship: Frank Neese             #
                  #        Max Planck Institute fuer Kohlenforschung    #
                  #                Kaiser Wilhelm Platz 1               #
                  #                 D-45470 Muelheim/Ruhr               #
                  #                      Germany                        #
                  #                                                     #
                  #                  All rights reserved                #
                  #                        -***-                        #
                  #######################################################


                         Program Version 4.1.0  - RELEASE  -


 With contributions from (in alphabetic order):
   Daniel Aravena         : Magnetic Properties
   Michael Atanasov       : Ab Initio Ligand Field Theory
   Alexander A. Auer      : GIAO ZORA
   Ute Becker             : Parallelization
   Giovanni Bistoni       : ED, Open-shell LED
   Martin Brehm           : Molecular dynamics
   Dmytro Bykov           : SCF Hessian
   Vijay G. Chilkuri      : MRCI spin determinant printing
   Dipayan Datta          : RHF DLPNO-CCSD density
   Achintya Kumar Dutta   : EOM-CC, STEOM-CC
   Dmitry Ganyushin       : Spin-Orbit,Spin-Spin,Magnetic field MRCI
   Miquel Garcia          : C-PCM Hessian
   Yang Guo               : DLPNO-NEVPT2, CIM, IAO-localization
   Andreas Hansen         : Spin unrestricted coupled pair/coupled cluster methods
   Benjamin Helmich-Paris : CASSCF linear response (MC-RPA)
   Lee Huntington         : MR-EOM, pCC
   Robert Izsak           : Overlap fitted RIJCOSX, COSX-SCS-MP3, EOM
   Christian Kollmar      : KDIIS, OOCD, Brueckner-CCSD(T), CCSD density
   Simone Kossmann        : Meta GGA functionals, TD-DFT gradient, OOMP2, MP2 Hessian
   Martin Krupicka        : AUTO-CI
   Lucas Lang             : DCDCAS
   Dagmar Lenk            : GEPOL surface, SMD
   Dimitrios Liakos       : Extrapolation schemes; parallel MDCI
   Dimitrios Manganas     : ROCIS; embedding schemes
   Dimitrios Pantazis     : SARC Basis sets
   Taras Petrenko         : DFT Hessian,TD-DFT gradient, ASA, ECA, R-Raman, ABS, FL, XAS/XES, NRVS
   Peter Pinski           : DLPNO-MP2, DLPNO-MP2 Gradient
   Christoph Reimann      : Effective Core Potentials
   Marius Retegan         : Local ZFS, SOC
   Christoph Riplinger    : Optimizer, TS searches, QM/MM, DLPNO-CCSD(T), (RO)-DLPNO pert. Triples
   Tobias Risthaus        : Range-separated hybrids, TD-DFT gradient, RPA, STAB
   Michael Roemelt        : Restricted open shell CIS
   Masaaki Saitow         : Open-shell DLPNO
   Barbara Sandhoefer     : DKH picture change effects
   Avijit Sen             : IP-ROCIS
   Kantharuban Sivalingam : CASSCF convergence, NEVPT2, FIC-MRCI
   Bernardo de Souza      : ESD, SOC TD-DFT
   Georgi Stoychev        : AutoAux, RI-MP2 NMR
   Willem Van den Heuvel  : Paramagnetic NMR
   Boris Wezisla          : Elementary symmetry handling
   Frank Wennmohs         : Technical directorship


 We gratefully acknowledge several colleagues who have allowed us to
 interface, adapt or use parts of their codes:
   Stefan Grimme, W. Hujo, H. Kruse,             : VdW corrections, initial TS optimization,
                  C. Bannwarth                     DFT functionals, gCP, sTDA/sTD-DF
   Ed Valeev                                     : LibInt (2-el integral package), F12 methods
   Garnet Chan, S. Sharma, J. Yang, R. Olivares  : DMRG
   Ulf Ekstrom                                   : XCFun DFT Library
   Mihaly Kallay                                 : mrcc  (arbitrary order and MRCC methods)
   Andreas Klamt, Michael Diedenhofen            : otool_cosmo (COSMO solvation model)
   Jiri Pittner, Ondrej Demel                    : Mk-CCSD
   Frank Weinhold                                : gennbo (NPA and NBO analysis)
   Christopher J. Cramer and Donald G. Truhlar   : smd solvation model
   Lars Goerigk                                  : TD-DFT with DH, B97 family of functionals
   V. Asgeirsson, H. Jonsson                     : NEB implementation
   FAccTs GmbH                                   : IRC, NEB, NEB-TS, Multilevel


 Your calculation uses the libint2 library for the computation of 2-el integrals
 For citations please refer to: http://libint.valeyev.net

 This ORCA versions uses:
   CBLAS   interface :  Fast vector & matrix operations
   LAPACKE interface :  Fast linear algebra routines
   SCALAPACK package :  Parallel linear algebra routines




***************************************
The coordinates will be read from file: /Users/lailaal-madhagi/Desktop/Testing_XAS_Analysis_code/Nitrobenzene//Results_dir_Nitrobenzene_geom_element_C_2019-11-11_21-50-52//GTE1_Nitrobenzene_geom_2019-11-11_21-51-18//opt.xyz
***************************************


----- Orbital basis set information -----
Your calculation utilizes the basis: 6-31G*
   H-He, Li-Ne : W. J. Hehre, R. Ditchfield and J.A. Pople, J. Chem. Phys. 56, 2257 (1972).
                 Note: He and Ne are unpublished basis sets taken from the Gaussian program.
                 Note: Li and B from J. D. Dill and J. A. Pople, J. Chem. Phys. 62, 2921 (1975).
   Na - Ar     : M. M. Francl, W. J. Pietro, W. J. Hehre, J. S. Binkley, M. S. Gordon, 
                 D. J. DeFrees and J. A. Pople, J. Chem. Phys. 77, 3654 (1982).
   K - Zn      : V. A. Rassolov, J. A. Pople, M. A. Ratner, and T. L. Windus, J. Chem. Phys. 109, 1223 (1998).

================================================================================
                                        WARNINGS
                       Please study these warnings very carefully!
================================================================================


INFO   : the flag for use of LIBINT has been found!

================================================================================
                                       INPUT FILE
================================================================================
NAME = /Users/lailaal-madhagi/Desktop/Testing_XAS_Analysis_code/Nitrobenzene//Results_dir_Nitrobenzene_geom_element_C_2019-11-11_21-50-52//GTE1_Nitrobenzene_geom_2019-11-11_21-51-18//freq.inp
|  1> ! B3LYP 6-31G* TIGHTSCF Grid3 FinalGrid5 Freq 
|  2> !NormalPrint 
|  3> %output 
|  4> Print[P_Basis] 2 
|  5> Print[P_MOS] 1 
|  6> end 
|  7> *xyzfile 0 1 /Users/lailaal-madhagi/Desktop/Testing_XAS_Analysis_code/Nitrobenzene//Results_dir_Nitrobenzene_geom_element_C_2019-11-11_21-50-52//GTE1_Nitrobenzene_geom_2019-11-11_21-51-18//opt.xyz                           ****END OF INPUT****
================================================================================

                       ****************************
                       * Single Point Calculation *
                       ****************************

---------------------------------
CARTESIAN COORDINATES (ANGSTROEM)
---------------------------------
  C     -3.439270    2.046871   -0.037377
  C     -2.041605    2.081065   -0.061782
  C     -4.113840    0.826247    0.064000
  C     -3.396672   -0.366641    0.141544
  C     -2.003787   -0.308413    0.115533
  C     -1.310055    0.896942    0.015008
  N     -1.238118   -1.564615    0.197074
  O     -1.872624   -2.615445    0.284404
  O     -0.010114   -1.487405    0.172999
  H     -3.889547   -1.327924    0.220729
  H     -4.003894    2.973326   -0.097498
  H     -5.199587    0.801771    0.082801
  H     -0.226968    0.890008   -0.001260
  H     -1.519498    3.030193   -0.140615

----------------------------
CARTESIAN COORDINATES (A.U.)
----------------------------
  NO LB      ZA    FRAG     MASS         X           Y           Z
   0 C     6.0000    0    12.011   -6.499278    3.868026   -0.070633
   1 C     6.0000    0    12.011   -3.858074    3.932643   -0.116751
   2 C     6.0000    0    12.011   -7.774032    1.561380    0.120943
   3 C     6.0000    0    12.011   -6.418780   -0.692850    0.267479
   4 C     6.0000    0    12.011   -3.786608   -0.582816    0.218325
   5 C     6.0000    0    12.011   -2.475645    1.694974    0.028361
   6 N     7.0000    0    14.007   -2.339705   -2.956695    0.372417
   7 O     8.0000    0    15.999   -3.538747   -4.942475    0.537445
   8 O     8.0000    0    15.999   -0.019113   -2.810789    0.326922
   9 H     1.0000    0     1.008   -7.350179   -2.509412    0.417118
  10 H     1.0000    0     1.008   -7.566263    5.618772   -0.184244
  11 H     1.0000    0     1.008   -9.825796    1.515127    0.156472
  12 H     1.0000    0     1.008   -0.428908    1.681872   -0.002382
  13 H     1.0000    0     1.008   -2.871435    5.726235   -0.265724

--------------------------------
INTERNAL COORDINATES (ANGSTROEM)
--------------------------------
 C      0   0   0     0.000000000000     0.00000000     0.00000000
 C      1   0   0     1.398296057935     0.00000000     0.00000000
 C      1   2   0     1.398301521915   120.31912569     0.00000000
 C      3   1   2     1.394031231572   120.18718173     0.00000000
 C      4   3   1     1.394344310341   118.49916750     0.00000000
 C      2   1   3     1.393990950708   120.18657660     0.00000000
 N      5   4   3     1.473411790630   118.84729935   179.99802953
 O      7   5   4     1.230636665692   117.64601200     0.03802535
 O      7   5   4     1.230664321724   117.64300312   180.04098218
 H      4   3   1     1.083172253025   121.96433653   180.00325230
 H      1   2   3     1.086615867297   119.83918017   180.00088501
 H      3   1   2     1.086185363076   120.20875609   180.00011316
 H      6   2   1     1.083230674190   121.96006001   180.00947525
 H      2   1   3     1.086118798274   120.20719466   179.99741991

---------------------------
INTERNAL COORDINATES (A.U.)
---------------------------
 C      0   0   0     0.000000000000     0.00000000     0.00000000
 C      1   0   0     2.642396603639     0.00000000     0.00000000
 C      1   2   0     2.642406929065   120.31912569     0.00000000
 C      3   1   2     2.634337249803   120.18718173     0.00000000
 C      4   3   1     2.634928882935   118.49916750     0.00000000
 C      2   1   3     2.634261130002   120.18657660     0.00000000
 N      5   4   3     2.784344766781   118.84729935   179.99802953
 O      7   5   4     2.325566268520   117.64601200     0.03802535
 O      7   5   4     2.325618530846   117.64300312   180.04098218
 H      4   3   1     2.046898914080   121.96433653   180.00325230
 H      1   2   3     2.053406401964   119.83918017   180.00088501
 H      3   1   2     2.052592866888   120.20875609   180.00011316
 H      6   2   1     2.047009314082   121.96006001   180.00947525
 H      2   1   3     2.052467077642   120.20719466   179.99741991

---------------------
BASIS SET INFORMATION
---------------------
There are 4 groups of distinct atoms

 Group   1 Type C   : 10s4p1d contracted to 3s2p1d pattern {631/31/1}
 Group   2 Type N   : 10s4p1d contracted to 3s2p1d pattern {631/31/1}
 Group   3 Type O   : 10s4p1d contracted to 3s2p1d pattern {631/31/1}
 Group   4 Type H   : 4s contracted to 2s pattern {31}

Atom   0C    basis set group =>   1
Atom   1C    basis set group =>   1
Atom   2C    basis set group =>   1
Atom   3C    basis set group =>   1
Atom   4C    basis set group =>   1
Atom   5C    basis set group =>   1
Atom   6N    basis set group =>   2
Atom   7O    basis set group =>   3
Atom   8O    basis set group =>   3
Atom   9H    basis set group =>   4
Atom  10H    basis set group =>   4
Atom  11H    basis set group =>   4
Atom  12H    basis set group =>   4
Atom  13H    basis set group =>   4

-------------------------
BASIS SET IN INPUT FORMAT
-------------------------

 # Basis set for element : H 
 NewGTO H 
 S 3 
   1      18.7311370000      0.0334945995
   2       2.8253937000      0.2347269467
   3       0.6401217000      0.8137573184
 S 1 
   1       0.1612778000      1.0000000000
  end;

 # Basis set for element : C 
 NewGTO C 
 S 6 
   1    3047.5249000000      0.0018347002
   2     457.3695100000      0.0140373012
   3     103.9486900000      0.0688426061
   4      29.2101550000      0.2321844206
   5       9.2866630000      0.4679413416
   6       3.1639270000      0.3623120322
 S 3 
   1       7.8682724000     -0.1193324086
   2       1.8812885000     -0.1608542116
   3       0.5442493000      1.1434564826
 P 3 
   1       7.8682724000      0.0689990956
   2       1.8812885000      0.3164239798
   3       0.5442493000      0.7443082524
 S 1 
   1       0.1687144000      1.0000000000
 P 1 
   1       0.1687144000      1.0000000000
 D 1 
   1       0.8000000000      1.0000000000
  end;

 # Basis set for element : N 
 NewGTO N 
 S 6 
   1    4173.5110000000      0.0018347994
   2     627.4579000000      0.0139949958
   3     142.9021000000      0.0685869792
   4      40.2343300000      0.2322409295
   5      12.8202100000      0.4690698576
   6       4.3904370000      0.3604548906
 S 3 
   1      11.6263580000     -0.1149610229
   2       2.7162800000     -0.1691180337
   3       0.7722180000      1.1458522281
 P 3 
   1      11.6263580000      0.0675800232
   2       2.7162800000      0.3239071114
   3       0.7722180000      0.7408952549
 S 1 
   1       0.2120313000      1.0000000000
 P 1 
   1       0.2120313000      1.0000000000
 D 1 
   1       0.8000000000      1.0000000000
  end;

 # Basis set for element : O 
 NewGTO O 
 S 6 
   1    5484.6717000000      0.0018310998
   2     825.2349500000      0.0139500985
   3     188.0469600000      0.0684450927
   4      52.9645000000      0.2327142753
   5      16.8975700000      0.4701929501
   6       5.7996353000      0.3585208619
 S 3 
   1      15.5396160000     -0.1107775038
   2       3.5999336000     -0.1480263051
   3       1.0137618000      1.1307670390
 P 3 
   1      15.5396160000      0.0708742995
   2       3.5999336000      0.3397527978
   3       1.0137618000      0.7271585953
 S 1 
   1       0.2700058000      1.0000000000
 P 1 
   1       0.2700058000      1.0000000000
 D 1 
   1       0.8000000000      1.0000000000
  end;

------------------------------------------------------------------------------
                           ORCA GTO INTEGRAL CALCULATION
------------------------------------------------------------------------------

                         BASIS SET STATISTICS AND STARTUP INFO

 # of primitive gaussian shells          ...  155
 # of primitive gaussian functions       ...  263
 # of contracted shells                  ...   64
 # of contracted basis functions         ...  136
 Highest angular momentum                ...    2
 Maximum contraction depth               ...    6
 Integral package used                   ... LIBINT
 Integral threshhold            Thresh   ...  2.500e-11
 Primitive cut-off              TCut     ...  2.500e-12


------------------------------ INTEGRAL EVALUATION ----------------------------


 * One electron integrals 
 Pre-screening matrix                    ... done
 Shell pair data                         ... done (   0.001 sec)

-------------------------------------------------------------------------------
                                 ORCA SCF
-------------------------------------------------------------------------------

------------
SCF SETTINGS
------------
Hamiltonian:
 Density Functional     Method          .... DFT(GTOs)
 Exchange Functional    Exchange        .... B88
   X-Alpha parameter    XAlpha          ....  0.666667
   Becke's b parameter  XBeta           ....  0.004200
 Correlation Functional Correlation     .... LYP
 LDA part of GGA corr.  LDAOpt          .... VWN-5
 Gradients option       PostSCFGGA      .... off
 Hybrid DFT is turned on
   Fraction HF Exchange ScalHFX         ....  0.200000
   Scaling of DF-GGA-X  ScalDFX         ....  0.720000
   Scaling of DF-GGA-C  ScalDFC         ....  0.810000
   Scaling of DF-LDA-C  ScalLDAC        ....  1.000000
   Perturbative correction              ....  0.000000
   Density functional embedding theory  .... OFF
   NL short-range parameter             ....  4.800000


General Settings:
 Integral files         IntName         .... /Users/lailaal-madhagi/Desktop/Testing_XAS_Analysis_code/Nitrobenzene//Results_dir_Nitrobenzene_geom_element_C_2019-11-11_21-50-52//GTE1_Nitrobenzene_geom_2019-11-11_21-51-18//freq
 Hartree-Fock type      HFTyp           .... RHF
 Total Charge           Charge          ....    0
 Multiplicity           Mult            ....    1
 Number of Electrons    NEL             ....   64
 Basis Dimension        Dim             ....  136
 Nuclear Repulsion      ENuc            ....    411.6633312635 Eh

Convergence Acceleration:
 DIIS                   CNVDIIS         .... on
   Start iteration      DIISMaxIt       ....    12
   Startup error        DIISStart       ....  0.200000
   # of expansion vecs  DIISMaxEq       ....     5
   Bias factor          DIISBfac        ....   1.050
   Max. coefficient     DIISMaxC        ....  10.000
 Newton-Raphson         CNVNR           .... off
 SOSCF                  CNVSOSCF        .... on
   Start iteration      SOSCFMaxIt      ....   150
   Startup grad/error   SOSCFStart      ....  0.003300
 Level Shifting         CNVShift        .... on
   Level shift para.    LevelShift      ....    0.2500
   Turn off err/grad.   ShiftErr        ....    0.0010
 Zerner damping         CNVZerner       .... off
 Static damping         CNVDamp         .... on
   Fraction old density DampFac         ....    0.7000
   Max. Damping (<1)    DampMax         ....    0.9800
   Min. Damping (>=0)   DampMin         ....    0.0000
   Turn off err/grad.   DampErr         ....    0.1000
 Fernandez-Rico         CNVRico         .... off

SCF Procedure:
 Maximum # iterations   MaxIter         ....   125
 SCF integral mode      SCFMode         .... Direct
   Integral package                     .... LIBINT
 Reset frequency        DirectResetFreq ....    20
 Integral Threshold     Thresh          ....  2.500e-11 Eh
 Primitive CutOff       TCut            ....  2.500e-12 Eh

Convergence Tolerance:
 Convergence Check Mode ConvCheckMode   .... Total+1el-Energy
 Convergence forced     ConvForced      .... 0
 Energy Change          TolE            ....  1.000e-08 Eh
 1-El. energy change                    ....  1.000e-05 Eh
 Orbital Gradient       TolG            ....  1.000e-05
 Orbital Rotation angle TolX            ....  1.000e-05
 DIIS Error             TolErr          ....  5.000e-07


Diagonalization of the overlap matrix:
Smallest eigenvalue                        ... 4.871e-04
Time for diagonalization                   ...    0.003 sec
Threshold for overlap eigenvalues          ... 1.000e-08
Number of eigenvalues below threshold      ... 0
Time for construction of square roots      ...    0.001 sec
Total time needed                          ...    0.004 sec

-------------------
DFT GRID GENERATION
-------------------

General Integration Accuracy     IntAcc      ...  4.340
Radial Grid Type                 RadialGrid  ... Gauss-Chebyshev
Angular Grid (max. acc.)         AngularGrid ... Lebedev-194
Angular grid pruning method      GridPruning ... 3 (G Style)
Weight generation scheme         WeightScheme... Becke
Basis function cutoff            BFCut       ...    1.0000e-11
Integration weight cutoff        WCut        ...    1.0000e-14
Grids for H and He will be reduced by one unit

# of grid points (after initial pruning)     ...  37344 (   0.0 sec)
# of grid points (after weights+screening)   ...  34651 (   0.0 sec)
nearest neighbour list constructed           ...    0.0 sec
Grid point re-assignment to atoms done       ...    0.0 sec
Grid point division into batches done        ...    0.1 sec
Reduced shell lists constructed in    0.2 sec

Total number of grid points                  ...    34651
Total number of batches                      ...      548
Average number of points per batch           ...       63
Average number of grid points per atom       ...     2475
Average number of shells per batch           ...    43.09 (67.34%)
Average number of basis functions per batch  ...    93.99 (69.11%)
Average number of large shells per batch     ...    33.34 (77.37%)
Average number of large basis fcns per batch ...    72.98 (77.64%)
Maximum spatial batch extension              ...  17.61, 18.51, 22.17 au
Average spatial batch extension              ...   2.91,  2.96,  3.69 au

Time for grid setup =    0.277 sec

------------------------------
INITIAL GUESS: MODEL POTENTIAL
------------------------------
Loading Hartree-Fock densities                     ... done
Calculating cut-offs                               ... done
Setting up the integral package                    ... done
Initializing the effective Hamiltonian             ... done
Starting the Coulomb interaction                   ... done (   0.1 sec)
Reading the grid                                   ... done
Mapping shells                                     ... done
Starting the XC term evaluation                    ... done (   0.2 sec)
  promolecular density results
     # of electrons  =     63.997291478
     EX              =    -55.275032871
     EC              =     -2.209814910
     EX+EC           =    -57.484847780
Transforming the Hamiltonian                       ... done (   0.0 sec)
Diagonalizing the Hamiltonian                      ... done (   0.0 sec)
Back transforming the eigenvectors                 ... done (   0.0 sec)
Now organizing SCF variables                       ... done
                      ------------------
                      INITIAL GUESS DONE (   0.7 sec)
                      ------------------
--------------
SCF ITERATIONS
--------------
               ***  Starting incremental Fock matrix formation  ***

                         ----------------------------
                         !        ITERATION     0   !
                         ----------------------------
   Total Energy        :    -436.262713049810 Eh
   Energy Change       :    -436.262713049810 Eh
   MAX-DP              :       0.090333779288
   RMS-DP              :       0.002772486389
   Actual Damping      :       0.7000
   Actual Level Shift  :       0.2500 Eh
   Int. Num. El.       :    64.00005743 (UP=   32.00002872 DN=   32.00002872)
   Exchange            :   -44.96226178
   Correlation         :    -2.62140904


                         ----------------------------
                         !        ITERATION     1   !
                         ----------------------------
   Total Energy        :    -436.379209626644 Eh
   Energy Change       :      -0.116496576835 Eh
   MAX-DP              :       0.042631488311
   RMS-DP              :       0.001689906509
   Actual Damping      :       0.7000
   Actual Level Shift  :       0.2500 Eh
   Int. Num. El.       :    64.00003182 (UP=   32.00001591 DN=   32.00001591)
   Exchange            :   -44.72884763
   Correlation         :    -2.61338817

                               ***Turning on DIIS***

                         ----------------------------
                         !        ITERATION     2   !
                         ----------------------------
   Total Energy        :    -436.418679126378 Eh
   Energy Change       :      -0.039469499734 Eh
   MAX-DP              :       0.047132559305
   RMS-DP              :       0.002527024763
   Actual Damping      :       0.0000
   Actual Level Shift  :       0.2500 Eh
   Int. Num. El.       :    64.00001564 (UP=   32.00000782 DN=   32.00000782)
   Exchange            :   -44.58020979
   Correlation         :    -2.60779069
   DIIS-Error          :       0.028608224902


                         ----------------------------
                         !        ITERATION     3   !
                         ----------------------------
   Total Energy        :    -436.492651106489 Eh
   Energy Change       :      -0.073971980111 Eh
   MAX-DP              :       0.035393705222
   RMS-DP              :       0.001111871544
   Actual Damping      :       0.0000
   Actual Level Shift  :       0.2500 Eh
   Int. Num. El.       :    63.99998525 (UP=   31.99999262 DN=   31.99999262)
   Exchange            :   -44.34974415
   Correlation         :    -2.59836382
   DIIS-Error          :       0.040225990082
   DIIS coefficients:
      0.60109   0.39891


                         ----------------------------
                         !        ITERATION     4   !
                         ----------------------------
   Total Energy        :    -436.502897802718 Eh
   Energy Change       :      -0.010246696229 Eh
   MAX-DP              :       0.010998051543
   RMS-DP              :       0.000408938443
   Actual Damping      :       0.0000
   Actual Level Shift  :       0.2500 Eh
   Int. Num. El.       :    63.99999004 (UP=   31.99999502 DN=   31.99999502)
   Exchange            :   -44.42610067
   Correlation         :    -2.60148672
   DIIS-Error          :       0.020441109228
   DIIS coefficients:
      0.28388   0.14498   0.57114

                      *** Initiating the SOSCF procedure ***
                           *** Shutting down DIIS ***
                      *** Re-Reading the Fockian *** 
                      *** Removing any level shift *** 

                         ----------------------------
                         !        ITERATION     5   !
                         ----------------------------
   Total Energy        :    -436.504199076444 Eh
   Energy Change       :      -0.001301273726 Eh
   MAX-DP              :       0.002353517527
   RMS-DP              :       0.000121407721
   Orbital gradient    :       0.001158788778
   Orbital Rotation    :       0.001158788778
   Actual Damping      :       0.0000
   Int. Num. El.       :    63.99999128 (UP=   31.99999564 DN=   31.99999564)
   Exchange            :   -44.44900104
   Correlation         :    -2.60266913

               *** Restarting incremental Fock matrix formation ***

                         ----------------------------
                         !        ITERATION     6   !
                         ----------------------------
   Total Energy        :    -436.504236098695 Eh
   Energy Change       :      -0.000037022252 Eh
   MAX-DP              :       0.001739932000
   RMS-DP              :       0.000057155037
   Orbital gradient    :       0.000647197960
   Orbital Rotation    :       0.001863722327
   Actual Damping      :       0.0000
   Int. Num. El.       :    63.99998965 (UP=   31.99999483 DN=   31.99999483)
   Exchange            :   -44.45625186
   Correlation         :    -2.60287835


                         ----------------------------
                         !        ITERATION     7   !
                         ----------------------------
   Total Energy        :    -436.504231580988 Eh
   Energy Change       :       0.000004517707 Eh
   MAX-DP              :       0.001206429783
   RMS-DP              :       0.000031470825
   Orbital gradient    :       0.000961343039
   Orbital Rotation    :       0.000796856767
   Actual Damping      :       0.0000
   Int. Num. El.       :    63.99998971 (UP=   31.99999485 DN=   31.99999485)
   Exchange            :   -44.45424526
   Correlation         :    -2.60283393


                         ----------------------------
                         !        ITERATION     8   !
                         ----------------------------
   Total Energy        :    -436.504240267152 Eh
   Energy Change       :      -0.000008686164 Eh
   MAX-DP              :       0.000247741516
   RMS-DP              :       0.000008989950
   Orbital gradient    :       0.000077742215
   Orbital Rotation    :       0.000202376740
   Actual Damping      :       0.0000
   Int. Num. El.       :    63.99998942 (UP=   31.99999471 DN=   31.99999471)
   Exchange            :   -44.45528297
   Correlation         :    -2.60284908


                         ----------------------------
                         !        ITERATION     9   !
                         ----------------------------
   Total Energy        :    -436.504240184203 Eh
   Energy Change       :       0.000000082949 Eh
   MAX-DP              :       0.000183204959
   RMS-DP              :       0.000005391435
   Orbital gradient    :       0.000086928846
   Orbital Rotation    :       0.000197524399
   Actual Damping      :       0.0000
   Int. Num. El.       :    63.99998931 (UP=   31.99999465 DN=   31.99999465)
   Exchange            :   -44.45571565
   Correlation         :    -2.60286527


                         ----------------------------
                         !        ITERATION    10   !
                         ----------------------------
   Total Energy        :    -436.504240377749 Eh
   Energy Change       :      -0.000000193546 Eh
   MAX-DP              :       0.000060019762
   RMS-DP              :       0.000002713774
   Orbital gradient    :       0.000023511829
   Orbital Rotation    :       0.000072977516
   Actual Damping      :       0.0000
   Int. Num. El.       :    63.99998933 (UP=   31.99999467 DN=   31.99999467)
   Exchange            :   -44.45553656
   Correlation         :    -2.60285938


                         ----------------------------
                         !        ITERATION    11   !
                         ----------------------------
   Total Energy        :    -436.504240369764 Eh
   Energy Change       :       0.000000007985 Eh
   MAX-DP              :       0.000036021533
   RMS-DP              :       0.000001587894
   Orbital gradient    :       0.000032861811
   Orbital Rotation    :       0.000040998246
   Actual Damping      :       0.0000
   Int. Num. El.       :    63.99998937 (UP=   31.99999468 DN=   31.99999468)
   Exchange            :   -44.45537542
   Correlation         :    -2.60285335


                         ----------------------------
                         !        ITERATION    12   !
                         ----------------------------
   Total Energy        :    -436.504240386240 Eh
   Energy Change       :      -0.000000016476 Eh
   MAX-DP              :       0.000014269500
   RMS-DP              :       0.000000466611
   Orbital gradient    :       0.000003105895
   Orbital Rotation    :       0.000012905900
   Actual Damping      :       0.0000
   Int. Num. El.       :    63.99998935 (UP=   31.99999467 DN=   31.99999467)
   Exchange            :   -44.45546781
   Correlation         :    -2.60285652


                         ----------------------------
                         !        ITERATION    13   !
                         ----------------------------
   Total Energy        :    -436.504240386378 Eh
   Energy Change       :      -0.000000000138 Eh
   MAX-DP              :       0.000014755964
   RMS-DP              :       0.000000305604
   Orbital gradient    :       0.000008797597
   Orbital Rotation    :       0.000013637323
   Actual Damping      :       0.0000
   Int. Num. El.       :    63.99998935 (UP=   31.99999467 DN=   31.99999467)
   Exchange            :   -44.45549043
   Correlation         :    -2.60285763


                         ----------------------------
                         !        ITERATION    14   !
                         ----------------------------
   Total Energy        :    -436.504240386654 Eh
   Energy Change       :      -0.000000000276 Eh
   MAX-DP              :       0.000007590717
   RMS-DP              :       0.000000288042
   Orbital gradient    :       0.000003711802
   Orbital Rotation    :       0.000006949712
   Actual Damping      :       0.0000
   Int. Num. El.       :    63.99998935 (UP=   31.99999467 DN=   31.99999467)
   Exchange            :   -44.45547932
   Correlation         :    -2.60285714


                         ----------------------------
                         !        ITERATION    15   !
                         ----------------------------
   Total Energy        :    -436.504240386026 Eh
   Energy Change       :       0.000000000628 Eh
   MAX-DP              :       0.000004843198
   RMS-DP              :       0.000000185401
   Orbital gradient    :       0.000003201909
   Orbital Rotation    :       0.000002804657
   Actual Damping      :       0.0000
   Int. Num. El.       :    63.99998935 (UP=   31.99999467 DN=   31.99999467)
   Exchange            :   -44.45546494
   Correlation         :    -2.60285642

                 **** Energy Check signals convergence ****
              ***Rediagonalizing the Fockian in SOSCF/NRSCF***

               *****************************************************
               *                     SUCCESS                       *
               *           SCF CONVERGED AFTER  16 CYCLES          *
               *****************************************************

Setting up the final grid:

General Integration Accuracy     IntAcc      ...  5.010
Radial Grid Type                 RadialGrid  ... Gauss-Chebyshev
Angular Grid (max. acc.)         AngularGrid ... Lebedev-434
Angular grid pruning method      GridPruning ... 3 (G Style)
Weight generation scheme         WeightScheme... Becke
Basis function cutoff            BFCut       ...    1.0000e-11
Integration weight cutoff        WCut        ...    1.0000e-14
Grids for H and He will be reduced by one unit

# of grid points (after initial pruning)     ... 129922 (   0.1 sec)
# of grid points (after weights+screening)   ... 119574 (   0.2 sec)
nearest neighbour list constructed           ...    0.0 sec
Grid point re-assignment to atoms done       ...    0.0 sec
Grid point division into batches done        ...    0.7 sec
Reduced shell lists constructed in    1.2 sec

Total number of grid points                  ...   119574
Total number of batches                      ...     1875
Average number of points per batch           ...       63
Average number of grid points per atom       ...     8541
Average number of shells per batch           ...    39.75 (62.12%)
Average number of basis functions per batch  ...    86.41 (63.54%)
Average number of large shells per batch     ...    30.36 (76.36%)
Average number of large basis fcns per batch ...    66.29 (76.71%)
Maximum spatial batch extension              ...  19.98, 16.33, 23.05 au
Average spatial batch extension              ...   2.04,  2.05,  2.33 au

Final grid set up in    1.4 sec
Final integration                            ... done (   0.9 sec)
Change in XC energy                          ...    -0.000117716
Integrated number of electrons               ...    63.999991514
Previous integrated no of electrons          ...    63.999989346

----------------
TOTAL SCF ENERGY
----------------

Total Energy       :         -436.50435810 Eh          -11877.88744 eV

Components:
Nuclear Repulsion  :          411.66333126 Eh           11201.92874 eV
Electronic Energy  :         -848.16768937 Eh          -23079.81618 eV
One Electron Energy:        -1408.67576625 Eh          -38332.01636 eV
Two Electron Energy:          560.50807688 Eh           15252.20018 eV

Virial components:
Potential Energy   :         -870.43098082 Eh          -23685.63114 eV
Kinetic Energy     :          433.92662271 Eh           11807.74370 eV
Virial Ratio       :            2.00594049


DFT components:
N(Alpha)           :       31.999995756853 electrons
N(Beta)            :       31.999995756853 electrons
N(Total)           :       63.999991513705 electrons
E(X)               :      -44.455593259264 Eh       
E(C)               :       -2.602857163862 Eh       
E(XC)              :      -47.058450423127 Eh       
DFET-embed. en.    :        0.000000000000 Eh       

---------------
SCF CONVERGENCE
---------------

  Last Energy change         ...   -8.7039e-10  Tolerance :   1.0000e-08
  Last MAX-Density change    ...    4.1528e-07  Tolerance :   1.0000e-07
  Last RMS-Density change    ...    1.4309e-08  Tolerance :   5.0000e-09
  Last Orbital Gradient      ...    9.0389e-08  Tolerance :   1.0000e-05
  Last Orbital Rotation      ...    2.6414e-07  Tolerance :   1.0000e-05

             **** THE GBW FILE WAS UPDATED (/Users/lailaal-madhagi/Desktop/Testing_XAS_Analysis_code/Nitrobenzene//Results_dir_Nitrobenzene_geom_element_C_2019-11-11_21-50-52//GTE1_Nitrobenzene_geom_2019-11-11_21-51-18//freq.gbw) ****
             **** DENSITY FILE WAS UPDATED (/Users/lailaal-madhagi/Desktop/Testing_XAS_Analysis_code/Nitrobenzene//Results_dir_Nitrobenzene_geom_element_C_2019-11-11_21-50-52//GTE1_Nitrobenzene_geom_2019-11-11_21-51-18//freq.scfp.tmp) ****
             **** ENERGY FILE WAS UPDATED (/Users/lailaal-madhagi/Desktop/Testing_XAS_Analysis_code/Nitrobenzene//Results_dir_Nitrobenzene_geom_element_C_2019-11-11_21-50-52//GTE1_Nitrobenzene_geom_2019-11-11_21-51-18//freq.en.tmp) ****
----------------
ORBITAL ENERGIES
----------------

  NO   OCC          E(Eh)            E(eV) 
   0   2.0000     -19.173444      -521.7359 
   1   2.0000     -19.173369      -521.7339 
   2   2.0000     -14.563923      -396.3045 
   3   2.0000     -10.246241      -278.8144 
   4   2.0000     -10.212233      -277.8890 
   5   2.0000     -10.212202      -277.8881 
   6   2.0000     -10.212023      -277.8833 
   7   2.0000     -10.209099      -277.8037 
   8   2.0000     -10.209028      -277.8018 
   9   2.0000      -1.220189       -33.2030 
  10   2.0000      -1.047458       -28.5028 
  11   2.0000      -0.887802       -24.1583 
  12   2.0000      -0.804337       -21.8871 
  13   2.0000      -0.771672       -20.9983 
  14   2.0000      -0.699294       -19.0288 
  15   2.0000      -0.631191       -17.1756 
  16   2.0000      -0.594918       -16.1885 
  17   2.0000      -0.558671       -15.2022 
  18   2.0000      -0.527795       -14.3620 
  19   2.0000      -0.508893       -13.8477 
  20   2.0000      -0.507606       -13.8127 
  21   2.0000      -0.467468       -12.7205 
  22   2.0000      -0.465480       -12.6664 
  23   2.0000      -0.447164       -12.1680 
  24   2.0000      -0.388346       -10.5674 
  25   2.0000      -0.387990       -10.5577 
  26   2.0000      -0.370319       -10.0769 
  27   2.0000      -0.306102        -8.3295 
  28   2.0000      -0.303314        -8.2536 
  29   2.0000      -0.287196        -7.8150 
  30   2.0000      -0.279589        -7.6080 
  31   2.0000      -0.275228        -7.4893 
  32   0.0000      -0.085401        -2.3239 
  33   0.0000      -0.024227        -0.6592 
  34   0.0000       0.004106         0.1117 
  35   0.0000       0.075666         2.0590 
  36   0.0000       0.130676         3.5559 
  37   0.0000       0.135021         3.6741 
  38   0.0000       0.144480         3.9315 
  39   0.0000       0.169680         4.6172 
  40   0.0000       0.180215         4.9039 
  41   0.0000       0.189209         5.1486 
  42   0.0000       0.268655         7.3105 
  43   0.0000       0.276477         7.5233 
  44   0.0000       0.279644         7.6095 
  45   0.0000       0.281671         7.6647 
  46   0.0000       0.328336         8.9345 
  47   0.0000       0.379618        10.3299 
  48   0.0000       0.463393        12.6096 
  49   0.0000       0.487207        13.2576 
  50   0.0000       0.498388        13.5618 
  51   0.0000       0.520834        14.1726 
  52   0.0000       0.559295        15.2192 
  53   0.0000       0.566761        15.4224 
  54   0.0000       0.567632        15.4461 
  55   0.0000       0.575502        15.6602 
  56   0.0000       0.577912        15.7258 
  57   0.0000       0.597011        16.2455 
  58   0.0000       0.602595        16.3974 
  59   0.0000       0.627667        17.0797 
  60   0.0000       0.638725        17.3806 
  61   0.0000       0.642986        17.4965 
  62   0.0000       0.720836        19.6150 
  63   0.0000       0.725301        19.7364 
  64   0.0000       0.769657        20.9434 
  65   0.0000       0.786552        21.4032 
  66   0.0000       0.816184        22.2095 
  67   0.0000       0.821521        22.3547 
  68   0.0000       0.828937        22.5565 
  69   0.0000       0.843802        22.9610 
  70   0.0000       0.846627        23.0379 
  71   0.0000       0.900786        24.5116 
  72   0.0000       0.925524        25.1848 
  73   0.0000       0.932381        25.3714 
  74   0.0000       0.943782        25.6816 
  75   0.0000       0.951312        25.8865 
  76   0.0000       1.002718        27.2853 
  77   0.0000       1.003104        27.2958 
  78   0.0000       1.049724        28.5644 
  79   0.0000       1.071747        29.1637 
  80   0.0000       1.084836        29.5199 
  81   0.0000       1.105651        30.0863 
  82   0.0000       1.163535        31.6614 
  83   0.0000       1.201182        32.6858 
  84   0.0000       1.224322        33.3155 
  85   0.0000       1.277208        34.7546 
  86   0.0000       1.315692        35.8018 
  87   0.0000       1.354769        36.8651 
  88   0.0000       1.391631        37.8682 
  89   0.0000       1.406626        38.2762 
  90   0.0000       1.426723        38.8231 
  91   0.0000       1.445846        39.3435 
  92   0.0000       1.457459        39.6595 
  93   0.0000       1.464943        39.8631 
  94   0.0000       1.482463        40.3399 
  95   0.0000       1.552714        42.2515 
  96   0.0000       1.715032        46.6684 
  97   0.0000       1.738949        47.3192 
  98   0.0000       1.740226        47.3540 
  99   0.0000       1.780747        48.4566 
 100   0.0000       1.781098        48.4661 
 101   0.0000       1.810601        49.2690 
 102   0.0000       1.839512        50.0557 
 103   0.0000       1.866593        50.7926 
 104   0.0000       1.913837        52.0782 
 105   0.0000       1.918876        52.2153 
 106   0.0000       1.951238        53.0959 
 107   0.0000       1.953405        53.1548 
 108   0.0000       2.013954        54.8025 
 109   0.0000       2.054127        55.8956 
 110   0.0000       2.075635        56.4809 
 111   0.0000       2.125523        57.8384 
 112   0.0000       2.136133        58.1271 
 113   0.0000       2.143634        58.3313 
 114   0.0000       2.147829        58.4454 
 115   0.0000       2.160386        58.7871 
 116   0.0000       2.264391        61.6172 
 117   0.0000       2.268188        61.7205 
 118   0.0000       2.281649        62.0868 
 119   0.0000       2.392614        65.1063 
 120   0.0000       2.475755        67.3687 
 121   0.0000       2.512272        68.3624 
 122   0.0000       2.587187        70.4009 
 123   0.0000       2.591161        70.5091 
 124   0.0000       2.596919        70.6657 
 125   0.0000       2.652022        72.1652 
 126   0.0000       2.705716        73.6263 
 127   0.0000       2.707535        73.6758 
 128   0.0000       2.726177        74.1830 
 129   0.0000       2.777599        75.5823 
 130   0.0000       2.877429        78.2988 
 131   0.0000       2.910616        79.2019 
 132   0.0000       2.926534        79.6350 
 133   0.0000       3.080312        83.8196 
 134   0.0000       3.171089        86.2897 
 135   0.0000       3.407226        92.7153 
------------------
MOLECULAR ORBITALS
------------------
                      0         1         2         3         4         5   
                 -19.17344 -19.17337 -14.56392 -10.24624 -10.21223 -10.21220
                   2.00000   2.00000   2.00000   2.00000   2.00000   2.00000
                  --------  --------  --------  --------  --------  --------
  0C   1s        -0.000000  0.000002  0.000030  0.000373 -0.062814 -0.087972
  0C   2s         0.000000 -0.000021  0.000309  0.000744 -0.002176 -0.003070
  0C   1pz        0.000002 -0.000001  0.000010  0.000014 -0.000003  0.000021
  0C   1px       -0.000035 -0.000005  0.000091  0.000128  0.000294 -0.000088
  0C   1py       -0.000021  0.000009 -0.000149 -0.000210 -0.000017 -0.000265
  0C   3s         0.000000 -0.000030 -0.000865 -0.005049  0.006439  0.007874
  0C   2pz        0.000105 -0.000050 -0.000061 -0.000223  0.000159  0.000181
  0C   2px       -0.001725 -0.000476 -0.000577 -0.002093  0.001404  0.001786
  0C   2py       -0.001048  0.000772  0.000947  0.003435 -0.002433 -0.002808
  0C   1dz2       0.000000 -0.000014  0.000072  0.000149  0.000036  0.000050
  0C   1dxz      -0.000001 -0.000001  0.000004  0.000007  0.000003 -0.000002
  0C   1dyz      -0.000004 -0.000002  0.000009  0.000018  0.000015 -0.000003
  0C   1dx2y2    -0.000050  0.000005 -0.000016 -0.000017  0.000132 -0.000106
  0C   1dxy       0.000026  0.000011 -0.000030 -0.000031 -0.000054  0.000067
  1C   1s         0.000001 -0.000048  0.000031 -0.000003 -0.073710 -0.008168
  1C   2s         0.000025 -0.000345  0.000319  0.000115 -0.000472  0.000553
  1C   1pz        0.000001 -0.000003  0.000020  0.000026  0.000071  0.000018
  1C   1px        0.000090 -0.000015 -0.000014  0.000020  0.000599 -0.000153
  1C   1py       -0.000034  0.000041 -0.000261 -0.000355 -0.001082 -0.000204
  1C   3s        -0.000418  0.002631  0.003223  0.007737 -0.011574 -0.006255
  1C   2pz        0.000006  0.000103  0.000029  0.000240 -0.000459 -0.000280
  1C   2px       -0.002642  0.000843  0.000465 -0.000716  0.000842  0.001936
  1C   2py        0.000479 -0.001561 -0.000492 -0.003074  0.005982  0.003357
  1C   1dz2       0.000019 -0.000118  0.000099  0.000078 -0.000615  0.000000
  1C   1dxz      -0.000002  0.000003  0.000002  0.000007  0.000066  0.000004
  1C   1dyz       0.000004 -0.000016  0.000013  0.000009 -0.000092  0.000006
  1C   1dx2y2     0.000025 -0.000031  0.000005 -0.000034 -0.000378  0.000063
  1C   1dxy       0.000022 -0.000076  0.000006 -0.000065 -0.001034 -0.000060
  2C   1s        -0.000001 -0.000048  0.000031 -0.000003  0.003489 -0.077253
  2C   2s        -0.000023 -0.000345  0.000319  0.000115  0.000625 -0.000478
  2C   1pz       -0.000007 -0.000002  0.000004  0.000009 -0.000015  0.000063
  2C   1px        0.000011 -0.000030  0.000238  0.000306  0.000143  0.000721
  2C   1py        0.000095  0.000033 -0.000108 -0.000181  0.000167 -0.000995
  2C   3s         0.000402  0.002633  0.003223  0.007736 -0.004402 -0.012408
  2C   2pz        0.000203  0.000095  0.000044  0.000010  0.000077 -0.000046
  2C   2px       -0.000797  0.000997  0.000224  0.003066 -0.002961 -0.006255
  2C   2py       -0.002550 -0.001478 -0.000638 -0.000783 -0.000413  0.001937
  2C   1dz2      -0.000018 -0.000118  0.000099  0.000078  0.000096 -0.000613
  2C   1dxz       0.000002  0.000003  0.000002  0.000007 -0.000007  0.000059
  2C   1dyz      -0.000002 -0.000017  0.000013  0.000008  0.000011 -0.000113
  2C   1dx2y2    -0.000004 -0.000043  0.000001 -0.000035  0.000014 -0.000636
  2C   1dxy      -0.000033 -0.000070  0.000008 -0.000064  0.000130 -0.000881
  3C   1s        -0.000016 -0.000023  0.000057 -0.006402  0.072925 -0.985900
  3C   2s        -0.000141 -0.000332  0.000578  0.002020  0.002677 -0.036167
  3C   1pz       -0.000000 -0.000010  0.000003 -0.000030 -0.000019  0.000065
  3C   1px        0.000105 -0.000149  0.000028  0.001244  0.000230 -0.000667
  3C   1py       -0.000017  0.000164 -0.000041  0.000139  0.000204 -0.000746
  3C   3s         0.008116  0.000402 -0.005263 -0.015155  0.003038  0.033117
  3C   2pz        0.000009  0.000015  0.000420  0.000604 -0.000188 -0.000557
  3C   2px        0.006421  0.002926 -0.001394 -0.004596  0.001264  0.004214
  3C   2py       -0.001482 -0.000822 -0.005358 -0.007160  0.002267  0.006607
  3C   1dz2       0.000002 -0.000075  0.000172 -0.000537  0.000025  0.000579
  3C   1dxz       0.000000 -0.000022  0.000029 -0.000025 -0.000005 -0.000001
  3C   1dyz       0.000009 -0.000004  0.000035  0.000019  0.000005  0.000051
  3C   1dx2y2     0.000116  0.000126  0.000102  0.001161  0.000039 -0.000260
  3C   1dxy      -0.000030  0.000241 -0.000347 -0.000107  0.000073  0.000286
  4C   1s        -0.000000  0.000044 -0.000003 -0.994989  0.006054  0.006959
  4C   2s        -0.000000  0.000081  0.000259 -0.036401  0.002293  0.002649
  4C   1pz        0.000005 -0.000017  0.000023 -0.000011 -0.000103  0.000015
  4C   1px       -0.000071 -0.000161  0.000221 -0.000103  0.000753 -0.001347
  4C   1py       -0.000044  0.000264 -0.000362  0.000169  0.001227  0.000076
  4C   3s         0.000007 -0.002329 -0.007199  0.026133 -0.013348 -0.015415
  4C   2pz       -0.000832  0.000239 -0.000985 -0.000852  0.000457  0.000221
  4C   2px        0.013752  0.002296 -0.009252 -0.007995  0.000321  0.005505
  4C   2py        0.008341 -0.003687  0.015178  0.013115 -0.006207 -0.004119
  4C   1dz2      -0.000003 -0.000075  0.000103  0.001032 -0.000583 -0.000680
  4C   1dxz       0.000013 -0.000004  0.000013  0.000019 -0.000084 -0.000055
  4C   1dyz       0.000043 -0.000009  0.000010  0.000136 -0.000135 -0.000010
  4C   1dx2y2     0.000534  0.000016 -0.000065  0.000049 -0.000571  0.001103
  4C   1dxy      -0.000278  0.000026 -0.000124  0.000106  0.001028  0.000267
  5C   1s         0.000016 -0.000023  0.000057 -0.006406 -0.987693 -0.066836
  5C   2s         0.000142 -0.000331  0.000578  0.002019 -0.036240 -0.002448
  5C   1pz       -0.000008 -0.000014  0.000003  0.000088 -0.000034  0.000008
  5C   1px        0.000034 -0.000077  0.000024 -0.000697  0.001009 -0.000151
  5C   1py        0.000099  0.000208 -0.000044 -0.001036  0.000254 -0.000071
  5C   3s        -0.008117  0.000359 -0.005263 -0.015155  0.032352  0.007742
  5C   2pz       -0.000502  0.000228  0.000008 -0.000189  0.000164  0.000070
  5C   2px        0.001643 -0.000607  0.005412  0.008493 -0.007351 -0.003716
  5C   2py        0.006380 -0.002934 -0.001236  0.000766 -0.000668 -0.000167
  5C   1dz2      -0.000003 -0.000075  0.000174 -0.000527  0.000568  0.000106
  5C   1dxz       0.000005 -0.000022  0.000019 -0.000069  0.000013 -0.000003
  5C   1dyz       0.000008 -0.000004 -0.000001 -0.000138  0.000102  0.000019
  5C   1dx2y2     0.000091  0.000126 -0.000344 -0.000751  0.000372  0.000090
  5C   1dxy      -0.000079  0.000241 -0.000116  0.000886 -0.000051  0.000065
  6N   1s        -0.000000  0.000148 -0.995286 -0.000196  0.000003  0.000004
  6N   2s         0.000001 -0.000253 -0.033206 -0.001064  0.000212  0.000250
  6N   1pz       -0.000017 -0.000020 -0.000037 -0.000012 -0.000007  0.000000
  6N   1px        0.000281 -0.000187 -0.000350 -0.000114  0.000038 -0.000088
  6N   1py        0.000169  0.000309  0.000575  0.000187  0.000084  0.000018
  6N   3s        -0.000033  0.012790  0.021127  0.006932 -0.000250 -0.000329
  6N   2pz        0.001140  0.000490 -0.000690 -0.000373  0.000027  0.000012
  6N   2px       -0.019056  0.004523 -0.006476 -0.003503  0.000001  0.000335
  6N   2py       -0.011515 -0.007533  0.010627  0.005748 -0.000360 -0.000234
  6N   1dz2      -0.000003  0.000200  0.000741 -0.001085  0.000018  0.000021
  6N   1dxz       0.000010  0.000057  0.000117  0.000070  0.000002  0.000004
  6N   1dyz       0.000037  0.000011  0.000067 -0.000168 -0.000000  0.000004
  6N   1dx2y2     0.000459 -0.000327 -0.000623 -0.000618 -0.000041  0.000008
  6N   1dxy      -0.000236 -0.000631 -0.001193 -0.001202 -0.000012 -0.000042
  7O   1s         0.701895  0.705510 -0.000134  0.000001  0.000009  0.000005
  7O   2s         0.021705  0.020776 -0.000573  0.000043  0.000150  0.000164
  7O   1pz       -0.000116 -0.000110 -0.000055 -0.000008 -0.000001 -0.000006
  7O   1px        0.000804  0.000620  0.000356 -0.000121 -0.000017  0.000009
  7O   1py        0.001404  0.001367  0.000669  0.000128  0.000014  0.000085
  7O   3s        -0.022313 -0.015077  0.003034  0.000628 -0.000639 -0.000297
  7O   2pz        0.000650  0.000374 -0.000139  0.000039  0.000022  0.000024
  7O   2px       -0.002861 -0.003820  0.002427  0.001095  0.000007 -0.000139
  7O   2py       -0.008201 -0.004282  0.001385 -0.000747 -0.000305 -0.000296
  7O   1dz2       0.000452  0.000187 -0.001208  0.000126  0.000014  0.000047
  7O   1dxz       0.000021  0.000059 -0.000148 -0.000010  0.000000 -0.000000
  7O   1dyz       0.000121  0.000016 -0.000222  0.000034  0.000004  0.000010
  7O   1dx2y2     0.000792 -0.000252 -0.000550  0.000268  0.000024  0.000059
  7O   1dxy      -0.000280 -0.000684  0.001683  0.000131 -0.000000  0.000009
  8O   1s        -0.705563  0.701841 -0.000134  0.000001  0.000004  0.000010
  8O   2s        -0.021813  0.020663 -0.000573  0.000043  0.000141  0.000171
  8O   1pz       -0.000029  0.000016  0.000012 -0.000011 -0.000001 -0.000002
  8O   1px        0.001628 -0.001495 -0.000759 -0.000058 -0.000078 -0.000016
  8O   1py        0.000064  0.000082 -0.000006  0.000166  0.000028  0.000025
  8O   3s         0.022390 -0.014959  0.003032  0.000627 -0.000205 -0.000674
  8O   2pz        0.000037 -0.000187  0.000147  0.000095 -0.000005  0.000006
  8O   2px       -0.008649  0.005527 -0.002350  0.000161  0.000289  0.000311
  8O   2py        0.001240  0.001413 -0.001509 -0.001313  0.000006 -0.000146
  8O   1dz2      -0.000461  0.000186 -0.001221  0.000127  0.000045  0.000020
  8O   1dxz       0.000014  0.000056 -0.000095 -0.000018 -0.000002 -0.000001
  8O   1dyz      -0.000001  0.000002 -0.000038  0.000008  0.000003  0.000001
  8O   1dx2y2     0.000691 -0.000413  0.001704 -0.000048 -0.000026 -0.000018
  8O   1dxy      -0.000485 -0.000601  0.000513  0.000295  0.000051  0.000027
  9H   1s        -0.000301 -0.000215 -0.000216 -0.000048 -0.000046  0.001360
  9H   2s         0.000713  0.000615 -0.001649 -0.002046  0.000783 -0.002539
 10H   1s         0.000000 -0.000112 -0.000050 -0.000157  0.000151  0.000196
 10H   2s         0.000001 -0.000238 -0.000463 -0.001235  0.000157  0.000135
 11H   1s        -0.000110 -0.000058 -0.000063  0.000013 -0.000099  0.000230
 11H   2s        -0.000262  0.000308 -0.000464  0.000182 -0.000834 -0.001615
 12H   1s         0.000303 -0.000213 -0.000216 -0.000048  0.001352  0.000148
 12H   2s        -0.000717  0.000611 -0.001648 -0.002046 -0.002636  0.000423
 13H   1s         0.000110 -0.000057 -0.000063  0.000013  0.000235 -0.000063
 13H   2s         0.000261  0.000309 -0.000464  0.000182 -0.001456 -0.001070
                      6         7         8         9        10        11   
                 -10.21202 -10.20910 -10.20903  -1.22019  -1.04746  -0.88780
                   2.00000   2.00000   2.00000   2.00000   2.00000   2.00000
                  --------  --------  --------  --------  --------  --------
  0C   1s         0.984013  0.055579  0.085279 -0.000113  0.000000  0.076084
  0C   2s         0.035824  0.003633  0.005635  0.001451 -0.000001 -0.144504
  0C   1pz        0.000046  0.000099  0.000006  0.000051  0.000007 -0.002939
  0C   1px        0.000434 -0.000820  0.001168  0.000475 -0.000113 -0.027581
  0C   1py       -0.000716 -0.001154 -0.000325 -0.000780 -0.000068  0.045233
  0C   3s        -0.030277 -0.012046 -0.018846 -0.002319  0.000015 -0.084497
  0C   2pz       -0.000356 -0.000431 -0.000334 -0.000108 -0.000381 -0.000183
  0C   2px       -0.003348 -0.000045 -0.005686 -0.001008  0.006296 -0.001843
  0C   2py        0.005490  0.005799  0.005686  0.001666  0.003794  0.003036
  0C   1dz2      -0.000501 -0.000495 -0.000789  0.000126 -0.000001  0.007441
  0C   1dxz      -0.000040 -0.000075 -0.000069  0.000015  0.000003  0.000182
  0C   1dyz      -0.000057 -0.000134 -0.000033  0.000013  0.000009  0.000967
  0C   1dx2y2     0.000166 -0.000727  0.001013 -0.000076  0.000111  0.000097
  0C   1dxy       0.000315  0.000981  0.000423 -0.000144 -0.000058  0.000261
  1C   1s         0.065857  0.217128 -0.966090 -0.000242  0.000595  0.079850
  1C   2s         0.000498  0.007870 -0.035805  0.002705 -0.001160 -0.150979
  1C   1pz       -0.000013  0.000024 -0.000073  0.000124 -0.000053 -0.004212
  1C   1px        0.001342 -0.000231  0.000433  0.000116 -0.000806  0.020788
  1C   1py       -0.000103 -0.000282  0.000891 -0.001691  0.000882  0.052134
  1C   3s         0.010343 -0.001297  0.035054  0.005897  0.000422 -0.102757
  1C   2pz        0.000308  0.000096  0.000638 -0.000158 -0.000047 -0.000842
  1C   2px       -0.004323 -0.000728 -0.004330  0.000087  0.009311  0.003533
  1C   2py       -0.003228 -0.001139 -0.007655  0.002112 -0.001325  0.010641
  1C   1dz2       0.000525 -0.000061  0.000697  0.000315  0.000112  0.007884
  1C   1dxz       0.000037  0.000001 -0.000011 -0.000001 -0.000005  0.000179
  1C   1dyz      -0.000018 -0.000005  0.000060  0.000040  0.000015  0.001070
  1C   1dx2y2    -0.001166  0.000030 -0.000300  0.000014  0.000026  0.000712
  1C   1dxy      -0.000063 -0.000049  0.000468  0.000123  0.000108  0.000346
  2C   1s         0.066167 -0.966866 -0.212426 -0.000241 -0.000593  0.079839
  2C   2s         0.000533 -0.035766 -0.008031  0.002708  0.001164 -0.150971
  2C   1pz        0.000101  0.000017 -0.000005  0.000043  0.000077  0.000454
  2C   1px       -0.000517 -0.001053 -0.000096  0.001453  0.000414 -0.056006
  2C   1py       -0.001252 -0.000006  0.000081 -0.000881 -0.001118  0.005646
  2C   3s         0.010206  0.032353  0.013649  0.005848 -0.000507 -0.102611
  2C   2pz       -0.000252 -0.000133 -0.000094 -0.000039 -0.000709  0.000045
  2C   2px        0.004822  0.007434  0.004942 -0.001947  0.003069 -0.010978
  2C   2py        0.002371  0.000224  0.000233  0.000925  0.008873  0.001717
  2C   1dz2       0.000505  0.000655  0.000238  0.000315 -0.000110  0.007888
  2C   1dxz       0.000079  0.000008  0.000003  0.000001  0.000004  0.000157
  2C   1dyz       0.000127  0.000123  0.000044  0.000046 -0.000018  0.000994
  2C   1dx2y2     0.000605  0.000524  0.000181  0.000090 -0.000072 -0.000195
  2C   1dxy      -0.001003  0.000026  0.000010  0.000085 -0.000083  0.000813
  3C   1s        -0.088516  0.070383  0.012658 -0.004300 -0.004655  0.093867
  3C   2s        -0.003371  0.004637  0.001384  0.011406  0.009560 -0.179319
  3C   1pz        0.000027 -0.000078 -0.000026  0.000124  0.000226  0.004113
  3C   1px       -0.000003 -0.000642 -0.000040  0.007321  0.004222 -0.045061
  3C   1py       -0.000363  0.001185  0.000352 -0.003209 -0.003941 -0.045837
  3C   3s        -0.002122 -0.015649 -0.007229 -0.016105 -0.022836 -0.098151
  3C   2pz        0.000191  0.000455  0.000333  0.001523 -0.000039 -0.000528
  3C   2px       -0.000866 -0.001393 -0.001205 -0.011442 -0.021046 -0.001006
  3C   2py       -0.002392 -0.005823 -0.004228 -0.018080  0.004955  0.007197
  3C   1dz2       0.000064 -0.000650 -0.000078 -0.000356 -0.000499  0.008954
  3C   1dxz      -0.000008  0.000066  0.000015  0.000116 -0.000015  0.000287
  3C   1dyz       0.000013 -0.000100 -0.000013  0.000032 -0.000085  0.001078
  3C   1dx2y2     0.000085 -0.000424 -0.000083  0.000658 -0.000260 -0.001170
  3C   1dxy       0.000106 -0.001038 -0.000214 -0.001826  0.000071 -0.000339
  4C   1s         0.001309 -0.000344 -0.000523 -0.026528  0.000004  0.118506
  4C   2s        -0.000210 -0.000120 -0.000180  0.051727 -0.000010 -0.230596
  4C   1pz        0.000005 -0.000006 -0.000008  0.002452  0.001164  0.001828
  4C   1px        0.000026 -0.000032 -0.000090  0.023031 -0.019420  0.017115
  4C   1py       -0.000076  0.000094  0.000126 -0.037789 -0.011758 -0.028076
  4C   3s         0.001948  0.005331  0.008327 -0.007176  0.000035 -0.134187
  4C   2pz       -0.000219  0.000032 -0.000215 -0.004160  0.002784  0.002029
  4C   2px       -0.001998 -0.002836 -0.000032 -0.039138 -0.046022  0.019321
  4C   2py        0.003360  0.000162  0.002902  0.064152 -0.027877 -0.031525
  4C   1dz2      -0.000177  0.000053  0.000082 -0.003837  0.000030  0.010546
  4C   1dxz      -0.000018  0.000007  0.000009  0.000352 -0.000129  0.000291
  4C   1dyz      -0.000018  0.000007  0.000007 -0.000624 -0.000449  0.001362
  4C   1dx2y2     0.000099 -0.000008 -0.000064 -0.002854 -0.005503 -0.000081
  4C   1dxy       0.000159 -0.000072 -0.000084 -0.005534  0.002859 -0.000040
  5C   1s        -0.073782 -0.017904  0.067055 -0.004299  0.004659  0.093864
  5C   2s        -0.002828 -0.000694  0.004712  0.011405 -0.009556 -0.179315
  5C   1pz        0.000008  0.000021 -0.000069  0.000600 -0.000391 -0.002353
  5C   1px        0.000306  0.000055 -0.000810 -0.000522 -0.001556  0.061589
  5C   1py       -0.000168 -0.000293  0.001094 -0.007951  0.005548  0.018728
  5C   3s        -0.002544  0.000040 -0.017168 -0.016105  0.022838 -0.098144
  5C   2pz       -0.000016 -0.000009  0.000016 -0.000464  0.001635 -0.000223
  5C   2px        0.002599  0.001463  0.007089  0.021411 -0.005336 -0.006052
  5C   2py       -0.000330 -0.000185 -0.001690  0.001735 -0.020833  0.004327
  5C   1dz2       0.000055  0.000204 -0.000620 -0.000340  0.000502  0.008946
  5C   1dxz      -0.000009 -0.000014  0.000062  0.000058  0.000004  0.000319
  5C   1dyz       0.000007  0.000033 -0.000110 -0.000176  0.000047  0.001201
  5C   1dx2y2     0.000032  0.000139 -0.000595 -0.001868 -0.000213  0.000321
  5C   1dxy       0.000132  0.000228 -0.000939 -0.000511  0.000169 -0.001116
  6N   1s        -0.000030  0.000012  0.000019 -0.162508  0.000008  0.015749
  6N   2s        -0.000272  0.000141  0.000223  0.354464 -0.000016 -0.030828
  6N   1pz        0.000001  0.000000 -0.000002  0.004957  0.016603  0.006751
  6N   1px        0.000011 -0.000030 -0.000001  0.046467 -0.277548  0.063396
  6N   1py       -0.000020  0.000003  0.000032 -0.076277 -0.168100 -0.103993
  6N   3s         0.002479 -0.000306 -0.000487  0.211725 -0.000014 -0.069317
  6N   2pz       -0.000056 -0.000019  0.000074 -0.003524  0.000052  0.002789
  6N   2px       -0.000526  0.001045 -0.000083 -0.033034 -0.001031  0.026092
  6N   2py        0.000866  0.000041 -0.000983  0.054271 -0.000644 -0.042861
  6N   1dz2      -0.000048  0.000019  0.000029 -0.016669  0.000135  0.000923
  6N   1dxz      -0.000001 -0.000002 -0.000004 -0.001295 -0.000570 -0.000548
  6N   1dyz      -0.000006  0.000005  0.000004 -0.001897 -0.001983  0.000284
  6N   1dx2y2    -0.000002  0.000036  0.000016  0.005545 -0.024313  0.003628
  6N   1dxy      -0.000005  0.000024  0.000059  0.010500  0.012623  0.006998
  7O   1s         0.000002  0.000001  0.000004 -0.107595 -0.142122 -0.025620
  7O   2s         0.000007  0.000043  0.000072  0.234187  0.316182  0.059612
  7O   1pz        0.000001 -0.000002  0.000000 -0.008960 -0.009040 -0.000357
  7O   1px       -0.000017 -0.000012  0.000002  0.069604  0.046304  0.024257
  7O   1py       -0.000003  0.000026 -0.000001  0.106948  0.112737 -0.000085
  7O   3s        -0.000125  0.000243 -0.000471  0.200676  0.307018  0.058689
  7O   2pz        0.000012 -0.000009  0.000010 -0.003511 -0.004449 -0.000337
  7O   2px        0.000028  0.000086 -0.000186  0.033876  0.018631  0.007440
  7O   2py       -0.000163  0.000097 -0.000096  0.040556  0.056364  0.003027
  7O   1dz2       0.000012  0.000023  0.000016 -0.008041 -0.005424  0.000008
  7O   1dxz       0.000001 -0.000001  0.000002 -0.001308 -0.000521 -0.000234
  7O   1dyz       0.000005  0.000000  0.000000 -0.001606 -0.001563  0.000109
  7O   1dx2y2     0.000042 -0.000031 -0.000027 -0.004445 -0.010146  0.002019
  7O   1dxy      -0.000013  0.000029 -0.000019  0.015733  0.007187  0.002754
  8O   1s         0.000002  0.000004  0.000002 -0.107577  0.142134 -0.025625
  8O   2s         0.000007  0.000047  0.000069  0.234154 -0.316203  0.059624
  8O   1pz       -0.000001  0.000001 -0.000001  0.002814 -0.001007  0.001759
  8O   1px        0.000012  0.000007 -0.000016 -0.127273  0.121725 -0.011105
  8O   1py        0.000013 -0.000012  0.000020 -0.012307 -0.010969 -0.021500
  8O   3s        -0.000130 -0.000529  0.000021  0.200594 -0.307055  0.058728
  8O   2pz        0.000006 -0.000012 -0.000001  0.001610 -0.000174  0.000474
  8O   2px        0.000132  0.000208 -0.000041 -0.051689  0.058782 -0.006133
  8O   2py       -0.000102  0.000123  0.000022 -0.011292 -0.009473 -0.005192
  8O   1dz2       0.000012  0.000005  0.000027 -0.008147  0.005541  0.000014
  8O   1dxz      -0.000001  0.000002  0.000002 -0.000841  0.000007 -0.000255
  8O   1dyz      -0.000001 -0.000000  0.000007  0.000022 -0.000226  0.000034
  8O   1dx2y2    -0.000034 -0.000018  0.000037  0.015493 -0.011769  0.001091
  8O   1dxy       0.000026 -0.000026 -0.000022  0.005382  0.004187  0.003235
  9H   1s        -0.000004  0.000063 -0.000089  0.002195  0.005067 -0.033685
  9H   2s        -0.000850 -0.000706 -0.001063 -0.007617 -0.000224  0.002714
 10H   1s        -0.001350  0.000024  0.000040  0.000058  0.000001 -0.026941
 10H   2s         0.002754 -0.000789 -0.001244 -0.001307  0.000004 -0.002086
 11H   1s        -0.000223  0.001283  0.000328 -0.000046  0.000497 -0.028242
 11H   2s         0.001243 -0.002468 -0.000022 -0.002831  0.001050 -0.003436
 12H   1s        -0.000023 -0.000109  0.000023  0.002189 -0.005063 -0.033669
 12H   2s        -0.000802 -0.000665 -0.001095 -0.007632  0.000247  0.002751
 13H   1s        -0.000226 -0.000246  0.001302 -0.000046 -0.000497 -0.028257
 13H   2s         0.001247  0.001031 -0.002250 -0.002823 -0.001063 -0.003477
                     12        13        14        15        16        17   
                  -0.80434  -0.77167  -0.69929  -0.63119  -0.59492  -0.55867
                   2.00000   2.00000   2.00000   2.00000   2.00000   2.00000
                  --------  --------  --------  --------  --------  --------
  0C   1s         0.115043 -0.000019 -0.108353 -0.000007  0.072807 -0.005992
  0C   2s        -0.222601  0.000052  0.218464  0.000001 -0.147924  0.011805
  0C   1pz       -0.002293  0.005752 -0.001532 -0.010362  0.002011 -0.006030
  0C   1px       -0.021531 -0.094774 -0.014406  0.170695  0.018886 -0.056633
  0C   1py        0.035259 -0.057403  0.023664  0.103379 -0.030990  0.092951
  0C   3s        -0.159586 -0.000092  0.165076  0.000176 -0.121316  0.046171
  0C   2pz       -0.000038  0.000830 -0.001953 -0.002540  0.001710 -0.001420
  0C   2px       -0.000416 -0.013676 -0.018360  0.041962  0.016158 -0.013316
  0C   2py        0.000810 -0.008194  0.030044  0.025280 -0.026510  0.021797
  0C   1dz2       0.009476  0.000052 -0.006338 -0.000048  0.002878 -0.000948
  0C   1dxz       0.000303 -0.000204 -0.000132  0.000178 -0.000468 -0.000178
  0C   1dyz       0.001211 -0.000732 -0.000830  0.000639  0.000524 -0.000080
  0C   1dx2y2    -0.000336 -0.008886 -0.000220  0.007760  0.003423  0.000965
  0C   1dxy      -0.000553  0.004611 -0.000477 -0.004023  0.006618  0.001858
  1C   1s         0.079035  0.110178 -0.009966 -0.090981 -0.059802 -0.010602
  1C   2s        -0.151872 -0.215565  0.020920  0.184603  0.123736  0.022703
  1C   1pz       -0.001001 -0.002930 -0.003879 -0.006061 -0.003576 -0.008776
  1C   1px        0.063832 -0.040750 -0.115224 -0.051753  0.162355  0.060054
  1C   1py       -0.000057  0.047787  0.076310  0.092354  0.013992  0.105313
  1C   3s        -0.106855 -0.159821  0.031423  0.141923  0.121245  0.009333
  1C   2pz        0.000108  0.000311 -0.000581 -0.003772 -0.001998 -0.004022
  1C   2px        0.006518 -0.009725 -0.023406 -0.001585  0.053015  0.032525
  1C   2py       -0.002573 -0.002106  0.012459  0.050682  0.015890  0.047280
  1C   1dz2       0.006557  0.008223 -0.000685 -0.004269 -0.002559 -0.000973
  1C   1dxz       0.000476 -0.000087 -0.000463 -0.000569 -0.000012  0.000033
  1C   1dyz       0.000538  0.001315  0.000486 -0.000561 -0.000724  0.000019
  1C   1dx2y2    -0.004789  0.004013  0.008539  0.001104 -0.005162  0.001706
  1C   1dxy      -0.002978  0.003355  0.004175  0.005824  0.000303 -0.001150
  2C   1s         0.078989 -0.110206 -0.009969  0.090992 -0.059800 -0.010595
  2C   2s        -0.151796  0.215592  0.020946 -0.184576  0.123705  0.022682
  2C   1pz        0.004663  0.003947 -0.009966  0.005658  0.011565  0.002236
  2C   1px       -0.029375  0.023795 -0.014823  0.058352 -0.087260 -0.121410
  2C   1py       -0.056496 -0.058057  0.137070 -0.088303 -0.137176 -0.004609
  2C   3s        -0.106673  0.160009  0.031240 -0.142183  0.121380  0.009123
  2C   2pz        0.000519  0.000658 -0.001972  0.001155  0.003564  0.001419
  2C   2px       -0.000540 -0.006332 -0.000463  0.044355 -0.038572 -0.057282
  2C   2py       -0.006910 -0.007552  0.026510 -0.024870 -0.039624 -0.006878
  2C   1dz2       0.006523 -0.008253 -0.000624  0.004294 -0.002613 -0.000950
  2C   1dxz       0.000590  0.000171 -0.000693  0.000497  0.000181 -0.000051
  2C   1dyz       0.000953 -0.001014 -0.000340  0.000312 -0.000032 -0.000278
  2C   1dx2y2     0.000259 -0.000363 -0.001486 -0.004168  0.003239 -0.001909
  2C   1dxy      -0.005606 -0.005241  0.009388 -0.004246 -0.004060  0.000737
  3C   1s        -0.015814 -0.115446  0.080392 -0.083360 -0.020213 -0.008107
  3C   2s         0.032856  0.226051 -0.157675  0.168650  0.045659  0.013332
  3C   1pz        0.002884 -0.002909  0.002083  0.006450  0.001971  0.010348
  3C   1px        0.077715 -0.031661 -0.003385  0.081373 -0.194207 -0.085027
  3C   1py       -0.055050  0.045753 -0.027312 -0.103696  0.014182 -0.121312
  3C   3s         0.019392  0.170776 -0.137242  0.151897  0.009010  0.065301
  3C   2pz        0.001143  0.000429  0.000700  0.004099  0.003734  0.000517
  3C   2px        0.004165 -0.010934 -0.000325  0.015420 -0.075504  0.005464
  3C   2py       -0.016099 -0.003332 -0.009327 -0.058176 -0.034431 -0.008247
  3C   1dz2      -0.001099 -0.008594  0.004989 -0.004130 -0.000522 -0.001587
  3C   1dxz      -0.000308  0.000075  0.000526 -0.000561  0.000627  0.000077
  3C   1dyz       0.000383 -0.001365  0.000750 -0.000460 -0.000474 -0.000298
  3C   1dx2y2     0.007479 -0.004060  0.000277  0.002187 -0.006938 -0.001515
  3C   1dxy       0.002187 -0.003315 -0.005293  0.005571 -0.007181 -0.001306
  4C   1s        -0.110558  0.000015  0.006321 -0.000004  0.076809  0.009269
  4C   2s         0.223957 -0.000049 -0.007485 -0.000011 -0.161310 -0.015942
  4C   1pz        0.005002  0.006887  0.012001  0.012003  0.007002  0.008275
  4C   1px        0.046976 -0.113543  0.112675 -0.197736  0.065722  0.077641
  4C   1py       -0.077118 -0.068724 -0.184852 -0.119733 -0.107863 -0.127414
  4C   3s         0.143011  0.000063 -0.027691  0.000124 -0.102736 -0.040360
  4C   2pz        0.000033  0.001042  0.000453  0.001375 -0.002851  0.007514
  4C   2px       -0.000029 -0.017247  0.004436 -0.022575 -0.026702  0.070455
  4C   2py       -0.000355 -0.010402 -0.007259 -0.013665  0.043876 -0.115658
  4C   1dz2      -0.008814 -0.000052 -0.001479 -0.000034  0.000416 -0.002006
  4C   1dxz       0.000146  0.000208  0.001161  0.000129  0.000511 -0.000026
  4C   1dyz      -0.001247  0.000744 -0.000528  0.000455 -0.000086 -0.000266
  4C   1dx2y2    -0.002377  0.009048 -0.007559  0.005562 -0.003148 -0.000156
  4C   1dxy      -0.004682 -0.004693 -0.014574 -0.002884 -0.006059 -0.000316
  5C   1s        -0.015771  0.115447  0.080401  0.083367 -0.020203 -0.008096
  5C   2s         0.032752 -0.226034 -0.157659 -0.168626  0.045621  0.013294
  5C   1pz        0.006802  0.003244  0.000309 -0.008064 -0.014472 -0.003719
  5C   1px        0.013204  0.026149  0.025879 -0.054813  0.076863  0.147171
  5C   1py       -0.094126 -0.049073 -0.009609  0.119739  0.178347  0.019327
  5C   3s         0.019668 -0.170870 -0.137469 -0.152029  0.009023  0.065197
  5C   2pz        0.000636  0.000736  0.000182 -0.002298 -0.004837  0.000561
  5C   2px        0.012303 -0.008012  0.008511 -0.044691  0.065411  0.005045
  5C   2py       -0.011265 -0.008077 -0.004056  0.040513  0.051008 -0.008787
  5C   1dz2      -0.001044  0.008619  0.005021  0.004142 -0.000553 -0.001592
  5C   1dxz      -0.000538 -0.000164  0.000412  0.000533  0.000745  0.000109
  5C   1dyz      -0.000439  0.001057  0.000357  0.000367 -0.000058 -0.000189
  5C   1dx2y2    -0.002506  0.000301 -0.004531 -0.003335 -0.001877 -0.000178
  5C   1dxy       0.007375  0.005260 -0.002792 -0.004981 -0.009810 -0.001988
  6N   1s        -0.048581  0.000012 -0.080033  0.000001 -0.064884  0.051693
  6N   2s         0.111953 -0.000028  0.194077  0.000002  0.165252 -0.135650
  6N   1pz       -0.012700 -0.000202 -0.011925  0.001029  0.000084 -0.014070
  6N   1px       -0.119256  0.003829 -0.111959 -0.015553  0.000843 -0.132297
  6N   1py        0.195639  0.002255  0.183682 -0.009431 -0.001392  0.217074
  6N   3s         0.137688 -0.000022  0.233996 -0.000011  0.207372 -0.167198
  6N   2pz       -0.004428  0.000170 -0.005271  0.001937 -0.001800 -0.002533
  6N   2px       -0.041427 -0.002608 -0.049543 -0.031386 -0.016862 -0.023898
  6N   2py        0.068171 -0.001593  0.081286 -0.019029  0.027678  0.039294
  6N   1dz2      -0.000134 -0.000024  0.001870 -0.000049  0.002702 -0.000607
  6N   1dxz       0.000777  0.000096  0.000520  0.000201  0.000147 -0.000611
  6N   1dyz      -0.000242  0.000338  0.000106  0.000708  0.000325  0.000093
  6N   1dx2y2    -0.004958  0.004121 -0.003003  0.008647 -0.000504  0.003787
  6N   1dxy      -0.009560 -0.002136 -0.005770 -0.004486 -0.000948  0.007277
  7O   1s         0.046344  0.008339  0.057765  0.017014  0.055238 -0.067193
  7O   2s        -0.108265 -0.019703 -0.134212 -0.039187 -0.126725  0.149942
  7O   1pz       -0.000927  0.000023 -0.004501 -0.001359 -0.008070  0.011220
  7O   1px       -0.038326 -0.006610 -0.014898 -0.013803  0.060318 -0.196879
  7O   1py        0.020270  0.001119  0.063758  0.021689  0.096758 -0.111505
  7O   3s        -0.117025 -0.021835 -0.166548 -0.064937 -0.179705  0.233169
  7O   2pz       -0.000173  0.000033 -0.001704 -0.000217 -0.003646  0.005008
  7O   2px       -0.014550 -0.003990 -0.005462 -0.011213  0.028652 -0.102965
  7O   2py        0.005284  0.000380  0.024055  0.005396  0.043389 -0.046680
  7O   1dz2      -0.001123 -0.000314 -0.003019 -0.001346 -0.004713  0.006519
  7O   1dxz       0.000314  0.000047  0.000022  0.000079 -0.000547  0.001413
  7O   1dyz      -0.000539 -0.000034 -0.000980 -0.000227 -0.000952  0.000734
  7O   1dx2y2    -0.006001 -0.000072 -0.007886 -0.001049 -0.003321 -0.004660
  7O   1dxy      -0.003444 -0.000726  0.000214 -0.001311  0.006362 -0.015791
  8O   1s         0.046346 -0.008361  0.057765 -0.017016  0.055233 -0.067180
  8O   2s        -0.108260  0.019756 -0.134207  0.039201 -0.126710  0.149918
  8O   1pz       -0.003197  0.000511 -0.002404  0.001493  0.002346 -0.011919
  8O   1px       -0.000386 -0.002048 -0.049903  0.012946 -0.113926  0.189944
  8O   1py        0.043244 -0.006388  0.042558 -0.022220 -0.008774  0.122784
  8O   3s        -0.117142  0.021889 -0.166558  0.064922 -0.179708  0.233071
  8O   2pz       -0.001162  0.000299 -0.000893  0.000937  0.001170 -0.006479
  8O   2px        0.002044 -0.001495 -0.018899 -0.000346 -0.051821  0.089007
  8O   2py        0.015312 -0.003722  0.015914 -0.012423 -0.005352  0.069566
  8O   1dz2      -0.001161  0.000312 -0.003092  0.001350 -0.004776  0.006564
  8O   1dxz       0.000470 -0.000036  0.000318 -0.000095 -0.000300  0.001278
  8O   1dyz       0.000002  0.000074  0.000049  0.000184 -0.000100  0.000280
  8O   1dx2y2     0.000642  0.000548  0.004737  0.000456  0.007151 -0.010284
  8O   1dxy      -0.006894  0.000483 -0.006339  0.001620  0.000926 -0.012872
  9H   1s         0.013597  0.065427 -0.048598  0.088714  0.048981  0.082905
  9H   2s        -0.003736  0.007533 -0.018416  0.019720  0.000234  0.072942
 10H   1s        -0.057933  0.000009  0.088868  0.000010 -0.079094  0.057972
 10H   2s        -0.009581 -0.000013  0.018749  0.000024 -0.030714  0.034877
 11H   1s        -0.038810  0.063782  0.011922 -0.097036  0.092493  0.067582
 11H   2s        -0.006615  0.010980  0.003493 -0.031152  0.038379  0.033394
 12H   1s         0.013565 -0.065417 -0.048596 -0.088699  0.048962  0.082877
 12H   2s        -0.003701 -0.007525 -0.018409 -0.019736  0.000259  0.072831
 13H   1s        -0.038852 -0.063786  0.011927  0.097052  0.092518  0.067612
 13H   2s        -0.006676 -0.010978  0.003537  0.031142  0.038402  0.033480
                     18        19        20        21        22        23   
                  -0.52780  -0.50889  -0.50761  -0.46747  -0.46548  -0.44716
                   2.00000   2.00000   2.00000   2.00000   2.00000   2.00000
                  --------  --------  --------  --------  --------  --------
  0C   1s        -0.000003 -0.043010 -0.000068  0.000001  0.046268 -0.000017
  0C   2s         0.000007  0.087778  0.000138 -0.000003 -0.095421  0.000051
  0C   1pz       -0.007641 -0.015154 -0.005933 -0.013288 -0.008121  0.003735
  0C   1px       -0.000028 -0.142618  0.097179  0.218830 -0.076316 -0.061524
  0C   1py       -0.000490  0.233684  0.059343  0.132550  0.125215 -0.037297
  0C   3s        -0.000030  0.095267  0.000192  0.000065 -0.147656  0.000093
  0C   2pz       -0.004939 -0.005049 -0.001294 -0.005854 -0.002884 -0.000820
  0C   2px       -0.000060 -0.047620  0.021005  0.096213 -0.027076  0.013874
  0C   2py       -0.000321  0.077978  0.012876  0.058236  0.044305  0.008359
  0C   1dz2      -0.000072 -0.003018 -0.000015 -0.000024 -0.000075  0.000063
  0C   1dxz      -0.000394  0.000648  0.000042  0.000093 -0.000492 -0.000254
  0C   1dyz       0.000641 -0.000595  0.000145  0.000333  0.000126 -0.000915
  0C   1dx2y2    -0.000053 -0.004582  0.001756  0.004039  0.003072 -0.011100
  0C   1dxy      -0.000021 -0.008834 -0.000927 -0.002093  0.005933  0.005768
  1C   1s        -0.000012  0.044302 -0.008164 -0.000210 -0.026558  0.017165
  1C   2s         0.000020 -0.088582  0.018038  0.002668  0.052268 -0.038215
  1C   1pz       -0.013797 -0.006191 -0.003338 -0.005415 -0.017082 -0.019763
  1C   1px       -0.000296  0.020726 -0.090203 -0.224563  0.128316  0.081097
  1C   1py       -0.000934  0.078865  0.063829  0.119871  0.202400  0.248406
  1C   3s         0.000082 -0.120862  0.009129 -0.005184  0.065208 -0.067404
  1C   2pz       -0.002875 -0.002573 -0.001454 -0.002939 -0.006133 -0.005697
  1C   2px       -0.000077 -0.012810 -0.040299 -0.034796  0.014121  0.037668
  1C   2py       -0.000213  0.037414  0.027918  0.046547  0.079512  0.068550
  1C   1dz2      -0.000143  0.000932 -0.000206  0.000425 -0.002571 -0.001859
  1C   1dxz      -0.000198  0.000584 -0.000215 -0.000211 -0.000469 -0.000757
  1C   1dyz       0.001136  0.000474 -0.000024  0.000268 -0.001411 -0.000214
  1C   1dx2y2    -0.000087  0.003021  0.000598  0.003314 -0.012714  0.002264
  1C   1dxy       0.000006 -0.008119  0.002676  0.002281  0.007982  0.009041
  2C   1s         0.000017  0.044282  0.008304  0.000210 -0.026561 -0.017152
  2C   2s        -0.000040 -0.088543 -0.018318 -0.002667  0.052221  0.038238
  2C   1pz       -0.013777 -0.000114  0.007889  0.018837  0.005255 -0.000859
  2C   1px       -0.000185 -0.079810  0.015023  0.003180 -0.239179  0.258643
  2C   1py       -0.001137  0.018359 -0.109147 -0.253887 -0.020269 -0.042692
  2C   3s         0.000015 -0.121035 -0.009407  0.005364  0.065265  0.067358
  2C   2pz       -0.002902 -0.001722  0.003529  0.003522 -0.000576 -0.001349
  2C   2px        0.000001 -0.027591  0.006256  0.025469 -0.077432  0.078516
  2C   2py       -0.000248  0.028872 -0.048547 -0.052425  0.024213  0.001573
  2C   1dz2      -0.000065  0.000999  0.000214 -0.000447 -0.002721  0.001883
  2C   1dxz      -0.000927  0.000319  0.000188  0.000288  0.000144  0.000671
  2C   1dyz       0.000699 -0.000462 -0.000081  0.000009  0.000776 -0.000104
  2C   1dx2y2    -0.000070 -0.008374 -0.001876  0.000042  0.013869 -0.006122
  2C   1dxy      -0.000061 -0.002181 -0.002041 -0.004037 -0.005816 -0.007050
  3C   1s        -0.000033 -0.044836 -0.015322 -0.001155  0.031363 -0.016629
  3C   2s         0.000084  0.091746  0.032214  0.009723 -0.062456  0.036655
  3C   1pz       -0.040042  0.012294  0.000098 -0.005455 -0.009026 -0.020873
  3C   1px       -0.000694  0.007291 -0.106600 -0.219857  0.153860  0.095182
  3C   1py       -0.002967 -0.166736  0.021303  0.119540  0.089246  0.260823
  3C   3s         0.000003  0.140447  0.028021 -0.110730 -0.068981  0.083293
  3C   2pz       -0.020799  0.003325  0.000031 -0.001127 -0.004260 -0.006505
  3C   2px       -0.000370 -0.031472 -0.008608 -0.160263  0.025086  0.069100
  3C   2py       -0.001580 -0.037742  0.001322  0.048748  0.052287  0.072799
[...]
     28      -0.036365  -0.001862  -0.039908   0.036740   0.024749   0.331314
     29      -0.489186   0.003624  -0.536555   0.493030   0.330582  -0.029376
     30       0.000011   0.073103   0.009665   0.000001   0.008263   0.200313
     31      -0.000030  -0.119945   0.045800  -0.000036   0.039014  -0.329065
     32      -0.000175   0.007502   0.616328   0.000337   0.526880   0.019008
     33      -0.007816  -0.241273  -0.000646  -0.007626  -0.007723  -0.058231
     34      -0.036966   0.253769  -0.002750  -0.036355  -0.036411  -0.040928
     35      -0.497059  -0.014450  -0.036431  -0.489492  -0.485666   0.005720
     36       0.007596   0.076311  -0.008425  -0.007601   0.004849  -0.417801
     37       0.036484   0.142395  -0.039934  -0.036491   0.024409  -0.083156
     38       0.489669  -0.012504  -0.536666  -0.492011   0.331117   0.012249
     39       0.007728  -0.114675  -0.000376   0.007550  -0.007336   0.063319
     40       0.037058   0.330187  -0.002671   0.036417  -0.036227   0.032836
     41       0.496717  -0.024080  -0.035452   0.488878  -0.486508  -0.001797
                 24         25         26         27         28         29    
      0       0.079423  -0.069134   0.010644  -0.059141   0.001215  -0.044248
      1      -0.130312  -0.041840  -0.018012  -0.035783  -0.001594  -0.026796
      2       0.008335   0.004181   0.001202   0.003593   0.000095   0.002682
      3      -0.144256   0.013589   0.051080   0.042608  -0.048108  -0.030697
      4      -0.121428   0.074855   0.114423  -0.014619   0.043436  -0.014553
      5       0.011422  -0.005788  -0.009303   0.000421  -0.002486   0.001566
      6       0.174586   0.073326  -0.124988   0.006524  -0.016552  -0.027106
      7       0.071650  -0.022465   0.007517   0.044742   0.062266  -0.020503
      8      -0.008034   0.000514   0.001366  -0.003426  -0.004366   0.001958
      9      -0.078760  -0.014634  -0.043615   0.003542   0.038554   0.055667
     10       0.016927   0.101723  -0.034181   0.007764  -0.035966  -0.061612
     11       0.000010  -0.007308   0.003214  -0.000633   0.002070   0.003702
     12      -0.016956  -0.028981   0.189684  -0.003716   0.038155   0.096582
     13       0.027815  -0.016990  -0.311497  -0.002417  -0.062526   0.058490
     14      -0.001817   0.001689   0.020246   0.000234   0.004054  -0.005842
     15       0.021204   0.083714   0.051053   0.008589   0.014191  -0.029229
     16       0.077455  -0.059829   0.022471  -0.000784  -0.050620   0.077650
     17      -0.006153   0.003175  -0.002490  -0.000076   0.003552  -0.005338
     18       0.004548  -0.003867  -0.031199   0.000639  -0.000843  -0.001877
     19      -0.007463  -0.002451   0.051156   0.000395   0.001380  -0.001084
     20       0.000482   0.000231  -0.003338  -0.000043  -0.000088   0.000130
     21      -0.004370   0.004943   0.057799   0.000155   0.008283  -0.002301
     22      -0.010820   0.007377   0.071627   0.003068   0.018835  -0.012859
     23       0.000864  -0.000621  -0.006157  -0.000229  -0.001519   0.000983
     24       0.011663   0.009106  -0.090323   0.002722  -0.020621  -0.012446
     25      -0.001126   0.001036  -0.018126  -0.001265   0.001364   0.003884
     26      -0.000091  -0.000210   0.002692   0.000052   0.000209  -0.000103
     27      -0.415840  -0.423867  -0.574204   0.156654   0.369149  -0.487165
     28       0.194323   0.321541   0.227958  -0.071612  -0.211404   0.218070
     29      -0.008040  -0.017403  -0.008032   0.002880   0.009979  -0.008616
     30       0.087748  -0.417015   0.006002  -0.606658   0.002735   0.230584
     31      -0.144026  -0.252475  -0.013396  -0.367293   0.000053   0.139607
     32       0.009954   0.025360   0.000746   0.036728  -0.000005  -0.013972
     33       0.177851   0.085380  -0.134698  -0.002451  -0.029749  -0.040716
     34       0.433039  -0.262263   0.073882   0.463025   0.551505   0.400370
     35      -0.035255   0.018218  -0.003247  -0.034426  -0.040613  -0.029172
     36       0.018560   0.090845   0.062169   0.008487   0.018064  -0.030322
     37       0.457884  -0.524649   0.610232   0.168782  -0.425414  -0.530981
     38      -0.034110   0.037548  -0.046218  -0.012669   0.031378   0.039990
     39      -0.467181  -0.194258  -0.004506   0.408425  -0.479808   0.337914
     40       0.041953   0.195922   0.154158  -0.213933   0.281732  -0.220597
     41       0.003633  -0.011601  -0.011479   0.009558  -0.013506   0.011173
                 30         31         32         33         34         35    
      0       0.252664   0.004083   0.141628   0.048123  -0.271275  -0.080562
      1       0.153047  -0.006740   0.085652  -0.079117  -0.164245   0.132377
      2      -0.015323   0.000430  -0.008571   0.005130   0.016448  -0.008584
      3      -0.288709  -0.005082   0.046613  -0.133476   0.165249   0.223069
      4       0.147523   0.000024  -0.125735   0.020514   0.050896  -0.212337
      5      -0.006465   0.000069   0.008627   0.000573  -0.006381   0.012325
      6      -0.001768   0.002308  -0.090437   0.043305   0.121497   0.086125
      7      -0.323424   0.004411   0.099432   0.127434   0.122676  -0.295097
      8       0.024053  -0.000361  -0.005991  -0.010168  -0.011026   0.020603
      9      -0.249866   0.016307  -0.006303  -0.140365  -0.181195  -0.213405
     10       0.151915  -0.015962  -0.101825   0.021314   0.009582   0.205456
     11      -0.007392   0.000922   0.007665   0.000616   0.002123  -0.011951
     12       0.275675  -0.088278   0.143144   0.065853   0.183016   0.078657
     13       0.166842   0.144947   0.086637  -0.108213   0.110767  -0.128997
     14      -0.016687  -0.009391  -0.008657   0.007028  -0.011075   0.008389
     15       0.020169   0.006712  -0.093474   0.045789  -0.074961  -0.084651
     16      -0.290992  -0.021716   0.041403   0.134007  -0.164598   0.283583
     17       0.021331   0.001530  -0.001638  -0.010705   0.013432  -0.019808
     18       0.012786   0.380188   0.029814   0.003742   0.425226   0.016334
     19       0.007777  -0.623568   0.018050  -0.006165   0.257574  -0.026807
     20      -0.000744   0.040501  -0.001761   0.000398  -0.025434   0.001737
     21      -0.003088   0.162939  -0.012447   0.005305  -0.125055   0.009242
     22      -0.031309   0.418443  -0.029230   0.014835  -0.204379   0.019982
     23       0.002359  -0.033439   0.002345  -0.001178   0.016995  -0.001619
     24      -0.029275  -0.447789  -0.031776  -0.015626  -0.239529  -0.022053
     25       0.011704   0.048674   0.002462   0.002140  -0.016458   0.001031
     26      -0.000437   0.003087   0.000290   0.000077   0.004794   0.000255
     27       0.112902  -0.086019  -0.211165   0.373808   0.129843   0.346443
     28      -0.032838   0.032602  -0.012898  -0.259783  -0.152280  -0.075176
     29       0.000625  -0.000974   0.004246   0.013471   0.009299   0.000165
     30      -0.225899   0.004520  -0.593540   0.058764   0.397353  -0.091886
     31      -0.136699  -0.007278  -0.359492  -0.095802   0.240588   0.150285
     32       0.013678   0.000500   0.035968   0.006208  -0.024091  -0.009793
     33      -0.020480   0.001418  -0.097017   0.067581   0.146045   0.079418
     34       0.402850  -0.078057  -0.381766  -0.478765  -0.112009   0.379467
     35      -0.029514   0.005746   0.029948   0.034588   0.006028  -0.029457
     36       0.022842   0.010658  -0.108670   0.059180  -0.075747  -0.092752
     37       0.114948   0.090542  -0.181145  -0.450263   0.184935  -0.341295
     38      -0.008862  -0.007027   0.015192   0.032634  -0.012626   0.026871
     39       0.349330   0.069542  -0.384149   0.395775  -0.032520  -0.374869
     40      -0.203676  -0.037628   0.089784  -0.280646   0.180801   0.104631
     41       0.009659   0.001743  -0.000667   0.014700  -0.012948  -0.001880
                 36         37         38         39         40         41    
      0      -0.240785  -0.033290  -0.002021   0.030745  -0.002029   0.000820
      1      -0.145797   0.054513  -0.004011  -0.050284   0.001540  -0.002786
      2       0.014610  -0.003536   0.000329   0.003261  -0.000083   0.000195
      3       0.186692  -0.016796   0.028857  -0.025288   0.004186  -0.001368
      4       0.026379  -0.033870   0.052841  -0.040890   0.014046  -0.002669
      5      -0.004885   0.002784  -0.004385   0.003441  -0.001110   0.000220
      6       0.109537   0.039784   0.061397   0.045208  -0.000077   0.014402
      7       0.152991  -0.000714   0.001361   0.003461  -0.000548  -0.002727
      8      -0.013097  -0.000569  -0.001061  -0.000964   0.000042  -0.000022
      9      -0.215600  -0.002861  -0.004899  -0.005216   0.003648   0.039838
     10      -0.042913  -0.003532  -0.005390  -0.006013   0.008028   0.075955
     11       0.006557   0.000307   0.000478   0.000529  -0.000654  -0.006271
     12       0.336980   0.000115  -0.000443   0.000034  -0.001574  -0.002946
     13       0.204046  -0.000211  -0.000260  -0.000046  -0.002782   0.000463
     14      -0.020405   0.000014   0.000026   0.000003   0.000231   0.000011
     15      -0.137538   0.004353  -0.007046   0.008340   0.085939  -0.008742
     16      -0.170879   0.000847  -0.001791   0.001930   0.000135  -0.000512
     17       0.014860  -0.000130   0.000243  -0.000273  -0.001340   0.000173
     18      -0.350646  -0.000041  -0.000163  -0.000036   0.001373   0.000674
     19      -0.212437   0.000064  -0.000096   0.000075   0.000342   0.001007
     20       0.021015  -0.000004   0.000010  -0.000005  -0.000047  -0.000085
     21       0.099029   0.000050   0.000111   0.000084  -0.000238  -0.000749
     22       0.133496  -0.000026   0.000005  -0.000072   0.000123  -0.000093
     23      -0.011376   0.000001  -0.000002   0.000004  -0.000005   0.000018
     24       0.164405   0.000001   0.000058   0.000021  -0.000420   0.000086
     25       0.026107  -0.000055   0.000094  -0.000114  -0.000661  -0.000137
     26      -0.004400   0.000004  -0.000008   0.000008   0.000056   0.000009
     27       0.096276   0.028774   0.045980   0.048521  -0.047376  -0.452532
     28      -0.237368   0.053110   0.083321   0.088166  -0.091163  -0.865966
     29       0.016122  -0.004398  -0.006915  -0.007316   0.007519   0.071469
     30       0.290624   0.389811  -0.009914  -0.339584   0.011857  -0.012357
     31       0.175955  -0.639510   0.025592   0.557023  -0.017629   0.021744
     32      -0.017594   0.041497  -0.001748  -0.036145   0.001127  -0.001426
     33       0.131910  -0.470448  -0.702845  -0.504232   0.001069  -0.146464
     34      -0.212750  -0.008594  -0.015575  -0.014509   0.000502  -0.000521
     35       0.013756   0.007991   0.012144   0.008963  -0.000056   0.002327
     36      -0.166973  -0.058838   0.094939  -0.108208  -0.979457   0.097224
     37       0.194308  -0.000914   0.002200  -0.002402  -0.001264   0.000359
     38      -0.011821   0.000977  -0.001632   0.001855   0.015255  -0.001531
     39      -0.128674   0.214067  -0.332325   0.261005  -0.068248   0.014769
     40       0.214701   0.393342  -0.605168   0.467997  -0.129956   0.027063
     41      -0.013969  -0.032633   0.050254  -0.038928   0.010739  -0.002247


-----------
IR SPECTRUM
-----------

 Mode    freq (cm**-1)   T**2         TX         TY         TZ
-------------------------------------------------------------------
   6:        63.60    0.000003  (  0.001154  -0.001265  -0.000386)
   7:       172.97    1.218522  (  0.015799   0.082574   1.100661)
   8:       259.29    1.158679  ( -0.919159  -0.557350   0.056443)
   9:       399.02    1.428466  (  0.620988  -1.019088   0.065578)
  10:       420.93    0.000001  ( -0.000882  -0.000498   0.000209)
  11:       451.14    0.025142  ( -0.003678  -0.011137  -0.158126)
  12:       527.77    1.090834  ( -0.891183  -0.541783   0.055665)
  13:       625.24    0.035497  ( -0.160265  -0.098590   0.009580)
  14:       691.72    3.788556  (  0.043621   0.122252   1.942089)
  15:       695.67   11.454386  ( -1.757422   2.887880  -0.161256)
  16:       721.08   68.525328  ( -0.127481  -0.608473  -8.254625)
  17:       813.32    8.043272  (  0.043589   0.205343   2.828287)
  18:       860.28    0.000026  (  0.000543  -0.004990  -0.000848)
  19:       863.32   33.234302  (  2.995695  -4.915081   0.319516)
  20:       963.75    3.161555  ( -0.024465  -0.131970  -1.773003)
  21:       986.34    0.000023  ( -0.000150   0.000827  -0.004681)
  22:      1012.01    0.283758  (  0.009429   0.037729   0.531268)
  23:      1019.82    0.286639  (  0.280551  -0.454978   0.030426)
  24:      1049.02    3.942423  ( -1.039234   1.688209  -0.111201)
  25:      1107.47    7.441016  ( -2.325693  -1.418503   0.141484)
  26:      1130.18   31.607175  ( -2.931007   4.787448  -0.310990)
  27:      1193.39    0.211420  ( -0.395069  -0.234137   0.022807)
  28:      1204.68    2.555123  (  0.831244  -1.362527   0.087620)
  29:      1344.52    0.735438  ( -0.734187  -0.441015   0.043742)
  30:      1373.15   10.605027  (  2.780891   1.686270  -0.167830)
  31:      1401.39  278.741532  (  8.678570 -14.232712   0.924056)
  32:      1503.42    0.755482  ( -0.741279  -0.451409   0.047095)
  33:      1526.49    7.983548  (  1.472382  -2.406540   0.155575)
  34:      1627.62  144.370672  ( 10.261790   6.220147  -0.613273)
  35:      1646.51    4.042902  ( -1.044919   1.714222  -0.111757)
  36:      1677.74   68.573785  ( -7.072810  -4.286168   0.421785)
  37:      3195.17    0.785250  ( -0.414061   0.781756  -0.051589)
  38:      3207.84   13.336693  (  3.175106   1.794946  -0.183201)
  39:      3217.06   14.216305  (  1.886697  -3.257590   0.211624)
  40:      3251.73    1.225433  ( -0.791587   0.772421  -0.046776)
  41:      3252.26    1.773397  (  0.478879  -1.239750   0.084215)

The first frequency considered to be a vibration is 6
The total number of vibrations considered is 36


--------------------------
THERMOCHEMISTRY AT 298.15K
--------------------------

Temperature         ... 298.15 K
Pressure            ... 1.00 atm
Total Mass          ... 123.11 AMU

Throughout the following assumptions are being made:
  (1) The electronic state is orbitally nondegenerate
  (2) There are no thermally accessible electronically excited states
  (3) Hindered rotations indicated by low frequency modes are not
      treated as such but are treated as vibrations and this may
      cause some error
  (4) All equations used are the standard statistical mechanics
      equations for an ideal gas
  (5) All vibrations are strictly harmonic

freq.      63.60  E(vib)   ...       0.51 
freq.     172.97  E(vib)   ...       0.38 
freq.     259.29  E(vib)   ...       0.30 
freq.     399.02  E(vib)   ...       0.19 
freq.     420.93  E(vib)   ...       0.18 
freq.     451.14  E(vib)   ...       0.16 
freq.     527.77  E(vib)   ...       0.13 
freq.     625.24  E(vib)   ...       0.09 
freq.     691.72  E(vib)   ...       0.07 
freq.     695.67  E(vib)   ...       0.07 
freq.     721.08  E(vib)   ...       0.07 
freq.     813.32  E(vib)   ...       0.05 
freq.     860.28  E(vib)   ...       0.04 
freq.     863.32  E(vib)   ...       0.04 
freq.     963.75  E(vib)   ...       0.03 
freq.     986.34  E(vib)   ...       0.02 
freq.    1012.01  E(vib)   ...       0.02 
freq.    1019.82  E(vib)   ...       0.02 
freq.    1049.02  E(vib)   ...       0.02 
freq.    1107.47  E(vib)   ...       0.02 
freq.    1130.18  E(vib)   ...       0.01 
freq.    1193.39  E(vib)   ...       0.01 
freq.    1204.68  E(vib)   ...       0.01 
freq.    1344.52  E(vib)   ...       0.01 
freq.    1373.15  E(vib)   ...       0.01 
freq.    1401.39  E(vib)   ...       0.00 
freq.    1503.42  E(vib)   ...       0.00 
freq.    1526.49  E(vib)   ...       0.00 
freq.    1627.62  E(vib)   ...       0.00 
freq.    1646.51  E(vib)   ...       0.00 
freq.    1677.74  E(vib)   ...       0.00 
freq.    3195.17  E(vib)   ...       0.00 
freq.    3207.84  E(vib)   ...       0.00 
freq.    3217.06  E(vib)   ...       0.00 
freq.    3251.73  E(vib)   ...       0.00 
freq.    3252.26  E(vib)   ...       0.00 

------------
INNER ENERGY
------------

The inner energy is: U= E(el) + E(ZPE) + E(vib) + E(rot) + E(trans)
    E(el)   - is the total energy from the electronic structure calculation
              = E(kin-el) + E(nuc-el) + E(el-el) + E(nuc-nuc)
    E(ZPE)  - the the zero temperature vibrational energy from the frequency calculation
    E(vib)  - the the finite temperature correction to E(ZPE) due to population
              of excited vibrational states
    E(rot)  - is the rotational thermal energy
    E(trans)- is the translational thermal energy

Summary of contributions to the inner energy U:
Electronic energy                ...   -436.50435810 Eh
Zero point energy                ...      0.10355847 Eh      64.98 kcal/mol
Thermal vibrational correction   ...      0.00393578 Eh       2.47 kcal/mol
Thermal rotational correction    ...      0.00141627 Eh       0.89 kcal/mol
Thermal translational correction ...      0.00141627 Eh       0.89 kcal/mol
-----------------------------------------------------------------------
Total thermal energy                   -436.39403131 Eh


Summary of corrections to the electronic energy:
(perhaps to be used in another calculation)
Total thermal correction                  0.00676832 Eh       4.25 kcal/mol
Non-thermal (ZPE) correction              0.10355847 Eh      64.98 kcal/mol
-----------------------------------------------------------------------
Total correction                          0.11032680 Eh      69.23 kcal/mol


--------
ENTHALPY
--------

The enthalpy is H = U + kB*T
                kB is Boltzmann's constant
Total free energy                 ...   -436.39403131 Eh 
Thermal Enthalpy correction       ...      0.00094421 Eh       0.59 kcal/mol
-----------------------------------------------------------------------
Total Enthalpy                    ...   -436.39308710 Eh


Note: Rotational entropy computed according to Herzberg 
Infrared and Raman Spectra, Chapter V,1, Van Nostrand Reinhold, 1945 
Point Group:  C1, Symmetry Number:   1  
Rotational constants in cm-1:     0.131887     0.042793     0.032310 

Vibrational entropy computed according to the QRRHO of S. Grimme
Chem.Eur.J. 2012 18 9955


-------
ENTROPY
-------

The entropy contributions are T*S = T*(S(el)+S(vib)+S(rot)+S(trans))
     S(el)   - electronic entropy
     S(vib)  - vibrational entropy
     S(rot)  - rotational entropy
     S(trans)- translational entropy
The entropies will be listed as mutliplied by the temperature to get
units of energy

Electronic entropy                ...      0.00000000 Eh      0.00 kcal/mol
Vibrational entropy               ...      0.00634898 Eh      3.98 kcal/mol
Rotational entropy                ...      0.01357531 Eh      8.52 kcal/mol
Translational entropy             ...      0.01916571 Eh     12.03 kcal/mol
-----------------------------------------------------------------------
Final entropy term                ...      0.03909000 Eh     24.53 kcal/mol


-------------------
GIBBS FREE ENTHALPY
-------------------

The Gibbs free enthalpy is G = H - T*S

Total enthalpy                    ...   -436.39308710 Eh 
Total entropy correction          ...     -0.03909000 Eh    -24.53 kcal/mol
-----------------------------------------------------------------------
Final Gibbs free enthalpy         ...   -436.43217710 Eh

For completeness - the Gibbs free enthalpy minus the electronic energy
G-E(el)                           ...      0.07218101 Eh     45.29 kcal/mol


Timings for individual modules:

Sum of individual times         ...      891.029 sec (=  14.850 min)
GTO integral calculation        ...        0.325 sec (=   0.005 min)   0.0 %
SCF iterations                  ...       43.896 sec (=   0.732 min)   4.9 %
Analytical frequency calculation...      846.808 sec (=  14.113 min)  95.0 %
                             ****ORCA TERMINATED NORMALLY****
TOTAL RUN TIME: 0 days 0 hours 14 minutes 53 seconds 233 msec
