
                                 *****************
                                 * O   R   C   A *
                                 *****************

           --- An Ab Initio, DFT and Semiempirical electronic structure package ---

                  #######################################################
                  #                        -***-                        #
                  #          Department of theory and spectroscopy      #
                  #               Directorship: Frank Neese             #
                  #        Max Planck Institute fuer Kohlenforschung    #
                  #                Kaiser Wilhelm Platz 1               #
                  #                 D-45470 Muelheim/Ruhr               #
                  #                      Germany                        #
                  #                                                     #
                  #                  All rights reserved                #
                  #                        -***-                        #
                  #######################################################


                         Program Version 4.1.0  - RELEASE  -


 With contributions from (in alphabetic order):
   Daniel Aravena         : Magnetic Properties
   Michael Atanasov       : Ab Initio Ligand Field Theory
   Alexander A. Auer      : GIAO ZORA
   Ute Becker             : Parallelization
   Giovanni Bistoni       : ED, Open-shell LED
   Martin Brehm           : Molecular dynamics
   Dmytro Bykov           : SCF Hessian
   Vijay G. Chilkuri      : MRCI spin determinant printing
   Dipayan Datta          : RHF DLPNO-CCSD density
   Achintya Kumar Dutta   : EOM-CC, STEOM-CC
   Dmitry Ganyushin       : Spin-Orbit,Spin-Spin,Magnetic field MRCI
   Miquel Garcia          : C-PCM Hessian
   Yang Guo               : DLPNO-NEVPT2, CIM, IAO-localization
   Andreas Hansen         : Spin unrestricted coupled pair/coupled cluster methods
   Benjamin Helmich-Paris : CASSCF linear response (MC-RPA)
   Lee Huntington         : MR-EOM, pCC
   Robert Izsak           : Overlap fitted RIJCOSX, COSX-SCS-MP3, EOM
   Christian Kollmar      : KDIIS, OOCD, Brueckner-CCSD(T), CCSD density
   Simone Kossmann        : Meta GGA functionals, TD-DFT gradient, OOMP2, MP2 Hessian
   Martin Krupicka        : AUTO-CI
   Lucas Lang             : DCDCAS
   Dagmar Lenk            : GEPOL surface, SMD
   Dimitrios Liakos       : Extrapolation schemes; parallel MDCI
   Dimitrios Manganas     : ROCIS; embedding schemes
   Dimitrios Pantazis     : SARC Basis sets
   Taras Petrenko         : DFT Hessian,TD-DFT gradient, ASA, ECA, R-Raman, ABS, FL, XAS/XES, NRVS
   Peter Pinski           : DLPNO-MP2, DLPNO-MP2 Gradient
   Christoph Reimann      : Effective Core Potentials
   Marius Retegan         : Local ZFS, SOC
   Christoph Riplinger    : Optimizer, TS searches, QM/MM, DLPNO-CCSD(T), (RO)-DLPNO pert. Triples
   Tobias Risthaus        : Range-separated hybrids, TD-DFT gradient, RPA, STAB
   Michael Roemelt        : Restricted open shell CIS
   Masaaki Saitow         : Open-shell DLPNO
   Barbara Sandhoefer     : DKH picture change effects
   Avijit Sen             : IP-ROCIS
   Kantharuban Sivalingam : CASSCF convergence, NEVPT2, FIC-MRCI
   Bernardo de Souza      : ESD, SOC TD-DFT
   Georgi Stoychev        : AutoAux, RI-MP2 NMR
   Willem Van den Heuvel  : Paramagnetic NMR
   Boris Wezisla          : Elementary symmetry handling
   Frank Wennmohs         : Technical directorship


 We gratefully acknowledge several colleagues who have allowed us to
 interface, adapt or use parts of their codes:
   Stefan Grimme, W. Hujo, H. Kruse,             : VdW corrections, initial TS optimization,
                  C. Bannwarth                     DFT functionals, gCP, sTDA/sTD-DF
   Ed Valeev                                     : LibInt (2-el integral package), F12 methods
   Garnet Chan, S. Sharma, J. Yang, R. Olivares  : DMRG
   Ulf Ekstrom                                   : XCFun DFT Library
   Mihaly Kallay                                 : mrcc  (arbitrary order and MRCC methods)
   Andreas Klamt, Michael Diedenhofen            : otool_cosmo (COSMO solvation model)
   Jiri Pittner, Ondrej Demel                    : Mk-CCSD
   Frank Weinhold                                : gennbo (NPA and NBO analysis)
   Christopher J. Cramer and Donald G. Truhlar   : smd solvation model
   Lars Goerigk                                  : TD-DFT with DH, B97 family of functionals
   V. Asgeirsson, H. Jonsson                     : NEB implementation
   FAccTs GmbH                                   : IRC, NEB, NEB-TS, Multilevel


 Your calculation uses the libint2 library for the computation of 2-el integrals
 For citations please refer to: http://libint.valeyev.net

 This ORCA versions uses:
   CBLAS   interface :  Fast vector & matrix operations
   LAPACKE interface :  Fast linear algebra routines
   SCALAPACK package :  Parallel linear algebra routines




***************************************
The coordinates will be read from file: /Users/lailaal-madhagi/Desktop/Testing_XAS_Analysis_code/PhenylAcetaldehyde//Results_dir_PhenylAcetaldehyde_geom_element_O_2019-11-16_19-17-35//GTE1_PhenylAcetaldehyde_geom_2019-11-16_19-17-41//opt.xyz
***************************************


----- Orbital basis set information -----
Your calculation utilizes the basis: 6-31G*
   H-He, Li-Ne : W. J. Hehre, R. Ditchfield and J.A. Pople, J. Chem. Phys. 56, 2257 (1972).
                 Note: He and Ne are unpublished basis sets taken from the Gaussian program.
                 Note: Li and B from J. D. Dill and J. A. Pople, J. Chem. Phys. 62, 2921 (1975).
   Na - Ar     : M. M. Francl, W. J. Pietro, W. J. Hehre, J. S. Binkley, M. S. Gordon, 
                 D. J. DeFrees and J. A. Pople, J. Chem. Phys. 77, 3654 (1982).
   K - Zn      : V. A. Rassolov, J. A. Pople, M. A. Ratner, and T. L. Windus, J. Chem. Phys. 109, 1223 (1998).

================================================================================
                                        WARNINGS
                       Please study these warnings very carefully!
================================================================================


INFO   : the flag for use of LIBINT has been found!

================================================================================
                                       INPUT FILE
================================================================================
NAME = /Users/lailaal-madhagi/Desktop/Testing_XAS_Analysis_code/PhenylAcetaldehyde//Results_dir_PhenylAcetaldehyde_geom_element_O_2019-11-16_19-17-35//GTE1_PhenylAcetaldehyde_geom_2019-11-16_19-17-41//freq.inp
|  1> ! B3LYP 6-31G* TIGHTSCF Grid3 FinalGrid5 Freq 
|  2> !NormalPrint 
|  3> %output 
|  4> Print[P_Basis] 2 
|  5> Print[P_MOS] 1 
|  6> end 
|  7> *xyzfile 0 1 /Users/lailaal-madhagi/Desktop/Testing_XAS_Analysis_code/PhenylAcetaldehyde//Results_dir_PhenylAcetaldehyde_geom_element_O_2019-11-16_19-17-35//GTE1_PhenylAcetaldehyde_geom_2019-11-16_19-17-41//opt.xyz                           ****END OF INPUT****
================================================================================

                       ****************************
                       * Single Point Calculation *
                       ****************************

---------------------------------
CARTESIAN COORDINATES (ANGSTROEM)
---------------------------------
  C     -1.714755    1.149232   -0.014903
  C     -0.426100    1.708233   -0.003253
  C     -1.906658   -0.230781   -0.008709
  C     -0.805001   -1.090746    0.009430
  C      0.480027   -0.551511    0.021155
  C      0.668643    0.834636    0.014885
  C     -0.314094    3.224850   -0.011231
  C      1.058863    3.879371    0.001034
  H     -0.856425    3.644358    0.849136
  H     -0.835902    3.633692   -0.889260
  O      1.198801    5.083006   -0.006415
  H      1.951133    3.219815    0.014817
  H     -2.579857    1.809916   -0.029070
  H     -2.915769   -0.635000   -0.018021
  H     -0.948988   -2.167982    0.014328
  H      1.684608    1.215521    0.024399
  H      1.346773   -1.207619    0.035308

----------------------------
CARTESIAN COORDINATES (A.U.)
----------------------------
  NO LB      ZA    FRAG     MASS         X           Y           Z
   0 C     6.0000    0    12.011   -3.240416    2.171734   -0.028163
   1 C     6.0000    0    12.011   -0.805213    3.228092   -0.006148
   2 C     6.0000    0    12.011   -3.603062   -0.436112   -0.016457
   3 C     6.0000    0    12.011   -1.521231   -2.061212    0.017820
   4 C     6.0000    0    12.011    0.907120   -1.042205    0.039978
   5 C     6.0000    0    12.011    1.263553    1.577233    0.028128
   6 C     6.0000    0    12.011   -0.593551    6.094082   -0.021224
   7 C     6.0000    0    12.011    2.000961    7.330950    0.001954
   8 H     1.0000    0     1.008   -1.618409    6.886838    1.604635
   9 H     1.0000    0     1.008   -1.579625    6.866682   -1.680457
  10 O     8.0000    0    15.999    2.265405    9.605489   -0.012123
  11 H     1.0000    0     1.008    3.687107    6.084568    0.028001
  12 H     1.0000    0     1.008   -4.875223    3.420245   -0.054935
  13 H     1.0000    0     1.008   -5.510005   -1.199976   -0.034055
  14 H     1.0000    0     1.008   -1.793328   -4.096892    0.027077
  15 H     1.0000    0     1.008    3.183449    2.297003    0.046107
  16 H     1.0000    0     1.008    2.545032   -2.282069    0.066722

--------------------------------
INTERNAL COORDINATES (ANGSTROEM)
--------------------------------
 C      0   0   0     0.000000000000     0.00000000     0.00000000
 C      1   0   0     1.404723149272     0.00000000     0.00000000
 C      1   2   0     1.393305651800   121.36326321     0.00000000
 C      3   1   2     1.397683312702   120.05995218     0.00000000
 C      4   3   1     1.393631864943   119.26301498     0.00000000
 C      5   4   3     1.398935032152   120.50904168     0.00000000
 C      2   1   3     1.520767948144   117.67008119   179.99941005
 C      7   2   1     1.521038798408   119.70777230   179.99068297
 H      7   2   1     1.100156089986   109.86872214    57.14865531
 H      7   2   1     1.100167953489   109.86820026   302.83823893
 O      8   7   2     1.211764788654   122.11467283   179.90381577
 H      8   7   2     1.109662378464   118.04344136     0.04945349
 H      1   2   3     1.088625520571   119.18356446   180.00071087
 H      3   1   2     1.087099206090   119.74225710   179.99909796
 H      4   3   1     1.086826796353   120.36346538   180.00029972
 H      6   5   4     1.085057397310   118.29574600   180.00205860
 H      5   4   3     1.087163554425   120.11400339   179.99958429

---------------------------
INTERNAL COORDINATES (A.U.)
---------------------------
 C      0   0   0     0.000000000000     0.00000000     0.00000000
 C      1   0   0     2.654542046104     0.00000000     0.00000000
 C      1   2   0     2.632966102746   121.36326321     0.00000000
 C      3   1   2     2.641238682959   120.05995218     0.00000000
 C      4   3   1     2.633582556249   119.26301498     0.00000000
 C      5   4   3     2.643604089915   120.50904168     0.00000000
 C      2   1   3     2.873834935238   117.67008119   179.99941005
 C      7   2   1     2.874346768060   119.70777230   179.99068297
 H      7   2   1     2.078993714640   109.86872214    57.14865531
 H      7   2   1     2.079016133411   109.86820026   302.83823893
 O      8   7   2     2.289903589285   122.11467283   179.90381577
 H      8   7   2     2.096957996412   118.04344136     0.04945349
 H      1   2   3     2.057204096277   119.18356446   180.00071087
 H      3   1   2     2.054319779912   119.74225710   179.99909796
 H      4   3   1     2.053805000114   120.36346538   180.00029972
 H      6   5   4     2.050461320502   118.29574600   180.00205860
 H      5   4   3     2.054441380645   120.11400339   179.99958429

---------------------
BASIS SET INFORMATION
---------------------
There are 3 groups of distinct atoms

 Group   1 Type C   : 10s4p1d contracted to 3s2p1d pattern {631/31/1}
 Group   2 Type H   : 4s contracted to 2s pattern {31}
 Group   3 Type O   : 10s4p1d contracted to 3s2p1d pattern {631/31/1}

Atom   0C    basis set group =>   1
Atom   1C    basis set group =>   1
Atom   2C    basis set group =>   1
Atom   3C    basis set group =>   1
Atom   4C    basis set group =>   1
Atom   5C    basis set group =>   1
Atom   6C    basis set group =>   1
Atom   7C    basis set group =>   1
Atom   8H    basis set group =>   2
Atom   9H    basis set group =>   2
Atom  10O    basis set group =>   3
Atom  11H    basis set group =>   2
Atom  12H    basis set group =>   2
Atom  13H    basis set group =>   2
Atom  14H    basis set group =>   2
Atom  15H    basis set group =>   2
Atom  16H    basis set group =>   2

-------------------------
BASIS SET IN INPUT FORMAT
-------------------------

 # Basis set for element : H 
 NewGTO H 
 S 3 
   1      18.7311370000      0.0334945995
   2       2.8253937000      0.2347269467
   3       0.6401217000      0.8137573184
 S 1 
   1       0.1612778000      1.0000000000
  end;

 # Basis set for element : C 
 NewGTO C 
 S 6 
   1    3047.5249000000      0.0018347002
   2     457.3695100000      0.0140373012
   3     103.9486900000      0.0688426061
   4      29.2101550000      0.2321844206
   5       9.2866630000      0.4679413416
   6       3.1639270000      0.3623120322
 S 3 
   1       7.8682724000     -0.1193324086
   2       1.8812885000     -0.1608542116
   3       0.5442493000      1.1434564826
 P 3 
   1       7.8682724000      0.0689990956
   2       1.8812885000      0.3164239798
   3       0.5442493000      0.7443082524
 S 1 
   1       0.1687144000      1.0000000000
 P 1 
   1       0.1687144000      1.0000000000
 D 1 
   1       0.8000000000      1.0000000000
  end;

 # Basis set for element : O 
 NewGTO O 
 S 6 
   1    5484.6717000000      0.0018310998
   2     825.2349500000      0.0139500985
   3     188.0469600000      0.0684450927
   4      52.9645000000      0.2327142753
   5      16.8975700000      0.4701929501
   6       5.7996353000      0.3585208619
 S 3 
   1      15.5396160000     -0.1107775038
   2       3.5999336000     -0.1480263051
   3       1.0137618000      1.1307670390
 P 3 
   1      15.5396160000      0.0708742995
   2       3.5999336000      0.3397527978
   3       1.0137618000      0.7271585953
 S 1 
   1       0.2700058000      1.0000000000
 P 1 
   1       0.2700058000      1.0000000000
 D 1 
   1       0.8000000000      1.0000000000
  end;

------------------------------------------------------------------------------
                           ORCA GTO INTEGRAL CALCULATION
------------------------------------------------------------------------------

                         BASIS SET STATISTICS AND STARTUP INFO

 # of primitive gaussian shells          ...  167
 # of primitive gaussian functions       ...  275
 # of contracted shells                  ...   70
 # of contracted basis functions         ...  142
 Highest angular momentum                ...    2
 Maximum contraction depth               ...    6
 Integral package used                   ... LIBINT
 Integral threshhold            Thresh   ...  2.500e-11
 Primitive cut-off              TCut     ...  2.500e-12


------------------------------ INTEGRAL EVALUATION ----------------------------


 * One electron integrals 
 Pre-screening matrix                    ... done
 Shell pair data                         ... done (   0.001 sec)

-------------------------------------------------------------------------------
                                 ORCA SCF
-------------------------------------------------------------------------------

------------
SCF SETTINGS
------------
Hamiltonian:
 Density Functional     Method          .... DFT(GTOs)
 Exchange Functional    Exchange        .... B88
   X-Alpha parameter    XAlpha          ....  0.666667
   Becke's b parameter  XBeta           ....  0.004200
 Correlation Functional Correlation     .... LYP
 LDA part of GGA corr.  LDAOpt          .... VWN-5
 Gradients option       PostSCFGGA      .... off
 Hybrid DFT is turned on
   Fraction HF Exchange ScalHFX         ....  0.200000
   Scaling of DF-GGA-X  ScalDFX         ....  0.720000
   Scaling of DF-GGA-C  ScalDFC         ....  0.810000
   Scaling of DF-LDA-C  ScalLDAC        ....  1.000000
   Perturbative correction              ....  0.000000
   Density functional embedding theory  .... OFF
   NL short-range parameter             ....  4.800000


General Settings:
 Integral files         IntName         .... /Users/lailaal-madhagi/Desktop/Testing_XAS_Analysis_code/PhenylAcetaldehyde//Results_dir_PhenylAcetaldehyde_geom_element_O_2019-11-16_19-17-35//GTE1_PhenylAcetaldehyde_geom_2019-11-16_19-17-41//freq
 Hartree-Fock type      HFTyp           .... RHF
 Total Charge           Charge          ....    0
 Multiplicity           Mult            ....    1
 Number of Electrons    NEL             ....   64
 Basis Dimension        Dim             ....  142
 Nuclear Repulsion      ENuc            ....    389.0621279020 Eh

Convergence Acceleration:
 DIIS                   CNVDIIS         .... on
   Start iteration      DIISMaxIt       ....    12
   Startup error        DIISStart       ....  0.200000
   # of expansion vecs  DIISMaxEq       ....     5
   Bias factor          DIISBfac        ....   1.050
   Max. coefficient     DIISMaxC        ....  10.000
 Newton-Raphson         CNVNR           .... off
 SOSCF                  CNVSOSCF        .... on
   Start iteration      SOSCFMaxIt      ....   150
   Startup grad/error   SOSCFStart      ....  0.003300
 Level Shifting         CNVShift        .... on
   Level shift para.    LevelShift      ....    0.2500
   Turn off err/grad.   ShiftErr        ....    0.0010
 Zerner damping         CNVZerner       .... off
 Static damping         CNVDamp         .... on
   Fraction old density DampFac         ....    0.7000
   Max. Damping (<1)    DampMax         ....    0.9800
   Min. Damping (>=0)   DampMin         ....    0.0000
   Turn off err/grad.   DampErr         ....    0.1000
 Fernandez-Rico         CNVRico         .... off

SCF Procedure:
 Maximum # iterations   MaxIter         ....   125
 SCF integral mode      SCFMode         .... Direct
   Integral package                     .... LIBINT
 Reset frequency        DirectResetFreq ....    20
 Integral Threshold     Thresh          ....  2.500e-11 Eh
 Primitive CutOff       TCut            ....  2.500e-12 Eh

Convergence Tolerance:
 Convergence Check Mode ConvCheckMode   .... Total+1el-Energy
 Convergence forced     ConvForced      .... 0
 Energy Change          TolE            ....  1.000e-08 Eh
 1-El. energy change                    ....  1.000e-05 Eh
 Orbital Gradient       TolG            ....  1.000e-05
 Orbital Rotation angle TolX            ....  1.000e-05
 DIIS Error             TolErr          ....  5.000e-07


Diagonalization of the overlap matrix:
Smallest eigenvalue                        ... 4.735e-04
Time for diagonalization                   ...    0.003 sec
Threshold for overlap eigenvalues          ... 1.000e-08
Number of eigenvalues below threshold      ... 0
Time for construction of square roots      ...    0.002 sec
Total time needed                          ...    0.005 sec

-------------------
DFT GRID GENERATION
-------------------

General Integration Accuracy     IntAcc      ...  4.340
Radial Grid Type                 RadialGrid  ... Gauss-Chebyshev
Angular Grid (max. acc.)         AngularGrid ... Lebedev-194
Angular grid pruning method      GridPruning ... 3 (G Style)
Weight generation scheme         WeightScheme... Becke
Basis function cutoff            BFCut       ...    1.0000e-11
Integration weight cutoff        WCut        ...    1.0000e-14
Grids for H and He will be reduced by one unit

# of grid points (after initial pruning)     ...  41790 (   0.0 sec)
# of grid points (after weights+screening)   ...  38400 (   0.1 sec)
nearest neighbour list constructed           ...    0.0 sec
Grid point re-assignment to atoms done       ...    0.0 sec
Grid point division into batches done        ...    0.1 sec
Reduced shell lists constructed in    0.2 sec

Total number of grid points                  ...    38400
Total number of batches                      ...      608
Average number of points per batch           ...       63
Average number of grid points per atom       ...     2259
Average number of shells per batch           ...    45.79 (65.41%)
Average number of basis functions per batch  ...    94.06 (66.24%)
Average number of large shells per batch     ...    35.07 (76.58%)
Average number of large basis fcns per batch ...    72.62 (77.21%)
Maximum spatial batch extension              ...  18.96, 19.27, 22.17 au
Average spatial batch extension              ...   3.14,  2.95,  3.51 au

Time for grid setup =    0.334 sec

------------------------------
INITIAL GUESS: MODEL POTENTIAL
------------------------------
Loading Hartree-Fock densities                     ... done
Calculating cut-offs                               ... done
Setting up the integral package                    ... done
Initializing the effective Hamiltonian             ... done
Starting the Coulomb interaction                   ... done (   0.1 sec)
Reading the grid                                   ... done
Mapping shells                                     ... done
Starting the XC term evaluation                    ... done (   0.3 sec)
  promolecular density results
     # of electrons  =     63.994226736
     EX              =    -51.658725723
     EC              =     -2.139491461
     EX+EC           =    -53.798217184
Transforming the Hamiltonian                       ... done (   0.0 sec)
Diagonalizing the Hamiltonian                      ... done (   0.0 sec)
Back transforming the eigenvectors                 ... done (   0.0 sec)
Now organizing SCF variables                       ... done
                      ------------------
                      INITIAL GUESS DONE (   0.8 sec)
                      ------------------
--------------
SCF ITERATIONS
--------------
               ***  Starting incremental Fock matrix formation  ***

                         ----------------------------
                         !        ITERATION     0   !
                         ----------------------------
   Total Energy        :    -384.393170689322 Eh
   Energy Change       :    -384.393170689322 Eh
   MAX-DP              :       0.104422148915
   RMS-DP              :       0.002899519936
   Actual Damping      :       0.7000
   Actual Level Shift  :       0.2500 Eh
   Int. Num. El.       :    63.99904191 (UP=   31.99952095 DN=   31.99952095)
   Exchange            :   -42.36308694
   Correlation         :    -2.55631159


                         ----------------------------
                         !        ITERATION     1   !
                         ----------------------------
   Total Energy        :    -384.502711926683 Eh
   Energy Change       :      -0.109541237361 Eh
   MAX-DP              :       0.059313579616
   RMS-DP              :       0.001934179617
   Actual Damping      :       0.7000
   Actual Level Shift  :       0.2500 Eh
   Int. Num. El.       :    63.99883407 (UP=   31.99941703 DN=   31.99941703)
   Exchange            :   -42.06274401
   Correlation         :    -2.54468869

                               ***Turning on DIIS***

                         ----------------------------
                         !        ITERATION     2   !
                         ----------------------------
   Total Energy        :    -384.545163258353 Eh
   Energy Change       :      -0.042451331670 Eh
   MAX-DP              :       0.061833077886
   RMS-DP              :       0.002984650208
   Actual Damping      :       0.0000
   Actual Level Shift  :       0.2500 Eh
   Int. Num. El.       :    63.99868977 (UP=   31.99934488 DN=   31.99934488)
   Exchange            :   -41.86894540
   Correlation         :    -2.53657095
   DIIS-Error          :       0.039622976305


                         ----------------------------
                         !        ITERATION     3   !
                         ----------------------------
   Total Energy        :    -384.613787911033 Eh
   Energy Change       :      -0.068624652681 Eh
   MAX-DP              :       0.050186965423
   RMS-DP              :       0.001407132816
   Actual Damping      :       0.0000
   Actual Level Shift  :       0.2500 Eh
   Int. Num. El.       :    63.99847662 (UP=   31.99923831 DN=   31.99923831)
   Exchange            :   -41.58833719
   Correlation         :    -2.52369961
   DIIS-Error          :       0.048935474289
   DIIS coefficients:
      0.55914   0.44086


                         ----------------------------
                         !        ITERATION     4   !
                         ----------------------------
   Total Energy        :    -384.627525295334 Eh
   Energy Change       :      -0.013737384301 Eh
   MAX-DP              :       0.011891192052
   RMS-DP              :       0.000460674480
   Actual Damping      :       0.0000
   Actual Level Shift  :       0.2500 Eh
   Int. Num. El.       :    63.99857536 (UP=   31.99928768 DN=   31.99928768)
   Exchange            :   -41.70681875
   Correlation         :    -2.52908228
   DIIS-Error          :       0.023332193399
   DIIS coefficients:
      0.27772   0.12196   0.60032


                         ----------------------------
                         !        ITERATION     5   !
                         ----------------------------
   Total Energy        :    -384.628861145784 Eh
   Energy Change       :      -0.001335850450 Eh
   MAX-DP              :       0.003326784865
   RMS-DP              :       0.000128833945
   Actual Damping      :       0.0000
   Actual Level Shift  :       0.2500 Eh
   Int. Num. El.       :    63.99859511 (UP=   31.99929755 DN=   31.99929755)
   Exchange            :   -41.72197617
   Correlation         :    -2.53020903
   DIIS-Error          :       0.005106502903
   DIIS coefficients:
      0.06218   0.00588   0.15120   0.78074

                      *** Initiating the SOSCF procedure ***
                           *** Shutting down DIIS ***
                      *** Re-Reading the Fockian *** 
                      *** Removing any level shift *** 

                         ----------------------------
                         !        ITERATION     6   !
                         ----------------------------
   Total Energy        :    -384.628917919543 Eh
   Energy Change       :      -0.000056773759 Eh
   MAX-DP              :       0.001162345997
   RMS-DP              :       0.000052599480
   Orbital gradient    :       0.000178711952
   Orbital Rotation    :       0.000178711952
   Actual Damping      :       0.0000
   Int. Num. El.       :    63.99859985 (UP=   31.99929992 DN=   31.99929992)
   Exchange            :   -41.73020126
   Correlation         :    -2.53050469

               *** Restarting incremental Fock matrix formation ***

                         ----------------------------
                         !        ITERATION     7   !
                         ----------------------------
   Total Energy        :    -384.628919753737 Eh
   Energy Change       :      -0.000001834194 Eh
   MAX-DP              :       0.000629244351
   RMS-DP              :       0.000021060571
   Orbital gradient    :       0.000156220861
   Orbital Rotation    :       0.000648342739
   Actual Damping      :       0.0000
   Int. Num. El.       :    63.99859999 (UP=   31.99929999 DN=   31.99929999)
   Exchange            :   -41.73037700
   Correlation         :    -2.53051533


                         ----------------------------
                         !        ITERATION     8   !
                         ----------------------------
   Total Energy        :    -384.628918981116 Eh
   Energy Change       :       0.000000772621 Eh
   MAX-DP              :       0.000404845930
   RMS-DP              :       0.000012578232
   Orbital gradient    :       0.000309199449
   Orbital Rotation    :       0.000464612556
   Actual Damping      :       0.0000
   Int. Num. El.       :    63.99859993 (UP=   31.99929997 DN=   31.99929997)
   Exchange            :   -41.73024377
   Correlation         :    -2.53050712


                         ----------------------------
                         !        ITERATION     9   !
                         ----------------------------
   Total Energy        :    -384.628920230907 Eh
   Energy Change       :      -0.000001249791 Eh
   MAX-DP              :       0.000168342589
   RMS-DP              :       0.000005732842
   Orbital gradient    :       0.000040889753
   Orbital Rotation    :       0.000070811229
   Actual Damping      :       0.0000
   Int. Num. El.       :    63.99859994 (UP=   31.99929997 DN=   31.99929997)
   Exchange            :   -41.73035174
   Correlation         :    -2.53051158


                         ----------------------------
                         !        ITERATION    10   !
                         ----------------------------
   Total Energy        :    -384.628920196860 Eh
   Energy Change       :       0.000000034047 Eh
   MAX-DP              :       0.000120206535
   RMS-DP              :       0.000003559155
   Orbital gradient    :       0.000062487417
   Orbital Rotation    :       0.000054649990
   Actual Damping      :       0.0000
   Int. Num. El.       :    63.99859991 (UP=   31.99929995 DN=   31.99929995)
   Exchange            :   -41.73028665
   Correlation         :    -2.53051251


                         ----------------------------
                         !        ITERATION    11   !
                         ----------------------------
   Total Energy        :    -384.628920268002 Eh
   Energy Change       :      -0.000000071142 Eh
   MAX-DP              :       0.000054228492
   RMS-DP              :       0.000001292589
   Orbital gradient    :       0.000013807381
   Orbital Rotation    :       0.000031690741
   Actual Damping      :       0.0000
   Int. Num. El.       :    63.99859994 (UP=   31.99929997 DN=   31.99929997)
   Exchange            :   -41.73034082
   Correlation         :    -2.53051211


                         ----------------------------
                         !        ITERATION    12   !
                         ----------------------------
   Total Energy        :    -384.628920262345 Eh
   Energy Change       :       0.000000005657 Eh
   MAX-DP              :       0.000033841963
   RMS-DP              :       0.000000855428
   Orbital gradient    :       0.000020761910
   Orbital Rotation    :       0.000019045674
   Actual Damping      :       0.0000
   Int. Num. El.       :    63.99859991 (UP=   31.99929996 DN=   31.99929996)
   Exchange            :   -41.73030333
   Correlation         :    -2.53051117

                  ***Gradient check signals convergence***
              ***Rediagonalizing the Fockian in SOSCF/NRSCF***

               *****************************************************
               *                     SUCCESS                       *
               *           SCF CONVERGED AFTER  13 CYCLES          *
               *****************************************************

Setting up the final grid:

General Integration Accuracy     IntAcc      ...  5.010
Radial Grid Type                 RadialGrid  ... Gauss-Chebyshev
Angular Grid (max. acc.)         AngularGrid ... Lebedev-434
Angular grid pruning method      GridPruning ... 3 (G Style)
Weight generation scheme         WeightScheme... Becke
Basis function cutoff            BFCut       ...    1.0000e-11
Integration weight cutoff        WCut        ...    1.0000e-14
Grids for H and He will be reduced by one unit

# of grid points (after initial pruning)     ... 149962 (   0.1 sec)
# of grid points (after weights+screening)   ... 136416 (   0.3 sec)
nearest neighbour list constructed           ...    0.0 sec
Grid point re-assignment to atoms done       ...    0.0 sec
Grid point division into batches done        ...    0.7 sec
Reduced shell lists constructed in    1.3 sec

Total number of grid points                  ...   136416
Total number of batches                      ...     2140
Average number of points per batch           ...       63
Average number of grid points per atom       ...     8024
Average number of shells per batch           ...    42.46 (60.66%)
Average number of basis functions per batch  ...    86.96 (61.24%)
Average number of large shells per batch     ...    31.87 (75.06%)
Average number of large basis fcns per batch ...    65.75 (75.61%)
Maximum spatial batch extension              ...  18.73, 17.34, 22.31 au
Average spatial batch extension              ...   2.07,  1.98,  2.18 au

Final grid set up in    1.7 sec
Final integration                            ... done (   1.0 sec)
Change in XC energy                          ...    -0.000158367
Integrated number of electrons               ...    63.999986387
Previous integrated no of electrons          ...    63.998599929

----------------
TOTAL SCF ENERGY
----------------

Total Energy       :         -384.62907864 Eh          -10466.28933 eV

Components:
Nuclear Repulsion  :          389.06212790 Eh           10586.91873 eV
Electronic Energy  :         -773.69120654 Eh          -21053.20805 eV
One Electron Energy:        -1290.76984673 Eh          -35123.63318 eV
Two Electron Energy:          517.07864019 Eh           14070.42513 eV

Virial components:
Potential Energy   :         -766.96706739 Eh          -20870.23493 eV
Kinetic Energy     :          382.33798875 Eh           10403.94560 eV
Virial Ratio       :            2.00599232


DFT components:
N(Alpha)           :       31.999993193426 electrons
N(Beta)            :       31.999993193426 electrons
N(Total)           :       63.999986386853 electrons
E(X)               :      -41.730510789711 Eh       
E(C)               :       -2.530489364318 Eh       
E(XC)              :      -44.261000154029 Eh       
DFET-embed. en.    :        0.000000000000 Eh       

---------------
SCF CONVERGENCE
---------------

  Last Energy change         ...   -8.2760e-09  Tolerance :   1.0000e-08
  Last MAX-Density change    ...    2.6503e-06  Tolerance :   1.0000e-07
  Last RMS-Density change    ...    9.5765e-08  Tolerance :   5.0000e-09
  Last Orbital Gradient      ...    5.3085e-07  Tolerance :   1.0000e-05
  Last Orbital Rotation      ...    1.4180e-06  Tolerance :   1.0000e-05

             **** THE GBW FILE WAS UPDATED (/Users/lailaal-madhagi/Desktop/Testing_XAS_Analysis_code/PhenylAcetaldehyde//Results_dir_PhenylAcetaldehyde_geom_element_O_2019-11-16_19-17-35//GTE1_PhenylAcetaldehyde_geom_2019-11-16_19-17-41//freq.gbw) ****
             **** DENSITY FILE WAS UPDATED (/Users/lailaal-madhagi/Desktop/Testing_XAS_Analysis_code/PhenylAcetaldehyde//Results_dir_PhenylAcetaldehyde_geom_element_O_2019-11-16_19-17-35//GTE1_PhenylAcetaldehyde_geom_2019-11-16_19-17-41//freq.scfp.tmp) ****
             **** ENERGY FILE WAS UPDATED (/Users/lailaal-madhagi/Desktop/Testing_XAS_Analysis_code/PhenylAcetaldehyde//Results_dir_PhenylAcetaldehyde_geom_element_O_2019-11-16_19-17-35//GTE1_PhenylAcetaldehyde_geom_2019-11-16_19-17-41//freq.en.tmp) ****
----------------
ORBITAL ENERGIES
----------------

  NO   OCC          E(Eh)            E(eV) 
   0   2.0000     -19.144116      -520.9379 
   1   2.0000     -10.273899      -279.5670 
   2   2.0000     -10.200416      -277.5674 
   3   2.0000     -10.196699      -277.4663 
   4   2.0000     -10.186642      -277.1926 
   5   2.0000     -10.186295      -277.1832 
   6   2.0000     -10.186125      -277.1785 
   7   2.0000     -10.184689      -277.1395 
   8   2.0000     -10.184306      -277.1291 
   9   2.0000      -1.044250       -28.4155 
  10   2.0000      -0.858031       -23.3482 
  11   2.0000      -0.785776       -21.3821 
  12   2.0000      -0.745897       -20.2969 
  13   2.0000      -0.710800       -19.3419 
  14   2.0000      -0.617712       -16.8088 
  15   2.0000      -0.596823       -16.2404 
  16   2.0000      -0.570172       -15.5152 
  17   2.0000      -0.520856       -14.1732 
  18   2.0000      -0.468195       -12.7402 
  19   2.0000      -0.459657       -12.5079 
  20   2.0000      -0.454211       -12.3597 
  21   2.0000      -0.446223       -12.1423 
  22   2.0000      -0.422178       -11.4880 
  23   2.0000      -0.415401       -11.3036 
  24   2.0000      -0.400762       -10.9053 
  25   2.0000      -0.372595       -10.1388 
  26   2.0000      -0.349999        -9.5239 
  27   2.0000      -0.349863        -9.5203 
  28   2.0000      -0.343757        -9.3541 
  29   2.0000      -0.252244        -6.8639 
  30   2.0000      -0.251164        -6.8345 
  31   2.0000      -0.244880        -6.6635 
  32   0.0000      -0.029157        -0.7934 
  33   0.0000      -0.003940        -0.1072 
  34   0.0000       0.001545         0.0421 
  35   0.0000       0.089117         2.4250 
  36   0.0000       0.103035         2.8037 
  37   0.0000       0.126680         3.4471 
  38   0.0000       0.138690         3.7740 
  39   0.0000       0.150688         4.1004 
  40   0.0000       0.159111         4.3296 
  41   0.0000       0.181445         4.9374 
  42   0.0000       0.201971         5.4959 
  43   0.0000       0.204968         5.5774 
  44   0.0000       0.244505         6.6533 
  45   0.0000       0.248701         6.7675 
  46   0.0000       0.274707         7.4752 
  47   0.0000       0.305484         8.3126 
  48   0.0000       0.325148         8.8477 
  49   0.0000       0.355380         9.6704 
  50   0.0000       0.395376        10.7587 
  51   0.0000       0.464109        12.6290 
  52   0.0000       0.507662        13.8142 
  53   0.0000       0.526855        14.3365 
  54   0.0000       0.534991        14.5578 
  55   0.0000       0.549350        14.9486 
  56   0.0000       0.559258        15.2182 
  57   0.0000       0.578891        15.7524 
  58   0.0000       0.592795        16.1308 
  59   0.0000       0.598184        16.2774 
  60   0.0000       0.604821        16.4580 
  61   0.0000       0.611342        16.6355 
  62   0.0000       0.618613        16.8333 
  63   0.0000       0.628669        17.1070 
  64   0.0000       0.663854        18.0644 
  65   0.0000       0.673224        18.3194 
  66   0.0000       0.677526        18.4364 
  67   0.0000       0.692203        18.8358 
  68   0.0000       0.720798        19.6139 
  69   0.0000       0.740076        20.1385 
  70   0.0000       0.799009        21.7421 
  71   0.0000       0.820805        22.3352 
  72   0.0000       0.834062        22.6960 
  73   0.0000       0.841333        22.8938 
  74   0.0000       0.844696        22.9853 
  75   0.0000       0.848663        23.0933 
  76   0.0000       0.864260        23.5177 
  77   0.0000       0.891953        24.2713 
  78   0.0000       0.913797        24.8657 
  79   0.0000       0.928060        25.2538 
  80   0.0000       0.941666        25.6240 
  81   0.0000       0.960300        26.1311 
  82   0.0000       0.999192        27.1894 
  83   0.0000       1.000153        27.2156 
  84   0.0000       1.005893        27.3717 
  85   0.0000       1.042543        28.3690 
  86   0.0000       1.082512        29.4566 
  87   0.0000       1.122191        30.5364 
  88   0.0000       1.138233        30.9729 
  89   0.0000       1.159838        31.5608 
  90   0.0000       1.192449        32.4482 
  91   0.0000       1.222796        33.2740 
  92   0.0000       1.252565        34.0840 
  93   0.0000       1.295978        35.2654 
  94   0.0000       1.406573        38.2748 
  95   0.0000       1.430369        38.9223 
  96   0.0000       1.448353        39.4117 
  97   0.0000       1.480552        40.2879 
  98   0.0000       1.490138        40.5487 
  99   0.0000       1.512249        41.1504 
 100   0.0000       1.517934        41.3051 
 101   0.0000       1.551855        42.2281 
 102   0.0000       1.704590        46.3842 
 103   0.0000       1.726362        46.9767 
 104   0.0000       1.742663        47.4203 
 105   0.0000       1.795800        48.8662 
 106   0.0000       1.808080        49.2004 
 107   0.0000       1.820793        49.5463 
 108   0.0000       1.842201        50.1288 
 109   0.0000       1.857548        50.5465 
 110   0.0000       1.897998        51.6472 
 111   0.0000       1.910292        51.9817 
 112   0.0000       1.946758        52.9740 
 113   0.0000       1.979704        53.8705 
 114   0.0000       2.042162        55.5700 
 115   0.0000       2.050589        55.7994 
 116   0.0000       2.089515        56.8586 
 117   0.0000       2.130954        57.9862 
 118   0.0000       2.134303        58.0774 
 119   0.0000       2.149673        58.4956 
 120   0.0000       2.180382        59.3312 
 121   0.0000       2.189697        59.5847 
 122   0.0000       2.243565        61.0505 
 123   0.0000       2.290373        62.3242 
 124   0.0000       2.307716        62.7961 
 125   0.0000       2.318795        63.0976 
 126   0.0000       2.356024        64.1107 
 127   0.0000       2.412037        65.6349 
 128   0.0000       2.516309        68.4722 
 129   0.0000       2.583647        70.3046 
 130   0.0000       2.589882        70.4743 
 131   0.0000       2.611253        71.0558 
 132   0.0000       2.657247        72.3074 
 133   0.0000       2.695546        73.3495 
 134   0.0000       2.747035        74.7506 
 135   0.0000       2.751325        74.8674 
 136   0.0000       2.791613        75.9636 
 137   0.0000       2.831265        77.0426 
 138   0.0000       2.948321        80.2279 
 139   0.0000       2.978172        81.0402 
 140   0.0000       3.093674        84.1831 
 141   0.0000       3.410648        92.8084 
------------------
MOLECULAR ORBITALS
------------------
                      0         1         2         3         4         5   
                 -19.14412 -10.27390 -10.20042 -10.19670 -10.18664 -10.18629
                   2.00000   2.00000   2.00000   2.00000   2.00000   2.00000
                  --------  --------  --------  --------  --------  --------
  0C   1s         0.000053 -0.000062  0.012942  0.000539  0.003069  0.136923
  0C   2s         0.000335 -0.000327 -0.001311  0.000268  0.000383  0.002828
  0C   1pz        0.000000 -0.000000 -0.000010 -0.000001  0.000003 -0.000005
  0C   1px       -0.000057  0.000025 -0.001177  0.000018  0.000255  0.000242
  0C   1py       -0.000133  0.000059 -0.000554  0.000204 -0.000071  0.001305
  0C   3s        -0.004817  0.002859  0.008261 -0.000483  0.002955  0.009502
  0C   2pz       -0.000036  0.000017  0.000036  0.000001  0.000017  0.000059
  0C   2px       -0.002642  0.001982  0.003466 -0.001287  0.001135  0.002604
  0C   2py        0.000781  0.000882  0.000680 -0.002564 -0.000682 -0.004710
  0C   1dz2       0.000109 -0.000106  0.000663  0.000131  0.000101  0.000499
  0C   1dxz      -0.000002  0.000002 -0.000017 -0.000005 -0.000001  0.000004
  0C   1dyz       0.000000 -0.000000 -0.000007  0.000002  0.000001  0.000008
  0C   1dx2y2    -0.000051  0.000061 -0.000738 -0.000125  0.000053  0.001008
  0C   1dxy      -0.000057  0.000059 -0.000849  0.000117  0.000004 -0.000314
  1C   1s        -0.000012 -0.000067  0.994752  0.019645  0.013518 -0.000758
  1C   2s         0.000074 -0.000104  0.036570  0.001865  0.002271 -0.000104
  1C   1pz        0.000002 -0.000003  0.000001 -0.000002  0.000017  0.000002
  1C   1px        0.000290 -0.000322 -0.000006  0.000239  0.000937  0.000320
  1C   1py        0.000194 -0.000213 -0.000236  0.000714 -0.000928  0.000253
  1C   3s         0.003533 -0.003262 -0.031066 -0.009886 -0.009074 -0.005238
  1C   2pz       -0.000026  0.000034 -0.000022 -0.000020 -0.000046  0.000001
  1C   2px       -0.003353  0.002561 -0.001018 -0.004507 -0.001282  0.000770
  1C   2py       -0.001970 -0.000448  0.001671 -0.005398  0.005031  0.001304
  1C   1dz2      -0.000029 -0.000006 -0.000610 -0.000404 -0.000565  0.000008
  1C   1dxz       0.000001  0.000001  0.000017 -0.000003  0.000021  0.000001
  1C   1dyz       0.000002 -0.000003 -0.000006 -0.000008 -0.000016 -0.000003
  1C   1dx2y2     0.000129 -0.000037  0.000298 -0.000855  0.000255 -0.000024
  1C   1dxy       0.000111 -0.000202 -0.000157  0.000158 -0.001015 -0.000287
  2C   1s        -0.000018 -0.000005  0.000148  0.000282 -0.004796  0.967669
  2C   2s        -0.000112 -0.000015 -0.000130  0.000361  0.000400  0.035025
  2C   1pz       -0.000001  0.000001 -0.000000  0.000000  0.000003  0.000006
  2C   1px       -0.000038  0.000041 -0.000107  0.000028  0.000265  0.000613
  2C   1py        0.000105 -0.000080 -0.000138  0.000044 -0.000021  0.000259
  2C   3s         0.001509  0.000662 -0.001977 -0.002995 -0.002216 -0.029732
  2C   2pz        0.000010 -0.000006 -0.000013  0.000001 -0.000017 -0.000054
  2C   2px        0.001133 -0.000395 -0.001185 -0.000954 -0.001741 -0.005888
  2C   2py        0.000610  0.000198 -0.000197 -0.001922 -0.000552 -0.002429
  2C   1dz2      -0.000026 -0.000008 -0.000071  0.000095  0.000089 -0.000425
  2C   1dxz       0.000000  0.000000  0.000002 -0.000001 -0.000001  0.000008
  2C   1dyz      -0.000000 -0.000000 -0.000001  0.000001  0.000001 -0.000008
  2C   1dx2y2    -0.000027  0.000004  0.000023  0.000051  0.000039 -0.000186
  2C   1dxy       0.000029 -0.000029 -0.000062 -0.000013 -0.000055 -0.000196
  3C   1s         0.000002  0.000004 -0.000469  0.000045 -0.045392  0.121511
  3C   2s         0.000017  0.000030 -0.000406 -0.000024 -0.000695  0.002135
  3C   1pz        0.000001 -0.000001  0.000001 -0.000000  0.000006  0.000015
  3C   1px        0.000094 -0.000096 -0.000003  0.000009  0.000692  0.000864
  3C   1py       -0.000024  0.000019 -0.000121  0.000050  0.000370 -0.000794
  3C   3s        -0.000700 -0.000456  0.002772  0.001784  0.000314  0.010114
  3C   2pz       -0.000003  0.000007 -0.000006  0.000003 -0.000014 -0.000049
  3C   2px       -0.000240  0.000114  0.000402  0.000855 -0.000982 -0.001264
  3C   2py        0.000046 -0.000905  0.001696  0.001148  0.000404  0.005650
  3C   1dz2       0.000005  0.000002 -0.000064 -0.000002 -0.000222  0.000600
  3C   1dxz      -0.000000  0.000000  0.000001  0.000000  0.000007 -0.000023
  3C   1dyz       0.000000 -0.000000 -0.000001  0.000000  0.000005  0.000015
  3C   1dx2y2    -0.000004  0.000003  0.000007  0.000008  0.000390 -0.000432
  3C   1dxy       0.000022 -0.000018  0.000006  0.000015  0.000403  0.000964
  4C   1s         0.000038 -0.000083  0.000186  0.000252 -0.459669  0.121595
  4C   2s         0.000261 -0.000375 -0.000107  0.000318 -0.014883  0.004265
  4C   1pz       -0.000000  0.000000  0.000002 -0.000001 -0.000001  0.000003
  4C   1px       -0.000052  0.000050  0.000037 -0.000063  0.000381  0.000337
  4C   1py       -0.000042  0.000053 -0.000182  0.000025  0.000876  0.000222
  4C   3s        -0.001973  0.003983 -0.002104 -0.001930  0.002618 -0.007846
  4C   2pz        0.000009 -0.000024  0.000021  0.000025  0.000022  0.000035
  4C   2px       -0.000126 -0.000695  0.001602  0.001792  0.000415  0.001923
  4C   2py       -0.001558  0.002590 -0.000394 -0.000692 -0.002868 -0.002010
  4C   1dz2       0.000091 -0.000122 -0.000060  0.000094 -0.000289 -0.000115
  4C   1dxz      -0.000001  0.000001  0.000002 -0.000001 -0.000006 -0.000000
  4C   1dyz       0.000001 -0.000002  0.000000  0.000001 -0.000006 -0.000003
  4C   1dx2y2     0.000085 -0.000117  0.000059  0.000037 -0.000876 -0.000244
  4C   1dxy      -0.000023  0.000007  0.000031 -0.000033  0.000189 -0.000030
  5C   1s        -0.000023 -0.000069  0.015097  0.001024 -0.881249 -0.074615
  5C   2s        -0.000064 -0.000051 -0.001357  0.000136 -0.031403 -0.003473
  5C   1pz       -0.000001  0.000001  0.000017 -0.000002  0.000009  0.000002
  5C   1px       -0.000020 -0.000082  0.001043 -0.000028  0.000559  0.000269
  5C   1py        0.000246 -0.000361 -0.000844  0.000222 -0.000372  0.000234
  5C   3s         0.002537 -0.003406  0.009720  0.003115  0.023569  0.006279
  5C   2pz        0.000014  0.000000 -0.000062 -0.000020 -0.000040 -0.000021
  5C   2px        0.000518  0.001574 -0.004075 -0.001101 -0.003685 -0.002649
  5C   2py       -0.001535  0.003022  0.002348  0.001236 -0.000539 -0.001698
  5C   1dz2      -0.000035  0.000052  0.000647  0.000040  0.000264  0.000031
  5C   1dxz      -0.000002  0.000002 -0.000023 -0.000003 -0.000011  0.000001
  5C   1dyz      -0.000001  0.000002  0.000018 -0.000003  0.000006  0.000001
  5C   1dx2y2    -0.000207  0.000250 -0.000242 -0.000274 -0.000236  0.000145
  5C   1dxy       0.000057 -0.000047  0.001085 -0.000126  0.000418  0.000001
  6C   1s        -0.000049  0.001028  0.019665 -0.995221 -0.000714  0.000206
  6C   2s        -0.000014 -0.000657 -0.000204 -0.038839  0.000359 -0.000253
  6C   1pz        0.000000 -0.000008 -0.000007 -0.000002  0.000001  0.000000
  6C   1px        0.000053 -0.000820 -0.000133 -0.000145  0.000073  0.000037
  6C   1py        0.000144 -0.000284  0.000817  0.000072 -0.000043  0.000025
  6C   3s         0.002240  0.004960  0.005010  0.039262 -0.002082  0.000730
  6C   2pz        0.000001  0.000035  0.000036  0.000035 -0.000003 -0.000002
  6C   2px        0.001710  0.002533  0.001595  0.002184 -0.000055 -0.000655
  6C   2py        0.001874 -0.000961 -0.002785 -0.001539  0.000399 -0.000859
  6C   1dz2      -0.000043  0.000608  0.000603 -0.000065  0.000084 -0.000023
  6C   1dxz      -0.000004 -0.000015 -0.000000  0.000003 -0.000001 -0.000000
  6C   1dyz       0.000003 -0.000007  0.000010 -0.000003  0.000000 -0.000000
  6C   1dx2y2    -0.000144 -0.000620  0.000948  0.000001 -0.000006 -0.000062
  6C   1dxy       0.000349 -0.000787 -0.000150 -0.000199 -0.000069  0.000016
  7C   1s        -0.000214  0.995153  0.000074  0.000982 -0.000084 -0.000001
  7C   2s        -0.000146  0.035996 -0.000202  0.001147  0.000297 -0.000026
  7C   1pz       -0.000002 -0.000017  0.000001 -0.000003  0.000000  0.000000
  7C   1px       -0.000088  0.000058  0.000088 -0.000372  0.000014  0.000013
  7C   1py        0.000204  0.002174  0.000051 -0.000156 -0.000065 -0.000012
  7C   3s        -0.012091 -0.014704 -0.001761 -0.008796 -0.000165  0.000430
  7C   2pz        0.000083 -0.000035  0.000013  0.000035 -0.000013 -0.000006
  7C   2px        0.001589  0.000926  0.000860  0.004219 -0.000736 -0.000374
  7C   2py       -0.008542  0.007472 -0.000338  0.002588  0.000776  0.000202
  7C   1dz2      -0.000150 -0.001223  0.000026 -0.000420 -0.000002 -0.000014
  7C   1dxz      -0.000008  0.000004  0.000001  0.000011 -0.000001  0.000000
  7C   1dyz      -0.000005 -0.000021 -0.000001  0.000008 -0.000000 -0.000000
  7C   1dx2y2    -0.000738 -0.001499  0.000070  0.000606 -0.000052  0.000005
  7C   1dxy       0.000182  0.000476 -0.000172  0.000738  0.000038 -0.000001
  8H   1s        -0.000095 -0.000318 -0.000422  0.000171  0.000041 -0.000066
  8H   2s         0.000314  0.000932  0.001188 -0.005823  0.000056 -0.000068
  9H   1s        -0.000095 -0.000318 -0.000422  0.000171  0.000041 -0.000066
  9H   2s         0.000306  0.000932  0.001188 -0.005823  0.000056 -0.000068
 10O   1s        -0.995142 -0.000026 -0.000017  0.000009  0.000009  0.000001
 10O   2s        -0.029832  0.000756 -0.000255  0.000318  0.000141  0.000009
 10O   1pz       -0.000014 -0.000006  0.000000  0.000000 -0.000000  0.000000
 10O   1px        0.000299  0.000180  0.000047 -0.000047 -0.000022  0.000006
 10O   1py        0.002249  0.001098 -0.000008 -0.000118  0.000010  0.000004
 10O   3s         0.021591 -0.007451  0.001149 -0.000382 -0.000678 -0.000167
 10O   2pz        0.000035 -0.000038 -0.000000 -0.000008  0.000001 -0.000000
 10O   2px       -0.001226  0.000344 -0.000346 -0.000516  0.000222  0.000024
 10O   2py       -0.006498  0.005092 -0.000477  0.000166  0.000202  0.000032
 10O   1dz2      -0.000111  0.001139 -0.000049  0.000218  0.000021 -0.000011
 10O   1dxz      -0.000002 -0.000001 -0.000000 -0.000006  0.000000  0.000000
 10O   1dyz      -0.000001  0.000025 -0.000001  0.000005  0.000000 -0.000000
 10O   1dx2y2    -0.000267  0.001679 -0.000064 -0.000039  0.000022  0.000003
 10O   1dxy       0.000177 -0.000330  0.000041  0.000156 -0.000043 -0.000003
 11H   1s         0.000028 -0.000862 -0.000084  0.000467  0.000078  0.000020
 11H   2s        -0.000776  0.005303 -0.000287 -0.000204  0.001042  0.000193
 12H   1s        -0.000054 -0.000029 -0.000264  0.000161  0.000013 -0.000303
 12H   2s        -0.000665  0.000253  0.000111  0.000270  0.000050  0.001462
 13H   1s         0.000065 -0.000066 -0.000043  0.000005 -0.000048 -0.001358
 13H   2s         0.000328 -0.000113 -0.000095 -0.000516 -0.000690  0.002752
 14H   1s         0.000037 -0.000077  0.000038  0.000063  0.000183 -0.000310
 14H   2s         0.000043 -0.000247  0.000515  0.000252 -0.000262  0.001645
 15H   1s         0.000140 -0.000252 -0.000306  0.000007  0.001286  0.000159
 15H   2s        -0.000886 -0.001001  0.000393  0.000198 -0.003414  0.000514
 16H   1s         0.000014 -0.000001 -0.000072 -0.000076  0.000746 -0.000205
 16H   2s        -0.000208  0.000623 -0.000215 -0.000636 -0.002302  0.000165
                      6         7         8         9        10        11   
                 -10.18612 -10.18469 -10.18431  -1.04425  -0.85803  -0.78578
                   2.00000   2.00000   2.00000   2.00000   2.00000   2.00000
                  --------  --------  --------  --------  --------  --------
  0C   1s        -0.027994  0.983288 -0.061243 -0.000411 -0.093861  0.010202
  0C   2s        -0.001138  0.036428 -0.002596  0.002259  0.176628 -0.020411
  0C   1pz       -0.000000  0.000012  0.000000  0.000005  0.000749  0.000027
  0C   1px       -0.000065  0.000642  0.000037  0.000413  0.051509 -0.036125
  0C   1py       -0.000103 -0.000701 -0.000011 -0.000067 -0.024051 -0.073482
  0C   3s         0.004484 -0.034650  0.010292 -0.018584  0.117969 -0.019230
  0C   2pz        0.000041 -0.000107  0.000064 -0.000108  0.000125 -0.000013
  0C   2px        0.002498 -0.006606  0.003646 -0.009337  0.008788 -0.006279
  0C   2py       -0.001875  0.004898 -0.003421 -0.000187 -0.003105 -0.010025
  0C   1dz2      -0.000128 -0.000673  0.000145  0.000222 -0.009236  0.000846
  0C   1dxz       0.000001  0.000006 -0.000001 -0.000003  0.000188 -0.000057
  0C   1dyz      -0.000002 -0.000003  0.000001  0.000000 -0.000087 -0.000061
  0C   1dx2y2    -0.000133 -0.000338  0.000091  0.000033  0.000429 -0.005141
  0C   1dxy       0.000056  0.000525 -0.000113 -0.000200  0.000756 -0.003268
  1C   1s         0.007254 -0.012913  0.000558 -0.002949 -0.108501  0.088871
  1C   2s         0.001250 -0.002467  0.000643  0.006144  0.207661 -0.173990
  1C   1pz        0.000006  0.000010  0.000000  0.000004  0.000166  0.000370
  1C   1px        0.000382  0.001176 -0.000080  0.002539 -0.007034 -0.005863
  1C   1py       -0.000274  0.000588 -0.000222  0.004130 -0.040632 -0.071721
  1C   3s        -0.010064  0.013946 -0.006803  0.015595  0.116402 -0.108097
  1C   2pz       -0.000048  0.000002 -0.000026 -0.000229  0.000061  0.000152
  1C   2px       -0.001399 -0.003580  0.000787 -0.018852  0.000786  0.000119
  1C   2py        0.005205 -0.007138  0.005763  0.002015 -0.008915 -0.024622
  1C   1dz2      -0.000351  0.000626  0.000030 -0.000516 -0.009517  0.006552
  1C   1dxz       0.000012 -0.000018 -0.000001  0.000003  0.000191 -0.000082
  1C   1dyz      -0.000007 -0.000007  0.000001 -0.000001 -0.000106  0.000087
  1C   1dx2y2     0.000251 -0.000836  0.000025 -0.000398 -0.000294  0.004023
  1C   1dxy      -0.000404 -0.000728  0.000047  0.000515 -0.000253 -0.000619
  2C   1s        -0.151434 -0.131977  0.116475 -0.000206 -0.083501 -0.069781
  2C   2s        -0.005446 -0.006830  0.006520 -0.000151  0.158316  0.134004
  2C   1pz       -0.000005  0.000006  0.000017 -0.000004  0.000432  0.000700
  2C   1px       -0.000362 -0.000260  0.001125 -0.000089  0.049809  0.043369
  2C   1py        0.000139 -0.001416 -0.000645  0.000445  0.024798 -0.031450
  2C   3s        -0.001300  0.016762 -0.019124  0.003587  0.096529  0.096810
  2C   2pz       -0.000019  0.000034 -0.000088  0.000034  0.000029  0.000082
  2C   2px       -0.002198  0.005315 -0.007962  0.003880  0.003547  0.004700
  2C   2py       -0.001166  0.004625 -0.000888  0.001894  0.001661 -0.004362
  2C   1dz2       0.000131  0.000652 -0.000722 -0.000121 -0.008099 -0.005857
  2C   1dxz      -0.000004  0.000002  0.000022  0.000000  0.000160  0.000176
  2C   1dyz       0.000004  0.000011 -0.000021 -0.000001 -0.000084 -0.000080
  2C   1dx2y2    -0.000034  0.001199  0.000061 -0.000119 -0.000199  0.003213
  2C   1dxy       0.000201 -0.000244 -0.001142  0.000121  0.000280 -0.003221
  3C   1s         0.091066 -0.075157 -0.979565 -0.000092 -0.080742 -0.098678
  3C   2s         0.001764 -0.002480 -0.036464  0.000157  0.152395  0.190058
  3C   1pz       -0.000012  0.000000  0.000004  0.000004 -0.000247 -0.000167
  3C   1px       -0.001131 -0.000057 -0.000150  0.000369  0.007357  0.005669
  3C   1py       -0.000198 -0.000175 -0.001021  0.000008  0.054327  0.038061
  3C   3s         0.009406 -0.005055  0.036338 -0.000702  0.098444  0.131514
  3C   2pz        0.000007  0.000021 -0.000042 -0.000013 -0.000026 -0.000009
  3C   2px        0.003110  0.000055  0.001202 -0.000448  0.001509 -0.000976
  3C   2py        0.004823 -0.003287  0.009105  0.001137  0.007480 -0.000296
  3C   1dz2       0.000411 -0.000072  0.000750 -0.000013 -0.007908 -0.008238
  3C   1dxz      -0.000011  0.000002 -0.000023 -0.000000  0.000157  0.000171
  3C   1dyz      -0.000009 -0.000002  0.000006  0.000001 -0.000085 -0.000086
  3C   1dx2y2    -0.000678  0.000034 -0.000567 -0.000002 -0.000246  0.000358
  3C   1dxy      -0.000789 -0.000091  0.000140  0.000093  0.000049 -0.000072
  4C   1s         0.866343  0.016263  0.115858 -0.000021 -0.083564 -0.070356
  4C   2s         0.032593  0.000208  0.006451  0.001316  0.158095  0.135371
  4C   1pz       -0.000012  0.000000 -0.000013 -0.000003 -0.000706 -0.000471
  4C   1px       -0.000467 -0.000023 -0.001292 -0.000249 -0.041290 -0.050348
  4C   1py        0.001099 -0.000112 -0.000404  0.000046  0.036663 -0.019156
  4C   3s        -0.033076  0.004232 -0.018818 -0.009713  0.099333  0.094220
  4C   2pz        0.000106 -0.000042  0.000104  0.000065 -0.000074 -0.000048
  4C   2px        0.005811 -0.002541  0.007406  0.001644 -0.003334 -0.007127
  4C   2py       -0.006146  0.002058 -0.002843 -0.007147  0.005321 -0.005911
  4C   1dz2      -0.000743 -0.000150 -0.000684  0.000229 -0.008184 -0.005847
  4C   1dxz       0.000005  0.000003  0.000016 -0.000001  0.000162  0.000163
  4C   1dyz      -0.000006 -0.000000  0.000008  0.000004 -0.000091 -0.000022
  4C   1dx2y2    -0.000631  0.000062  0.000695  0.000273 -0.000398  0.004427
  4C   1dxy       0.000509  0.000089  0.000933 -0.000048 -0.000088  0.001135
  5C   1s        -0.455853 -0.000689 -0.010794 -0.001158 -0.093481  0.009278
  5C   2s        -0.018575  0.000005 -0.000771  0.001533  0.176314 -0.018335
  5C   1pz       -0.000002  0.000002 -0.000001 -0.000018 -0.000595  0.000655
  5C   1px        0.000511  0.000181 -0.000096 -0.000399 -0.056070  0.014866
  5C   1py        0.001299 -0.000044 -0.000006  0.002260 -0.010139 -0.078628
  5C   3s         0.026674 -0.005787  0.009147  0.018228  0.112911 -0.019459
  5C   2pz       -0.000049  0.000033 -0.000036 -0.000025 -0.000088  0.000166
  5C   2px       -0.006580  0.003403 -0.004294 -0.004555 -0.006930  0.004956
  5C   2py       -0.004634  0.001127 -0.002271 -0.005202  0.001592 -0.017821
  5C   1dz2       0.000816 -0.000035  0.000107 -0.000344 -0.009148  0.000758
  5C   1dxz      -0.000003 -0.000000 -0.000001 -0.000001  0.000193 -0.000081
  5C   1dyz       0.000015 -0.000000  0.000002 -0.000008 -0.000105  0.000055
  5C   1dx2y2     0.001132 -0.000048  0.000114 -0.000675  0.000263 -0.002783
  5C   1dxy      -0.000017  0.000045  0.000038 -0.000025 -0.000872  0.005500
  6C   1s        -0.000202  0.000207 -0.000015 -0.019174 -0.051129  0.131155
  6C   2s        -0.000001 -0.000162  0.000136  0.035456  0.095152 -0.251627
  6C   1pz        0.000001 -0.000000 -0.000000  0.000113  0.000192 -0.000284
  6C   1px        0.000024  0.000031  0.000016  0.019273 -0.001327 -0.009754
  6C   1py       -0.000033  0.000092  0.000063  0.017144 -0.033405  0.025818
  6C   3s        -0.000986  0.001539 -0.002568  0.022487  0.081163 -0.207595
  6C   2pz        0.000001  0.000007 -0.000008 -0.000017  0.000008  0.000054
  6C   2px        0.000240 -0.000074 -0.000229  0.009671 -0.005855  0.006867
  6C   2py        0.000284 -0.001234  0.000914  0.017074 -0.011860  0.003731
  6C   1dz2       0.000014 -0.000064  0.000030 -0.002332 -0.001822  0.000603
  6C   1dxz      -0.000001  0.000002 -0.000001  0.000037 -0.000005  0.000005
  6C   1dyz      -0.000001 -0.000001  0.000000  0.000034 -0.000038  0.000017
  6C   1dx2y2    -0.000049  0.000032  0.000007  0.001534 -0.003462  0.001640
  6C   1dxy      -0.000051 -0.000025 -0.000004  0.004338  0.000177  0.000173
  7C   1s        -0.000021 -0.000001 -0.000004 -0.117547 -0.011081  0.043084
  7C   2s         0.000039 -0.000117 -0.000018  0.224458  0.021688 -0.085498
  7C   1pz        0.000000  0.000000 -0.000000 -0.001196 -0.000031  0.000215
  7C   1px        0.000010  0.000029 -0.000021  0.017371 -0.019499  0.068191
  7C   1py       -0.000016 -0.000009  0.000005  0.183843 -0.029720  0.087856
  7C   3s        -0.000356  0.000218  0.000313  0.071012  0.017364 -0.068608
  7C   2pz       -0.000002 -0.000003 -0.000001  0.000313 -0.000058  0.000034
  7C   2px       -0.000230 -0.000369 -0.000230  0.010878 -0.006747  0.013989
  7C   2py       -0.000040 -0.000151 -0.000210 -0.026376 -0.003118  0.019852
  7C   1dz2       0.000000 -0.000022 -0.000005 -0.015308 -0.001039  0.003193
  7C   1dxz      -0.000000  0.000001  0.000000 -0.000005  0.000046 -0.000152
  7C   1dyz       0.000000 -0.000000  0.000000 -0.000324  0.000024 -0.000065
  7C   1dx2y2    -0.000005  0.000001  0.000014 -0.023716  0.002687 -0.008722
  7C   1dxy       0.000010 -0.000007  0.000009  0.004399  0.001220 -0.002735
  8H   1s        -0.000006 -0.000071  0.000038  0.007935  0.024760 -0.075238
  8H   2s         0.000024  0.000185 -0.000002  0.000400  0.000479 -0.010104
  9H   1s        -0.000006 -0.000071  0.000038  0.007942  0.024758 -0.075229
  9H   2s         0.000024  0.000185 -0.000002  0.000381  0.000484 -0.010103
 10O   1s        -0.000001 -0.000003 -0.000000 -0.194057  0.011658 -0.033838
 10O   2s        -0.000022 -0.000054  0.000004  0.426489 -0.026271  0.077411
 10O   1pz       -0.000000 -0.000000 -0.000000  0.000982 -0.000070  0.000205
 10O   1px       -0.000006  0.000005 -0.000013 -0.020576 -0.002555  0.013303
 10O   1py        0.000001  0.000005 -0.000001 -0.162378  0.004590 -0.004026
 10O   3s         0.000136  0.000183  0.000039  0.382683 -0.026166  0.077791
 10O   2pz        0.000001  0.000001  0.000001  0.000281 -0.000010  0.000034
 10O   2px        0.000050  0.000016  0.000082 -0.008934 -0.000190  0.004052
 10O   2py       -0.000050 -0.000068 -0.000000 -0.050767  0.000633  0.002510
 10O   1dz2       0.000004 -0.000013  0.000004 -0.003305 -0.000125  0.000788
 10O   1dxz      -0.000000  0.000000 -0.000000 -0.000086  0.000003 -0.000005
 10O   1dyz      -0.000000 -0.000000 -0.000000 -0.000092  0.000003 -0.000009
 10O   1dx2y2    -0.000005 -0.000003 -0.000003 -0.011170  0.000163  0.000086
 10O   1dxy      -0.000010 -0.000005 -0.000013  0.003177  0.000222 -0.001383
 11H   1s         0.000008 -0.000033 -0.000024  0.028175  0.008385 -0.027383
 11H   2s         0.000441  0.000232  0.000067 -0.011342  0.005047 -0.005963
 12H   1s         0.000177 -0.001273  0.000167  0.000189  0.036711 -0.012536
 12H   2s         0.000731  0.002379  0.000680 -0.001162  0.005279 -0.004557
 13H   1s         0.000104  0.000073 -0.000025  0.000239  0.030703  0.033980
 13H   2s        -0.001094  0.000833 -0.001066  0.001331  0.002778  0.006417
 14H   1s        -0.000178  0.000056  0.001312  0.000137  0.029387  0.048668
 14H   2s         0.001393 -0.000824 -0.002239  0.000426  0.003644  0.007914
 15H   1s         0.000491 -0.000079  0.000114  0.001459  0.036925 -0.011778
 15H   2s        -0.000682 -0.000858  0.000788  0.000152  0.004581 -0.004980
 16H   1s        -0.001110  0.000104 -0.000037  0.000002  0.030823  0.034395
 16H   2s         0.001923  0.000982 -0.001053 -0.001639  0.003517  0.006489
                     12        13        14        15        16        17   
                  -0.74590  -0.71080  -0.61771  -0.59682  -0.57017  -0.52086
                   2.00000   2.00000   2.00000   2.00000   2.00000   2.00000
                  --------  --------  --------  --------  --------  --------
  0C   1s         0.113206 -0.071227  0.038444  0.081248  0.034554 -0.011268
  0C   2s        -0.220568  0.138530 -0.076944 -0.165835 -0.069463  0.023904
  0C   1pz       -0.000080  0.000399  0.000157  0.001243 -0.000435 -0.002374
  0C   1px        0.020867  0.048556 -0.060419  0.125093 -0.076029 -0.132328
  0C   1py        0.053207  0.027308 -0.140900  0.036109 -0.074338  0.134286
  0C   3s        -0.166421  0.114097 -0.065510 -0.124282 -0.068560  0.044512
  0C   2pz        0.000150 -0.000025  0.000257  0.000779 -0.000043 -0.000835
  0C   2px        0.011094  0.002488 -0.010281  0.057009 -0.013736 -0.046565
  0C   2py       -0.003883  0.009134 -0.062247 -0.019161 -0.019232  0.048275
  0C   1dz2       0.008473 -0.004924  0.002039  0.003648  0.001387 -0.001572
  0C   1dxz      -0.000114  0.000173 -0.000107 -0.000063 -0.000111  0.000032
  0C   1dyz       0.000126 -0.000016 -0.000013  0.000122 -0.000000 -0.000000
  0C   1dx2y2     0.005137  0.006207 -0.005651  0.003630 -0.006096  0.000642
  0C   1dxy       0.000412 -0.000109 -0.000034  0.005165  0.001914  0.001119
  1C   1s         0.000536 -0.070207  0.033648 -0.086254  0.036222 -0.012261
  1C   2s        -0.001288  0.138233 -0.069012  0.176961 -0.076535  0.026939
  1C   1pz        0.001480  0.000543  0.002302  0.001201  0.000472 -0.000901
  1C   1px        0.117396 -0.016787  0.166313  0.101424  0.068639  0.007066
  1C   1py       -0.017592 -0.121243 -0.058016 -0.003232  0.053557  0.159249
  1C   3s         0.001716  0.117663 -0.046726  0.135647 -0.044445  0.031741
  1C   2pz        0.000183  0.000180  0.000253  0.000050  0.000261 -0.000162
  1C   2px        0.015803  0.004551  0.014863  0.024266  0.020554  0.013623
  1C   2py        0.000228 -0.020780 -0.012210  0.038642 -0.004215  0.052361
  1C   1dz2       0.000074 -0.003618  0.001018 -0.002037  0.000375 -0.000113
  1C   1dxz       0.000026  0.000191  0.000010  0.000050 -0.000035  0.000089
  1C   1dyz      -0.000124 -0.000016 -0.000016 -0.000091 -0.000106  0.000013
  1C   1dx2y2    -0.002531  0.008684  0.001090 -0.001811 -0.005652  0.006328
  1C   1dxy      -0.009402 -0.002611 -0.002971 -0.004929 -0.006370 -0.002046
  2C   1s         0.110796  0.034167 -0.086826  0.001731 -0.059855 -0.000143
  2C   2s        -0.216500 -0.067257  0.175974 -0.003092  0.122537  0.002030
  2C   1pz        0.000424 -0.001020 -0.000382  0.002040 -0.000695 -0.001373
  2C   1px        0.004576 -0.035345 -0.043158  0.082147 -0.073510 -0.160315
  2C   1py       -0.060876  0.099216 -0.019742 -0.176689 -0.026768 -0.082058
  2C   3s        -0.163278 -0.060040  0.126125 -0.011573  0.103552  0.014604
  2C   2pz        0.000200 -0.000171 -0.000261  0.000575 -0.000451 -0.000460
  2C   2px        0.012662 -0.004684 -0.035383  0.022005 -0.043604 -0.053607
  2C   2py       -0.008028  0.018809 -0.024838 -0.051587 -0.009670 -0.028097
  2C   1dz2       0.008284  0.002451 -0.004157  0.000175 -0.002636 -0.001040
  2C   1dxz      -0.000101 -0.000152  0.000101  0.000095  0.000074  0.000013
  2C   1dyz       0.000076  0.000068  0.000007 -0.000027  0.000023 -0.000048
  2C   1dx2y2     0.004012 -0.005388  0.002910  0.005599  0.003242 -0.001802
  2C   1dxy      -0.003143  0.006381  0.002837 -0.005364  0.002686 -0.002213
  3C   1s        -0.000004  0.104399  0.033650 -0.078756  0.036809 -0.018246
  3C   2s        -0.000018 -0.206424 -0.068183  0.160405 -0.075269  0.038695
  3C   1pz        0.001372  0.000009 -0.001942 -0.001050 -0.001248  0.000871
  3C   1px        0.109630  0.001632 -0.145966 -0.108544 -0.089922 -0.032205
  3C   1py       -0.014767  0.001689  0.038530 -0.035796  0.032288 -0.204231
  3C   3s         0.000059 -0.156980 -0.050521  0.118190 -0.054493  0.047827
  3C   2pz        0.000248 -0.000110 -0.000460 -0.000157 -0.000463  0.000320
  3C   2px        0.019756  0.001270 -0.028812 -0.033098 -0.026524 -0.010672
  3C   2py       -0.002914  0.020398  0.020108 -0.038204  0.025069 -0.072457
  3C   1dz2       0.000034  0.006994  0.001580 -0.003454  0.001360 -0.001774
  3C   1dxz      -0.000029 -0.000145  0.000008  0.000016  0.000030  0.000041
  3C   1dyz       0.000129  0.000075 -0.000072 -0.000106 -0.000014 -0.000020
  3C   1dx2y2     0.002643 -0.000221 -0.000432 -0.006060  0.002890  0.000295
  3C   1dxy       0.009657  0.000162 -0.007356 -0.002720 -0.003940 -0.000278
  4C   1s        -0.110592  0.031114  0.059573  0.087345  0.000824  0.001454
  4C   2s         0.216073 -0.061188 -0.121612 -0.177697 -0.001125 -0.001588
  4C   1pz       -0.000095  0.000180 -0.000128 -0.001169  0.000438  0.002341
  4C   1px        0.021540  0.061540  0.047491 -0.112193  0.088149  0.139164
  4C   1py        0.056995  0.088075  0.111510 -0.023710  0.096806 -0.116626
  4C   3s         0.162255 -0.057603 -0.081616 -0.142015 -0.002004  0.012739
  4C   2pz        0.000136 -0.000019 -0.000280 -0.000716  0.000100  0.000750
  4C   2px        0.014374  0.005583  0.002674 -0.056980  0.020936  0.044919
  4C   2py        0.004704  0.013933  0.051119  0.009086  0.023767 -0.037711
  4C   1dz2      -0.008341  0.002165  0.002658  0.004061 -0.000011 -0.001079
  4C   1dxz       0.000113 -0.000120 -0.000131 -0.000094 -0.000046 -0.000002
  4C   1dyz      -0.000126 -0.000059  0.000010  0.000117 -0.000035  0.000021
  4C   1dx2y2    -0.005073 -0.007989 -0.005830  0.001800 -0.004368 -0.000490
  4C   1dxy      -0.000544 -0.002821  0.001460  0.005391 -0.000727  0.003079
  5C   1s        -0.113830 -0.072940 -0.079258 -0.009053 -0.049254 -0.011085
  5C   2s         0.221782  0.142482  0.159082  0.016742  0.102323  0.023643
  5C   1pz        0.000427 -0.000689  0.000131 -0.002205  0.001155  0.001579
  5C   1px        0.007076 -0.040943  0.045370 -0.094432  0.074814  0.180054
  5C   1py       -0.056667  0.034309  0.064957  0.179978 -0.046293  0.085103
  5C   3s         0.168871  0.110960  0.128581  0.030543  0.081569  0.030864
  5C   2pz        0.000139  0.000076  0.000031 -0.000579  0.000640  0.000602
  5C   2px        0.011359  0.006343  0.028671 -0.025072  0.047327  0.066876
  5C   2py       -0.000462 -0.000658  0.050050  0.046159 -0.014156  0.029607
  5C   1dz2      -0.008606 -0.004882 -0.003998 -0.000388 -0.002097 -0.001453
  5C   1dxz       0.000111  0.000182  0.000121  0.000122  0.000013  0.000045
  5C   1dyz      -0.000080 -0.000052  0.000007 -0.000034  0.000002 -0.000017
  5C   1dx2y2    -0.003813  0.005584  0.004508  0.006574 -0.001048  0.001011
  5C   1dxy       0.002991 -0.002935  0.001901 -0.006006  0.002654 -0.000640
  6C   1s         0.001905  0.109125  0.025507  0.008967 -0.061085  0.009213
  6C   2s        -0.003100 -0.212603 -0.049075 -0.018322  0.121004 -0.016966
  6C   1pz        0.000231 -0.000002  0.001237  0.000264 -0.001704  0.000366
  6C   1px        0.020323 -0.035390  0.123865 -0.031600 -0.113086 -0.042747
  6C   1py        0.001261 -0.070397  0.037333 -0.106829  0.059635 -0.147136
  6C   3s        -0.007373 -0.205115 -0.061381 -0.034219  0.153826 -0.044085
  6C   2pz        0.000060  0.000031  0.000452  0.000122 -0.000526  0.000014
  6C   2px        0.006825 -0.007107  0.049053 -0.001108 -0.032693 -0.029286
  6C   2py        0.002828 -0.019051  0.017588 -0.022678  0.025830 -0.060683
  6C   1dz2      -0.000377 -0.003137 -0.003437 -0.002077  0.008319 -0.002355
  6C   1dxz       0.000019 -0.000012  0.000143 -0.000035 -0.000172  0.000008
  6C   1dyz      -0.000020 -0.000070 -0.000001 -0.000109 -0.000009 -0.000075
  6C   1dx2y2     0.000202 -0.006162  0.005973 -0.008093 -0.003501 -0.004212
  6C   1dxy      -0.001455  0.000304 -0.000196 -0.003073 -0.006393 -0.001802
  7C   1s        -0.006450  0.061572 -0.076231  0.051291  0.099545  0.018033
  7C   2s         0.012616 -0.125553  0.158174 -0.108201 -0.210269 -0.042956
  7C   1pz        0.000082  0.000333  0.001110 -0.000145 -0.002713  0.001584
  7C   1px        0.000168  0.084877  0.037803  0.017014 -0.168645  0.126285
  7C   1py       -0.012711  0.099232 -0.107390  0.052582  0.126077 -0.025017
  7C   3s         0.006833 -0.100283  0.130139 -0.103823 -0.208646 -0.018224
  7C   2pz        0.000036 -0.000051  0.000533 -0.000098 -0.000937  0.000324
  7C   2px       -0.001136  0.010368  0.013819  0.003245 -0.044608  0.022170
  7C   2py       -0.007049  0.025995 -0.055134  0.019924  0.064445 -0.013625
  7C   1dz2      -0.000283  0.003280 -0.002734  0.001755  0.004202 -0.000634
  7C   1dxz       0.000010 -0.000189  0.000141 -0.000126 -0.000164 -0.000032
  7C   1dyz      -0.000002 -0.000056 -0.000047  0.000014  0.000107 -0.000020
  7C   1dx2y2     0.000269 -0.010781  0.005075 -0.006119 -0.003757 -0.003013
  7C   1dxy      -0.000261 -0.000811 -0.005516  0.003461  0.008663  0.000374
  8H   1s        -0.005041 -0.076830 -0.040846 -0.019027  0.088164 -0.024765
  8H   2s        -0.001762 -0.018075 -0.016935 -0.008510  0.042476 -0.011907
  9H   1s        -0.005040 -0.076818 -0.040847 -0.019013  0.088165 -0.024740
  9H   2s        -0.001765 -0.018061 -0.016963 -0.008493  0.042507 -0.011876
 10O   1s         0.003246 -0.041337  0.038297 -0.031600 -0.048874 -0.018020
 10O   2s        -0.008122  0.095445 -0.091682  0.073150  0.114322  0.040860
 10O   1pz        0.000006  0.000211  0.000481 -0.000167 -0.001536  0.000569
 10O   1px        0.000442  0.023362  0.013678  0.012188 -0.072100  0.077181
 10O   1py       -0.000588  0.011694 -0.048687  0.043746  0.101841  0.039080
 10O   3s        -0.003837  0.104021 -0.092256  0.095640  0.142617  0.066222
 10O   2pz        0.000018  0.000059  0.000283 -0.000083 -0.000795  0.000342
 10O   2px        0.000299  0.010562  0.004586  0.006603 -0.034514  0.042599
 10O   2py       -0.002031  0.009857 -0.032391  0.022454  0.055676  0.018546
 10O   1dz2      -0.000122  0.001688 -0.002546  0.002252  0.003712  0.001824
 10O   1dxz       0.000001 -0.000005  0.000014 -0.000009 -0.000037  0.000020
 10O   1dyz      -0.000004 -0.000004 -0.000072  0.000032  0.000170 -0.000047
 10O   1dx2y2    -0.000209  0.000954 -0.004006  0.002423  0.007369  0.000551
 10O   1dxy      -0.000087 -0.002513 -0.001244 -0.001076  0.006418 -0.006672
 11H   1s         0.009321 -0.038709  0.107279 -0.050519 -0.180948  0.046317
 11H   2s         0.006426 -0.002912  0.049412 -0.017163 -0.088908  0.045313
 12H   1s        -0.068818  0.039954 -0.047398 -0.101759 -0.020794  0.105173
 12H   2s        -0.012630  0.006316 -0.013971 -0.036724 -0.002876  0.061990
 13H   1s        -0.066225 -0.025129  0.089408 -0.005890  0.087916  0.090429
 13H   2s        -0.012300 -0.006312  0.028986 -0.003082  0.037295  0.056732
 14H   1s         0.000015 -0.072523 -0.034854  0.087121 -0.041250  0.121326
 14H   2s        -0.000098 -0.014437 -0.011202  0.030655 -0.015388  0.073346
 15H   1s         0.071338  0.039448  0.097984 -0.006551  0.058152  0.115707
 15H   2s         0.013809  0.002191  0.040165 -0.010639  0.012032  0.069803
 16H   1s         0.066462 -0.022869 -0.060277 -0.105137  0.004891  0.089991
 16H   2s         0.012787 -0.004870 -0.019189 -0.038371  0.003384  0.057451
                     18        19        20        21        22        23   
                  -0.46819  -0.45966  -0.45421  -0.44622  -0.42218  -0.41540
                   2.00000   2.00000   2.00000   2.00000   2.00000   2.00000
                  --------  --------  --------  --------  --------  --------
  0C   1s        -0.051633 -0.011066 -0.000042  0.017865 -0.024452 -0.003307
  0C   2s         0.104637  0.019244  0.000087 -0.035272  0.050894  0.001562
  0C   1pz       -0.001542 -0.000239 -0.055697  0.001102  0.003365 -0.001200
  0C   1px       -0.105993  0.064207  0.000484  0.144263  0.236701  0.001649
  0C   1py        0.053169  0.162196 -0.000387  0.087471 -0.096959  0.201226
  0C   3s         0.140063  0.056768  0.000102 -0.039227  0.119972  0.050180
  0C   2pz       -0.000326  0.000036 -0.032645  0.000250  0.001250 -0.000132
  0C   2px       -0.032837  0.044992  0.000352  0.028011  0.094535  0.013964
  0C   2py       -0.006739  0.080514 -0.000206  0.007919 -0.024488  0.050433
  0C   1dz2      -0.002219 -0.001197 -0.000056  0.000952  0.001443 -0.001939
  0C   1dxz       0.000186  0.000059 -0.003586  0.000000 -0.000113  0.000158
  0C   1dyz      -0.000131 -0.000063 -0.001696  0.000155  0.000064 -0.000002
  0C   1dx2y2     0.005580  0.000522  0.000049  0.006675 -0.003883  0.008577
  0C   1dxy      -0.012146 -0.004576 -0.000016  0.008982  0.006208 -0.002882
  1C   1s         0.033118  0.037325  0.000063 -0.045689 -0.006900 -0.001284
  1C   2s        -0.069104 -0.075795 -0.000131  0.095407  0.014416  0.003214
  1C   1pz        0.001463 -0.002468 -0.130710 -0.000553 -0.001748 -0.000601
  1C   1px        0.046053 -0.207085  0.001606 -0.083170 -0.164464 -0.082361
  1C   1py       -0.141012  0.008741 -0.000812 -0.087081 -0.028301 -0.055204
  1C   3s        -0.066218 -0.118440 -0.000176  0.160126  0.022171 -0.012257
  1C   2pz       -0.000102  0.000077 -0.056084 -0.000306  0.000098 -0.000070
  1C   2px       -0.001612 -0.012833  0.000699 -0.028037  0.007806 -0.007085
  1C   2py        0.018211 -0.036904 -0.000353 -0.011593  0.000211 -0.001396
  1C   1dz2       0.000213  0.000673  0.000085 -0.000123 -0.000144 -0.000087
  1C   1dxz       0.000136  0.000042  0.000363  0.000018 -0.000036  0.000008
  1C   1dyz       0.000062 -0.000015 -0.007259 -0.000007  0.000185  0.000005
  1C   1dx2y2     0.011365  0.002955  0.000045  0.000970  0.003972  0.000645
  1C   1dxy      -0.001177 -0.003506  0.000087 -0.000522  0.013891  0.000204
  2C   1s         0.051051  0.017072  0.000037 -0.012099 -0.014212  0.016927
  2C   2s        -0.103964 -0.033138 -0.000075  0.023546  0.032810 -0.035316
  2C   1pz        0.000018  0.002790 -0.024637 -0.000830  0.002137  0.000122
  2C   1px        0.035912  0.159527  0.000445 -0.145795  0.203588 -0.083287
  2C   1py        0.066998 -0.151379  0.000005 -0.146513  0.039847 -0.177880
  2C   3s        -0.144618 -0.040660 -0.000100  0.021945  0.044712 -0.074137
  2C   2pz        0.000085  0.000667 -0.008840 -0.000057  0.000921 -0.000043
  2C   2px        0.013061  0.038453  0.000139 -0.037879  0.067437 -0.035973
  2C   2py        0.011381 -0.035200  0.000011 -0.064859 -0.021542 -0.061528
  2C   1dz2       0.001749  0.001338 -0.000002 -0.001797  0.001869 -0.000764
  2C   1dxz      -0.000111  0.000010 -0.000958  0.000038 -0.000141  0.000066
  2C   1dyz      -0.000127 -0.000079 -0.001371  0.000102 -0.000026  0.000015
  2C   1dx2y2    -0.010261 -0.000841  0.000010  0.004446 -0.008612  0.004170
  2C   1dxy      -0.007159 -0.007557 -0.000000  0.008104  0.000522 -0.000201
  3C   1s        -0.046023 -0.026644 -0.000046  0.028151  0.005210  0.003954
  3C   2s         0.092052  0.054518  0.000093 -0.058160 -0.011463 -0.009104
  3C   1pz        0.001391 -0.002464 -0.016186 -0.000507 -0.001786 -0.000816
  3C   1px        0.027189 -0.187881  0.000275 -0.101869 -0.167733 -0.094124
  3C   1py       -0.174799  0.043775 -0.000083 -0.114390 -0.028711 -0.045466
  3C   3s         0.120620  0.072631  0.000139 -0.092244 -0.015480 -0.010117
  3C   2pz        0.000431 -0.000919 -0.009535 -0.000295 -0.000107 -0.000603
  3C   2px        0.010339 -0.070256  0.000138 -0.042287 -0.016128 -0.056624
  3C   2py       -0.050459  0.015583 -0.000046 -0.034124 -0.012402 -0.009337
[...]
      0      -0.026257  -0.010277  -0.037898  -0.109243  -0.181712  -0.115004
      1       0.001591  -0.016201   0.092894  -0.054472  -0.076307  -0.284366
      2      -0.000311  -0.000019  -0.001011  -0.000945  -0.001660   0.000394
      3       0.010218  -0.006678   0.155730   0.023594   0.275628   0.003358
      4       0.007339   0.005116  -0.013142   0.134484  -0.053656   0.217880
      5       0.000076  -0.000110   0.001899  -0.000551   0.003555  -0.001299
      6       0.009318   0.003763  -0.026118   0.101074   0.182031  -0.033857
      7      -0.045613  -0.000555  -0.124280  -0.129321  -0.072061   0.286730
      8       0.000394   0.000050   0.000454   0.001976   0.002571  -0.002155
      9       0.034529   0.015622   0.111484  -0.012874  -0.360329  -0.017812
     10       0.005653   0.005780  -0.020815   0.106098   0.030698  -0.135938
     11       0.000370   0.000148   0.001428  -0.000804  -0.004404   0.000626
     12       0.002581  -0.013840   0.013673  -0.105994   0.229060   0.100325
     13       0.032893  -0.004652   0.137906  -0.097660   0.062991   0.246066
     14      -0.000173  -0.000134  -0.000681  -0.000641   0.002294  -0.000333
     15      -0.011215   0.007944  -0.060390   0.080922  -0.173829   0.053957
     16      -0.021351  -0.010491  -0.087964  -0.070816   0.119498  -0.295063
     17      -0.000003   0.000156  -0.000166   0.001382  -0.002763   0.002442
     18      -0.018497   0.062713  -0.042393  -0.011251  -0.031409  -0.000092
     19       0.061244  -0.009943  -0.043356  -0.038972  -0.005395  -0.030328
     20      -0.000578   0.000817  -0.000239   0.000106  -0.000339   0.000191
     21      -0.073042  -0.034944   0.031583   0.014707   0.003669   0.000422
     22       0.002563  -0.000808  -0.003062   0.001533   0.002139   0.010033
     23      -0.000921  -0.000440   0.000405   0.000168   0.000020  -0.000070
     24       0.191156  -0.412562  -0.017527   0.029663   0.000733   0.023888
     25      -0.239648   0.209395   0.221596  -0.020920   0.132767  -0.050624
     26       0.259897  -0.381631  -0.105707   0.018960  -0.044764   0.030473
     27       0.197343  -0.421392  -0.020046   0.030095  -0.000322   0.024613
     28      -0.242714   0.214014   0.222813  -0.021153   0.133254  -0.050973
     29      -0.252370   0.369152   0.102554  -0.017991   0.043131  -0.029267
     30       0.023841   0.013897  -0.008002  -0.003679  -0.000626   0.000397
     31      -0.052375  -0.038528   0.017734   0.009820  -0.007793  -0.003746
     32       0.000654   0.000438  -0.000219  -0.000112   0.000051   0.000033
     33       0.390334   0.275442  -0.102391  -0.085317   0.041240  -0.025957
     34       0.636172   0.428456  -0.195869  -0.135781   0.049094  -0.023895
     35       0.000119   0.000229   0.000194  -0.000048   0.000160  -0.000141
     36       0.029111   0.055130  -0.209460   0.220016   0.072191   0.318594
     37       0.082109   0.071039  -0.107958   0.398329   0.262096   0.274524
     38      -0.000153   0.000214  -0.001790   0.000136  -0.000753   0.002056
     39      -0.085762  -0.012697  -0.205223  -0.119722   0.100482   0.203977
     40       0.186680   0.043569   0.280924   0.450982   0.181437  -0.280045
     41      -0.002141  -0.000414  -0.004121  -0.004165   0.000066   0.004114
     42      -0.178136  -0.023447  -0.564342   0.066704   0.483570  -0.008970
     43       0.035823   0.012902   0.068877   0.117411  -0.085911  -0.153282
     44      -0.002297  -0.000351  -0.007022   0.000070   0.006184   0.000828
     45       0.015798   0.014787  -0.193007  -0.105745  -0.000920  -0.196816
     46      -0.090136  -0.024895   0.211544   0.445741  -0.357610   0.359816
     47       0.000737   0.000331  -0.003549  -0.003965   0.002169  -0.004518
     48      -0.075972   0.014563  -0.296777   0.249866  -0.009146  -0.241945
     49      -0.065078   0.035399  -0.246793   0.386455  -0.285660  -0.194959
     50      -0.000496  -0.000048  -0.001956   0.000557   0.001638  -0.001647
                 42         43         44         45         46         47    
      0       0.009378  -0.000167  -0.000531   0.000006   0.062206   0.018463
      1       0.009719   0.000747   0.001359  -0.000006  -0.046565  -0.014693
      2       0.000047  -0.000008  -0.000014  -0.000358   0.001013   0.000306
      3      -0.015423   0.000945   0.000016  -0.000003  -0.001746  -0.000669
      4      -0.008932  -0.000787  -0.000233   0.000002  -0.002142  -0.000206
      5      -0.000120   0.000016   0.000002   0.000223  -0.000007  -0.000006
      6      -0.002250   0.000162  -0.000045   0.000001  -0.029784   0.018243
      7      -0.002792  -0.000113  -0.000584   0.000000  -0.009694   0.009188
      8      -0.000011   0.000001   0.000003  -0.000087  -0.000288   0.000157
      9       0.003645  -0.000002  -0.000284   0.000000   0.001607  -0.005527
     10       0.001910  -0.000109   0.000034  -0.000000   0.011279  -0.047741
     11       0.000025   0.000002  -0.000004   0.000002  -0.000050   0.000227
     12      -0.003150  -0.000147   0.000203  -0.000001   0.006054  -0.046912
     13      -0.005018   0.000221  -0.000032   0.000000  -0.004614   0.036458
     14      -0.000011  -0.000001   0.000002   0.000048   0.000099  -0.000772
     15      -0.000868  -0.003779   0.000029  -0.000002  -0.002159   0.017104
     16       0.007093  -0.002027   0.000560   0.000001   0.000136   0.005136
     17      -0.000056  -0.000030  -0.000003   0.000233  -0.000026   0.000168
     18      -0.018910  -0.001947   0.055580  -0.001167   0.000725   0.000181
     19      -0.059198  -0.000624  -0.041955   0.000624  -0.000577  -0.000114
     20       0.000139  -0.000021   0.001062   0.090977   0.000011   0.000002
     21       0.127828   0.069129   0.001106  -0.000024   0.000099   0.000677
     22       0.712674  -0.045120  -0.001004   0.000009   0.000115  -0.000370
     23      -0.003726   0.001050   0.000020   0.001330   0.000000   0.000010
     24       0.088075   0.005696  -0.336330   0.358441  -0.003469  -0.000361
     25       0.078000  -0.003233   0.254372  -0.267698   0.005296   0.001240
     26       0.004886  -0.006661   0.563882  -0.545298   0.007926   0.001577
     27       0.088317   0.005506  -0.323906  -0.344290  -0.003267  -0.000319
     28       0.078172  -0.003135   0.248263   0.260168   0.005191   0.001218
     29      -0.003805   0.006793  -0.576540  -0.554966  -0.008053  -0.001594
     30      -0.059846  -0.000561  -0.000177   0.000004   0.000021  -0.000011
     31      -0.491202  -0.001647  -0.000045  -0.000001  -0.000022   0.000056
     32       0.002963   0.000005  -0.000003  -0.000339   0.000000  -0.000001
     33      -0.424083  -0.804146  -0.009714  -0.000001  -0.001976  -0.008872
     34      -0.132691   0.586853   0.008273  -0.000013   0.000755   0.006889
     35      -0.004112  -0.012564  -0.000154   0.003522  -0.000028  -0.000140
     36      -0.008417   0.001292   0.010528  -0.000054  -0.719883  -0.211103
     37      -0.018660  -0.002072  -0.010363   0.000040   0.546597   0.161371
     38       0.000014   0.000024   0.000189   0.001990  -0.011769  -0.003458
     39      -0.004237  -0.001212  -0.000484  -0.000001   0.356289  -0.222032
     40      -0.001916   0.000016  -0.000597   0.000001   0.139707  -0.091117
     41      -0.000025  -0.000019  -0.000001   0.000134   0.003306  -0.002035
     42      -0.001690  -0.000454   0.000010  -0.000002  -0.018538   0.074862
     43       0.001762   0.000898   0.001262  -0.000000  -0.139763   0.567265
     44      -0.000050  -0.000008  -0.000008   0.000225   0.000638  -0.002591
     45       0.012139   0.039336  -0.004633   0.000015   0.023136  -0.207145
     46      -0.022316   0.014617  -0.002062  -0.000004   0.007410  -0.078565
     47       0.000297   0.000374  -0.000043  -0.000890   0.000225  -0.001934
     48       0.005226  -0.002023  -0.000811   0.000001  -0.073538   0.556560
     49       0.003833   0.001908   0.000290  -0.000000   0.055513  -0.422115
     50       0.000018  -0.000030  -0.000012   0.000047  -0.001200   0.009093
                  48         49         50    
      0       0.019140  -0.010099  -0.003527
      1      -0.016512   0.010715   0.002656
      2       0.000325  -0.000184  -0.000057
      3      -0.000996   0.001456  -0.001663
      4      -0.001118  -0.000600   0.002299
      5      -0.000005   0.000021  -0.000034
      6       0.054240  -0.046465  -0.014432
      7       0.023935  -0.017001  -0.004708
      8       0.000487  -0.000439  -0.000140
      9      -0.007125  -0.006627  -0.004785
     10      -0.028070  -0.059855  -0.026028
     11       0.000088   0.000289   0.000103
     12       0.038062   0.013999   0.030769
     13      -0.027433  -0.006449  -0.024363
     14       0.000613   0.000203   0.000509
     15      -0.019204  -0.035029   0.067896
     16      -0.005186  -0.012307   0.026838
     17      -0.000192  -0.000333   0.000627
     18       0.000262  -0.000295   0.000004
     19      -0.000166   0.000039   0.000276
     20       0.000004  -0.000003  -0.000002
     21      -0.000845  -0.001229   0.002378
     22       0.000505   0.000726  -0.001144
     23      -0.000012  -0.000018   0.000033
     24      -0.000993   0.000019   0.002016
     25       0.001930   0.000122  -0.003194
     26       0.002404  -0.000500  -0.002885
     27      -0.000932   0.000004   0.001946
     28       0.001899   0.000130  -0.003160
     29      -0.002445   0.000495   0.002972
     30       0.000064   0.000041  -0.000153
     31      -0.000032  -0.000123   0.000038
     32       0.000001   0.000001  -0.000002
     33       0.009139   0.015402  -0.027270
     34      -0.007360  -0.012273   0.022107
     35       0.000145   0.000244  -0.000436
     36      -0.218627   0.120821   0.036268
     37       0.168442  -0.096226  -0.027294
     38      -0.003590   0.002003   0.000591
     39      -0.629785   0.509089   0.153199
     40      -0.255078   0.201498   0.059890
     41      -0.005792   0.004711   0.001423
     42       0.048323   0.087038   0.039972
     43       0.328842   0.666464   0.285000
     44      -0.001444  -0.003055  -0.001274
     45       0.224143   0.405833  -0.778973
     46       0.083863   0.155601  -0.302966
     47       0.002101   0.003778  -0.007226
     48      -0.427648  -0.134482  -0.337936
     49       0.321952   0.096263   0.257044
     50      -0.006972  -0.002163  -0.005526


-----------
IR SPECTRUM
-----------

 Mode    freq (cm**-1)   T**2         TX         TY         TZ
-------------------------------------------------------------------
   8:       175.73    2.027807  ( -1.386562   0.323888  -0.018727)
   9:       181.63    3.215162  (  0.020478  -0.009909  -1.792943)
  10:       362.29    0.236930  ( -0.430278  -0.227502  -0.005749)
  11:       410.10    0.045416  (  0.002728  -0.003595  -0.213063)
  12:       417.45   12.992143  (  3.557069   0.581476   0.035887)
  13:       459.41    5.707683  (  0.022685  -0.015549  -2.388918)
  14:       626.02    2.700457  (  1.165329   1.158615   0.008700)
  15:       636.61    1.682178  ( -1.062432  -0.743859  -0.009491)
  16:       664.94    2.752794  ( -0.022447   0.010927   1.658967)
  17:       711.30   23.513476  ( -0.055720   0.030436   4.848654)
  18:       777.77   27.664995  (  0.061762  -0.030147  -5.259303)
  19:       838.64    1.683893  ( -1.272836  -0.252068  -0.015625)
  20:       856.35    0.002963  (  0.001077  -0.000516  -0.054424)
  21:       917.93    1.012015  ( -0.012554   0.005559   1.005896)
  22:       964.32    0.000364  (  0.002821  -0.000507  -0.018863)
  23:       996.59    0.049734  (  0.004574   0.001121  -0.222961)
  24:      1015.62    4.302954  ( -1.614604  -1.302258  -0.011539)
  25:      1035.27   33.906466  (  5.141671   2.732536   0.054170)
  26:      1045.81    1.838931  (  0.058459   0.006818  -1.354794)
  27:      1061.91    6.437910  (  1.245554   2.210544  -0.001365)
  28:      1120.45   12.850377  (  3.523813   0.657127   0.036059)
  29:      1193.62    0.156636  ( -0.252159   0.305004  -0.004889)
  30:      1211.14    5.842013  (  0.673983   2.321142  -0.007791)
  31:      1221.82    0.163190  (  0.031637   0.402722  -0.001896)
  32:      1250.73    0.007357  (  0.002872   0.007588  -0.085386)
  33:      1313.86    6.318216  ( -0.345142  -2.489768   0.012258)
  34:      1362.49    3.899936  (  0.261346   1.957432  -0.009643)
  35:      1371.56    0.452828  ( -0.670903  -0.051490  -0.008122)
  36:      1455.95    2.087469  ( -0.076735   1.442718  -0.012052)
  37:      1460.83   13.429354  ( -3.266265   1.660833  -0.050002)
  38:      1501.31    4.201999  ( -2.049018  -0.054617  -0.023240)
  39:      1551.67   15.658447  (  1.102840   3.800274  -0.010385)
  40:      1642.60    1.593472  (  1.055274  -0.692528   0.016542)
  41:      1666.32    9.609200  (  0.902114   2.965692  -0.008038)
  42:      1826.17  186.277939  (  4.443648  12.904687  -0.031391)
  43:      2943.39   82.884896  (  7.828791  -4.645382   0.123864)
  44:      3028.05   12.077462  (  0.319345  -3.460459   0.026580)
  45:      3053.54    4.718692  ( -0.027753   0.021181   2.171974)
  46:      3170.38    9.589006  (  1.454720  -2.733440   0.033235)
  47:      3183.55    0.037481  (  0.113775  -0.156620   0.002523)
  48:      3193.87   21.944174  (  3.865806  -2.644993   0.061071)
  49:      3206.60   35.621798  ( -3.969231  -4.457201  -0.019106)
  50:      3215.59   13.657096  (  3.515017  -1.139935   0.047939)

The first frequency considered to be a vibration is 8
The total number of vibrations considered is 43


--------------------------
THERMOCHEMISTRY AT 298.15K
--------------------------

Temperature         ... 298.15 K
Pressure            ... 1.00 atm
Total Mass          ... 120.15 AMU

Throughout the following assumptions are being made:
  (1) The electronic state is orbitally nondegenerate
  (2) There are no thermally accessible electronically excited states
  (3) Hindered rotations indicated by low frequency modes are not
      treated as such but are treated as vibrations and this may
      cause some error
  (4) All equations used are the standard statistical mechanics
      equations for an ideal gas
  (5) All vibrations are strictly harmonic

freq.     175.73  E(vib)   ...       0.38 
freq.     181.63  E(vib)   ...       0.37 
freq.     362.29  E(vib)   ...       0.22 
freq.     410.10  E(vib)   ...       0.19 
freq.     417.45  E(vib)   ...       0.18 
freq.     459.41  E(vib)   ...       0.16 
freq.     626.02  E(vib)   ...       0.09 
freq.     636.61  E(vib)   ...       0.09 
freq.     664.94  E(vib)   ...       0.08 
freq.     711.30  E(vib)   ...       0.07 
freq.     777.77  E(vib)   ...       0.05 
freq.     838.64  E(vib)   ...       0.04 
freq.     856.35  E(vib)   ...       0.04 
freq.     917.93  E(vib)   ...       0.03 
freq.     964.32  E(vib)   ...       0.03 
freq.     996.59  E(vib)   ...       0.02 
freq.    1015.62  E(vib)   ...       0.02 
freq.    1035.27  E(vib)   ...       0.02 
freq.    1045.81  E(vib)   ...       0.02 
freq.    1061.91  E(vib)   ...       0.02 
freq.    1120.45  E(vib)   ...       0.01 
freq.    1193.62  E(vib)   ...       0.01 
freq.    1211.14  E(vib)   ...       0.01 
freq.    1221.82  E(vib)   ...       0.01 
freq.    1250.73  E(vib)   ...       0.01 
freq.    1313.86  E(vib)   ...       0.01 
freq.    1362.49  E(vib)   ...       0.01 
freq.    1371.56  E(vib)   ...       0.01 
freq.    1455.95  E(vib)   ...       0.00 
freq.    1460.83  E(vib)   ...       0.00 
freq.    1501.31  E(vib)   ...       0.00 
freq.    1551.67  E(vib)   ...       0.00 
freq.    1642.60  E(vib)   ...       0.00 
freq.    1666.32  E(vib)   ...       0.00 
freq.    1826.17  E(vib)   ...       0.00 
freq.    2943.39  E(vib)   ...       0.00 
freq.    3028.05  E(vib)   ...       0.00 
freq.    3053.54  E(vib)   ...       0.00 
freq.    3170.38  E(vib)   ...       0.00 
freq.    3183.55  E(vib)   ...       0.00 
freq.    3193.87  E(vib)   ...       0.00 
freq.    3206.60  E(vib)   ...       0.00 
freq.    3215.59  E(vib)   ...       0.00 

------------
INNER ENERGY
------------

The inner energy is: U= E(el) + E(ZPE) + E(vib) + E(rot) + E(trans)
    E(el)   - is the total energy from the electronic structure calculation
              = E(kin-el) + E(nuc-el) + E(el-el) + E(nuc-nuc)
    E(ZPE)  - the the zero temperature vibrational energy from the frequency calculation
    E(vib)  - the the finite temperature correction to E(ZPE) due to population
              of excited vibrational states
    E(rot)  - is the rotational thermal energy
    E(trans)- is the translational thermal energy

Summary of contributions to the inner energy U:
Electronic energy                ...   -384.62907864 Eh
Zero point energy                ...      0.13737619 Eh      86.20 kcal/mol
Thermal vibrational correction   ...      0.00352226 Eh       2.21 kcal/mol
Thermal rotational correction    ...      0.00141627 Eh       0.89 kcal/mol
Thermal translational correction ...      0.00141627 Eh       0.89 kcal/mol
-----------------------------------------------------------------------
Total thermal energy                   -384.48534765 Eh


Summary of corrections to the electronic energy:
(perhaps to be used in another calculation)
Total thermal correction                  0.00635481 Eh       3.99 kcal/mol
Non-thermal (ZPE) correction              0.13737619 Eh      86.20 kcal/mol
-----------------------------------------------------------------------
Total correction                          0.14373099 Eh      90.19 kcal/mol


--------
ENTHALPY
--------

The enthalpy is H = U + kB*T
                kB is Boltzmann's constant
Total free energy                 ...   -384.48534765 Eh 
Thermal Enthalpy correction       ...      0.00094421 Eh       0.59 kcal/mol
-----------------------------------------------------------------------
Total Enthalpy                    ...   -384.48440344 Eh


Note: Rotational entropy computed according to Herzberg 
Infrared and Raman Spectra, Chapter V,1, Van Nostrand Reinhold, 1945 
Point Group:  C1, Symmetry Number:   1  
Rotational constants in cm-1:     0.164061     0.029222     0.024916 

Vibrational entropy computed according to the QRRHO of S. Grimme
Chem.Eur.J. 2012 18 9955


-------
ENTROPY
-------

The entropy contributions are T*S = T*(S(el)+S(vib)+S(rot)+S(trans))
     S(el)   - electronic entropy
     S(vib)  - vibrational entropy
     S(rot)  - rotational entropy
     S(trans)- translational entropy
The entropies will be listed as mutliplied by the temperature to get
units of energy

Electronic entropy                ...      0.00000000 Eh      0.00 kcal/mol
Vibrational entropy               ...      0.00541478 Eh      3.40 kcal/mol
Rotational entropy                ...      0.01377502 Eh      8.64 kcal/mol
Translational entropy             ...      0.01913124 Eh     12.01 kcal/mol
-----------------------------------------------------------------------
Final entropy term                ...      0.03832105 Eh     24.05 kcal/mol


-------------------
GIBBS FREE ENTHALPY
-------------------

The Gibbs free enthalpy is G = H - T*S

Total enthalpy                    ...   -384.48440344 Eh 
Total entropy correction          ...     -0.03832105 Eh    -24.05 kcal/mol
-----------------------------------------------------------------------
Final Gibbs free enthalpy         ...   -384.52272448 Eh

For completeness - the Gibbs free enthalpy minus the electronic energy
G-E(el)                           ...      0.10635415 Eh     66.74 kcal/mol


Timings for individual modules:

Sum of individual times         ...     1078.416 sec (=  17.974 min)
GTO integral calculation        ...        0.342 sec (=   0.006 min)   0.0 %
SCF iterations                  ...       43.430 sec (=   0.724 min)   4.0 %
Analytical frequency calculation...     1034.645 sec (=  17.244 min)  95.9 %
                             ****ORCA TERMINATED NORMALLY****
TOTAL RUN TIME: 0 days 0 hours 17 minutes 59 seconds 777 msec
