
                                 *****************
                                 * O   R   C   A *
                                 *****************

           --- An Ab Initio, DFT and Semiempirical electronic structure package ---

                  #######################################################
                  #                        -***-                        #
                  #          Department of theory and spectroscopy      #
                  #               Directorship: Frank Neese             #
                  #        Max Planck Institute fuer Kohlenforschung    #
                  #                Kaiser Wilhelm Platz 1               #
                  #                 D-45470 Muelheim/Ruhr               #
                  #                      Germany                        #
                  #                                                     #
                  #                  All rights reserved                #
                  #                        -***-                        #
                  #######################################################


                         Program Version 4.1.0  - RELEASE  -


 With contributions from (in alphabetic order):
   Daniel Aravena         : Magnetic Properties
   Michael Atanasov       : Ab Initio Ligand Field Theory
   Alexander A. Auer      : GIAO ZORA
   Ute Becker             : Parallelization
   Giovanni Bistoni       : ED, Open-shell LED
   Martin Brehm           : Molecular dynamics
   Dmytro Bykov           : SCF Hessian
   Vijay G. Chilkuri      : MRCI spin determinant printing
   Dipayan Datta          : RHF DLPNO-CCSD density
   Achintya Kumar Dutta   : EOM-CC, STEOM-CC
   Dmitry Ganyushin       : Spin-Orbit,Spin-Spin,Magnetic field MRCI
   Miquel Garcia          : C-PCM Hessian
   Yang Guo               : DLPNO-NEVPT2, CIM, IAO-localization
   Andreas Hansen         : Spin unrestricted coupled pair/coupled cluster methods
   Benjamin Helmich-Paris : CASSCF linear response (MC-RPA)
   Lee Huntington         : MR-EOM, pCC
   Robert Izsak           : Overlap fitted RIJCOSX, COSX-SCS-MP3, EOM
   Christian Kollmar      : KDIIS, OOCD, Brueckner-CCSD(T), CCSD density
   Simone Kossmann        : Meta GGA functionals, TD-DFT gradient, OOMP2, MP2 Hessian
   Martin Krupicka        : AUTO-CI
   Lucas Lang             : DCDCAS
   Dagmar Lenk            : GEPOL surface, SMD
   Dimitrios Liakos       : Extrapolation schemes; parallel MDCI
   Dimitrios Manganas     : ROCIS; embedding schemes
   Dimitrios Pantazis     : SARC Basis sets
   Taras Petrenko         : DFT Hessian,TD-DFT gradient, ASA, ECA, R-Raman, ABS, FL, XAS/XES, NRVS
   Peter Pinski           : DLPNO-MP2, DLPNO-MP2 Gradient
   Christoph Reimann      : Effective Core Potentials
   Marius Retegan         : Local ZFS, SOC
   Christoph Riplinger    : Optimizer, TS searches, QM/MM, DLPNO-CCSD(T), (RO)-DLPNO pert. Triples
   Tobias Risthaus        : Range-separated hybrids, TD-DFT gradient, RPA, STAB
   Michael Roemelt        : Restricted open shell CIS
   Masaaki Saitow         : Open-shell DLPNO
   Barbara Sandhoefer     : DKH picture change effects
   Avijit Sen             : IP-ROCIS
   Kantharuban Sivalingam : CASSCF convergence, NEVPT2, FIC-MRCI
   Bernardo de Souza      : ESD, SOC TD-DFT
   Georgi Stoychev        : AutoAux, RI-MP2 NMR
   Willem Van den Heuvel  : Paramagnetic NMR
   Boris Wezisla          : Elementary symmetry handling
   Frank Wennmohs         : Technical directorship


 We gratefully acknowledge several colleagues who have allowed us to
 interface, adapt or use parts of their codes:
   Stefan Grimme, W. Hujo, H. Kruse,             : VdW corrections, initial TS optimization,
                  C. Bannwarth                     DFT functionals, gCP, sTDA/sTD-DF
   Ed Valeev                                     : LibInt (2-el integral package), F12 methods
   Garnet Chan, S. Sharma, J. Yang, R. Olivares  : DMRG
   Ulf Ekstrom                                   : XCFun DFT Library
   Mihaly Kallay                                 : mrcc  (arbitrary order and MRCC methods)
   Andreas Klamt, Michael Diedenhofen            : otool_cosmo (COSMO solvation model)
   Jiri Pittner, Ondrej Demel                    : Mk-CCSD
   Frank Weinhold                                : gennbo (NPA and NBO analysis)
   Christopher J. Cramer and Donald G. Truhlar   : smd solvation model
   Lars Goerigk                                  : TD-DFT with DH, B97 family of functionals
   V. Asgeirsson, H. Jonsson                     : NEB implementation
   FAccTs GmbH                                   : IRC, NEB, NEB-TS, Multilevel


 Your calculation uses the libint2 library for the computation of 2-el integrals
 For citations please refer to: http://libint.valeyev.net

 This ORCA versions uses:
   CBLAS   interface :  Fast vector & matrix operations
   LAPACKE interface :  Fast linear algebra routines
   SCALAPACK package :  Parallel linear algebra routines




***************************************
The coordinates will be read from file: /Users/lailaal-madhagi/Desktop/Testing_XAS_Analysis_code/Phenol//Results_dir_Phenol_geom_element_C_2019-11-16_16-50-48//GTE1_Phenol_geom_2019-11-16_16-51-35//opt.xyz
***************************************


----- Orbital basis set information -----
Your calculation utilizes the basis: 6-31G*
   H-He, Li-Ne : W. J. Hehre, R. Ditchfield and J.A. Pople, J. Chem. Phys. 56, 2257 (1972).
                 Note: He and Ne are unpublished basis sets taken from the Gaussian program.
                 Note: Li and B from J. D. Dill and J. A. Pople, J. Chem. Phys. 62, 2921 (1975).
   Na - Ar     : M. M. Francl, W. J. Pietro, W. J. Hehre, J. S. Binkley, M. S. Gordon, 
                 D. J. DeFrees and J. A. Pople, J. Chem. Phys. 77, 3654 (1982).
   K - Zn      : V. A. Rassolov, J. A. Pople, M. A. Ratner, and T. L. Windus, J. Chem. Phys. 109, 1223 (1998).

================================================================================
                                        WARNINGS
                       Please study these warnings very carefully!
================================================================================


INFO   : the flag for use of LIBINT has been found!

================================================================================
                                       INPUT FILE
================================================================================
NAME = /Users/lailaal-madhagi/Desktop/Testing_XAS_Analysis_code/Phenol//Results_dir_Phenol_geom_element_C_2019-11-16_16-50-48//GTE1_Phenol_geom_2019-11-16_16-51-35//freq.inp
|  1> ! B3LYP 6-31G* TIGHTSCF Grid3 FinalGrid5 Freq 
|  2> !NormalPrint 
|  3> %output 
|  4> Print[P_Basis] 2 
|  5> Print[P_MOS] 1 
|  6> end 
|  7> *xyzfile 0 1 /Users/lailaal-madhagi/Desktop/Testing_XAS_Analysis_code/Phenol//Results_dir_Phenol_geom_element_C_2019-11-16_16-50-48//GTE1_Phenol_geom_2019-11-16_16-51-35//opt.xyz                           ****END OF INPUT****
================================================================================

                       ****************************
                       * Single Point Calculation *
                       ****************************

---------------------------------
CARTESIAN COORDINATES (ANGSTROEM)
---------------------------------
  C     -3.026374    1.001870    0.002275
  C     -1.916740    1.855668    0.010295
  C     -2.833121   -0.378072   -0.000965
  C     -1.543612   -0.920040    0.003695
  C     -0.442848   -0.061990    0.011685
  C     -0.622883    1.322803    0.015010
  O     -2.159648    3.202916    0.013200
  H     -1.312223    3.675135    0.018737
  H     -4.021961    1.435058   -0.001276
  H     -3.698967   -1.035579   -0.007204
  H     -1.399941   -1.996745    0.001129
  H      0.565932   -0.467150    0.015382
  H      0.238936    1.989064    0.021266

----------------------------
CARTESIAN COORDINATES (A.U.)
----------------------------
  NO LB      ZA    FRAG     MASS         X           Y           Z
   0 C     6.0000    0    12.011   -5.719019    1.893260    0.004300
   1 C     6.0000    0    12.011   -3.622114    3.506703    0.019454
   2 C     6.0000    0    12.011   -5.353824   -0.714452   -0.001825
   3 C     6.0000    0    12.011   -2.917004   -1.738623    0.006983
   4 C     6.0000    0    12.011   -0.836861   -0.117144    0.022081
   5 C     6.0000    0    12.011   -1.177078    2.499735    0.028366
   6 O     8.0000    0    15.999   -4.081143    6.052634    0.024945
   7 H     1.0000    0     1.008   -2.479743    6.944999    0.035408
   8 H     1.0000    0     1.008   -7.600404    2.711867   -0.002411
   9 H     1.0000    0     1.008   -6.990034   -1.956960   -0.013614
  10 H     1.0000    0     1.008   -2.645505   -3.773301    0.002133
  11 H     1.0000    0     1.008    1.069457   -0.882786    0.029069
  12 H     1.0000    0     1.008    0.451523    3.758786    0.040188

--------------------------------
INTERNAL COORDINATES (ANGSTROEM)
--------------------------------
 C      0   0   0     0.000000000000     0.00000000     0.00000000
 C      1   0   0     1.400115065961     0.00000000     0.00000000
 C      1   2   0     1.393411727567   119.60430558     0.00000000
 C      3   1   2     1.398779963735   120.76782284     0.00000000
 C      4   3   1     1.395705710455   119.26747729     0.00000000
 C      5   4   3     1.396450913902   120.52941521     0.00000000
 O      2   1   3     1.368974526627   117.35580882   180.00032860
 H      7   2   1     0.970128780615   108.90813506   180.00255303
 H      1   2   3     1.085751825318   118.91012114   179.99967257
 H      3   1   2     1.087217614779   119.24053699   180.00046345
 H      4   3   1     1.086251353646   120.39613814   180.00016570
 H      5   4   3     1.087108763244   120.18195284   180.00032410
 H      6   5   4     1.089345687448   120.30003507   179.99894088

---------------------------
INTERNAL COORDINATES (A.U.)
---------------------------
 C      0   0   0     0.000000000000     0.00000000     0.00000000
 C      1   0   0     2.645834030644     0.00000000     0.00000000
 C      1   2   0     2.633166556896   119.60430558     0.00000000
 C      3   1   2     2.643311053076   120.76782284     0.00000000
 C      4   3   1     2.637501556310   119.26747729     0.00000000
 C      5   4   3     2.638909786739   120.52941521     0.00000000
 O      2   1   3     2.586986939640   117.35580882   180.00032860
 H      7   2   1     1.833277709998   108.90813506   180.00255303
 H      1   2   3     2.051773599256   118.91012114   179.99967257
 H      3   1   2     2.054543539908   119.24053699   180.00046345
 H      4   3   1     2.052717570993   120.39613814   180.00016570
 H      5   4   3     2.054337840318   120.18195284   180.00032410
 H      6   5   4     2.058565014445   120.30003507   179.99894088

---------------------
BASIS SET INFORMATION
---------------------
There are 3 groups of distinct atoms

 Group   1 Type C   : 10s4p1d contracted to 3s2p1d pattern {631/31/1}
 Group   2 Type O   : 10s4p1d contracted to 3s2p1d pattern {631/31/1}
 Group   3 Type H   : 4s contracted to 2s pattern {31}

Atom   0C    basis set group =>   1
Atom   1C    basis set group =>   1
Atom   2C    basis set group =>   1
Atom   3C    basis set group =>   1
Atom   4C    basis set group =>   1
Atom   5C    basis set group =>   1
Atom   6O    basis set group =>   2
Atom   7H    basis set group =>   3
Atom   8H    basis set group =>   3
Atom   9H    basis set group =>   3
Atom  10H    basis set group =>   3
Atom  11H    basis set group =>   3
Atom  12H    basis set group =>   3

-------------------------
BASIS SET IN INPUT FORMAT
-------------------------

 # Basis set for element : H 
 NewGTO H 
 S 3 
   1      18.7311370000      0.0334945995
   2       2.8253937000      0.2347269467
   3       0.6401217000      0.8137573184
 S 1 
   1       0.1612778000      1.0000000000
  end;

 # Basis set for element : C 
 NewGTO C 
 S 6 
   1    3047.5249000000      0.0018347002
   2     457.3695100000      0.0140373012
   3     103.9486900000      0.0688426061
   4      29.2101550000      0.2321844206
   5       9.2866630000      0.4679413416
   6       3.1639270000      0.3623120322
 S 3 
   1       7.8682724000     -0.1193324086
   2       1.8812885000     -0.1608542116
   3       0.5442493000      1.1434564826
 P 3 
   1       7.8682724000      0.0689990956
   2       1.8812885000      0.3164239798
   3       0.5442493000      0.7443082524
 S 1 
   1       0.1687144000      1.0000000000
 P 1 
   1       0.1687144000      1.0000000000
 D 1 
   1       0.8000000000      1.0000000000
  end;

 # Basis set for element : O 
 NewGTO O 
 S 6 
   1    5484.6717000000      0.0018310998
   2     825.2349500000      0.0139500985
   3     188.0469600000      0.0684450927
   4      52.9645000000      0.2327142753
   5      16.8975700000      0.4701929501
   6       5.7996353000      0.3585208619
 S 3 
   1      15.5396160000     -0.1107775038
   2       3.5999336000     -0.1480263051
   3       1.0137618000      1.1307670390
 P 3 
   1      15.5396160000      0.0708742995
   2       3.5999336000      0.3397527978
   3       1.0137618000      0.7271585953
 S 1 
   1       0.2700058000      1.0000000000
 P 1 
   1       0.2700058000      1.0000000000
 D 1 
   1       0.8000000000      1.0000000000
  end;

------------------------------------------------------------------------------
                           ORCA GTO INTEGRAL CALCULATION
------------------------------------------------------------------------------

                         BASIS SET STATISTICS AND STARTUP INFO

 # of primitive gaussian shells          ...  129
 # of primitive gaussian functions       ...  213
 # of contracted shells                  ...   54
 # of contracted basis functions         ...  110
 Highest angular momentum                ...    2
 Maximum contraction depth               ...    6
 Integral package used                   ... LIBINT
 Integral threshhold            Thresh   ...  2.500e-11
 Primitive cut-off              TCut     ...  2.500e-12


------------------------------ INTEGRAL EVALUATION ----------------------------


 * One electron integrals 
 Pre-screening matrix                    ... done
 Shell pair data                         ... done (   0.001 sec)

-------------------------------------------------------------------------------
                                 ORCA SCF
-------------------------------------------------------------------------------

------------
SCF SETTINGS
------------
Hamiltonian:
 Density Functional     Method          .... DFT(GTOs)
 Exchange Functional    Exchange        .... B88
   X-Alpha parameter    XAlpha          ....  0.666667
   Becke's b parameter  XBeta           ....  0.004200
 Correlation Functional Correlation     .... LYP
 LDA part of GGA corr.  LDAOpt          .... VWN-5
 Gradients option       PostSCFGGA      .... off
 Hybrid DFT is turned on
   Fraction HF Exchange ScalHFX         ....  0.200000
   Scaling of DF-GGA-X  ScalDFX         ....  0.720000
   Scaling of DF-GGA-C  ScalDFC         ....  0.810000
   Scaling of DF-LDA-C  ScalLDAC        ....  1.000000
   Perturbative correction              ....  0.000000
   Density functional embedding theory  .... OFF
   NL short-range parameter             ....  4.800000


General Settings:
 Integral files         IntName         .... /Users/lailaal-madhagi/Desktop/Testing_XAS_Analysis_code/Phenol//Results_dir_Phenol_geom_element_C_2019-11-16_16-50-48//GTE1_Phenol_geom_2019-11-16_16-51-35//freq
 Hartree-Fock type      HFTyp           .... RHF
 Total Charge           Charge          ....    0
 Multiplicity           Mult            ....    1
 Number of Electrons    NEL             ....   50
 Basis Dimension        Dim             ....  110
 Nuclear Repulsion      ENuc            ....    270.6301609146 Eh

Convergence Acceleration:
 DIIS                   CNVDIIS         .... on
   Start iteration      DIISMaxIt       ....    12
   Startup error        DIISStart       ....  0.200000
   # of expansion vecs  DIISMaxEq       ....     5
   Bias factor          DIISBfac        ....   1.050
   Max. coefficient     DIISMaxC        ....  10.000
 Newton-Raphson         CNVNR           .... off
 SOSCF                  CNVSOSCF        .... on
   Start iteration      SOSCFMaxIt      ....   150
   Startup grad/error   SOSCFStart      ....  0.003300
 Level Shifting         CNVShift        .... on
   Level shift para.    LevelShift      ....    0.2500
   Turn off err/grad.   ShiftErr        ....    0.0010
 Zerner damping         CNVZerner       .... off
 Static damping         CNVDamp         .... on
   Fraction old density DampFac         ....    0.7000
   Max. Damping (<1)    DampMax         ....    0.9800
   Min. Damping (>=0)   DampMin         ....    0.0000
   Turn off err/grad.   DampErr         ....    0.1000
 Fernandez-Rico         CNVRico         .... off

SCF Procedure:
 Maximum # iterations   MaxIter         ....   125
 SCF integral mode      SCFMode         .... Direct
   Integral package                     .... LIBINT
 Reset frequency        DirectResetFreq ....    20
 Integral Threshold     Thresh          ....  2.500e-11 Eh
 Primitive CutOff       TCut            ....  2.500e-12 Eh

Convergence Tolerance:
 Convergence Check Mode ConvCheckMode   .... Total+1el-Energy
 Convergence forced     ConvForced      .... 0
 Energy Change          TolE            ....  1.000e-08 Eh
 1-El. energy change                    ....  1.000e-05 Eh
 Orbital Gradient       TolG            ....  1.000e-05
 Orbital Rotation angle TolX            ....  1.000e-05
 DIIS Error             TolErr          ....  5.000e-07


Diagonalization of the overlap matrix:
Smallest eigenvalue                        ... 5.184e-04
Time for diagonalization                   ...    0.002 sec
Threshold for overlap eigenvalues          ... 1.000e-08
Number of eigenvalues below threshold      ... 0
Time for construction of square roots      ...    0.002 sec
Total time needed                          ...    0.004 sec

-------------------
DFT GRID GENERATION
-------------------

General Integration Accuracy     IntAcc      ...  4.340
Radial Grid Type                 RadialGrid  ... Gauss-Chebyshev
Angular Grid (max. acc.)         AngularGrid ... Lebedev-194
Angular grid pruning method      GridPruning ... 3 (G Style)
Weight generation scheme         WeightScheme... Becke
Basis function cutoff            BFCut       ...    1.0000e-11
Integration weight cutoff        WCut        ...    1.0000e-14
Grids for H and He will be reduced by one unit

# of grid points (after initial pruning)     ...  32182 (   0.0 sec)
# of grid points (after weights+screening)   ...  29916 (   0.0 sec)
nearest neighbour list constructed           ...    0.0 sec
Grid point re-assignment to atoms done       ...    0.0 sec
Grid point division into batches done        ...    0.0 sec
Reduced shell lists constructed in    0.2 sec

Total number of grid points                  ...    29916
Total number of batches                      ...      474
Average number of points per batch           ...       63
Average number of grid points per atom       ...     2301
Average number of shells per batch           ...    39.54 (73.22%)
Average number of basis functions per batch  ...    83.09 (75.54%)
Average number of large shells per batch     ...    31.69 (80.14%)
Average number of large basis fcns per batch ...    66.84 (80.44%)
Maximum spatial batch extension              ...  16.68, 17.81, 22.17 au
Average spatial batch extension              ...   3.07,  3.13,  3.97 au

Time for grid setup =    0.213 sec

------------------------------
INITIAL GUESS: MODEL POTENTIAL
------------------------------
Loading Hartree-Fock densities                     ... done
Calculating cut-offs                               ... done
Setting up the integral package                    ... done
Initializing the effective Hamiltonian             ... done
Starting the Coulomb interaction                   ... done (   0.0 sec)
Reading the grid                                   ... done
Mapping shells                                     ... done
Starting the XC term evaluation                    ... done (   0.2 sec)
  promolecular density results
     # of electrons  =     49.996507908
     EX              =    -40.821064931
     EC              =     -1.680328650
     EX+EC           =    -42.501393580
Transforming the Hamiltonian                       ... done (   0.0 sec)
Diagonalizing the Hamiltonian                      ... done (   0.0 sec)
Back transforming the eigenvectors                 ... done (   0.0 sec)
Now organizing SCF variables                       ... done
                      ------------------
                      INITIAL GUESS DONE (   0.5 sec)
                      ------------------
--------------
SCF ITERATIONS
--------------
               ***  Starting incremental Fock matrix formation  ***

                         ----------------------------
                         !        ITERATION     0   !
                         ----------------------------
   Total Energy        :    -307.091967603268 Eh
   Energy Change       :    -307.091967603268 Eh
   MAX-DP              :       0.065597138174
   RMS-DP              :       0.002799044428
   Actual Damping      :       0.7000
   Actual Level Shift  :       0.2500 Eh
   Int. Num. El.       :    49.99936901 (UP=   24.99968451 DN=   24.99968451)
   Exchange            :   -33.46000472
   Correlation         :    -2.00907059


                         ----------------------------
                         !        ITERATION     1   !
                         ----------------------------
   Total Energy        :    -307.174353291060 Eh
   Energy Change       :      -0.082385687793 Eh
   MAX-DP              :       0.039921766279
   RMS-DP              :       0.002019727504
   Actual Damping      :       0.7000
   Actual Level Shift  :       0.2500 Eh
   Int. Num. El.       :    49.99929147 (UP=   24.99964574 DN=   24.99964574)
   Exchange            :   -33.22649424
   Correlation         :    -1.99943380

                               ***Turning on DIIS***

                         ----------------------------
                         !        ITERATION     2   !
                         ----------------------------
   Total Energy        :    -307.209625002182 Eh
   Energy Change       :      -0.035271711122 Eh
   MAX-DP              :       0.063071298474
   RMS-DP              :       0.003380205978
   Actual Damping      :       0.0000
   Actual Level Shift  :       0.2500 Eh
   Int. Num. El.       :    49.99924292 (UP=   24.99962146 DN=   24.99962146)
   Exchange            :   -33.07254625
   Correlation         :    -1.99271676
   DIIS-Error          :       0.033934082182


                         ----------------------------
                         !        ITERATION     3   !
                         ----------------------------
   Total Energy        :    -307.260657099055 Eh
   Energy Change       :      -0.051032096873 Eh
   MAX-DP              :       0.025555687986
   RMS-DP              :       0.001381226370
   Actual Damping      :       0.0000
   Actual Level Shift  :       0.2500 Eh
   Int. Num. El.       :    49.99917802 (UP=   24.99958901 DN=   24.99958901)
   Exchange            :   -32.83904308
   Correlation         :    -1.98202024
   DIIS-Error          :       0.047834506217
   DIIS coefficients:
      0.57146   0.42854


                         ----------------------------
                         !        ITERATION     4   !
                         ----------------------------
   Total Energy        :    -307.273371298889 Eh
   Energy Change       :      -0.012714199834 Eh
   MAX-DP              :       0.011495658616
   RMS-DP              :       0.000450843205
   Actual Damping      :       0.0000
   Actual Level Shift  :       0.2500 Eh
   Int. Num. El.       :    49.99921242 (UP=   24.99960621 DN=   24.99960621)
   Exchange            :   -32.93241394
   Correlation         :    -1.98643141
   DIIS-Error          :       0.009088151917
   DIIS coefficients:
      0.17801  -0.01755   0.83954


                         ----------------------------
                         !        ITERATION     5   !
                         ----------------------------
   Total Energy        :    -307.274043583894 Eh
   Energy Change       :      -0.000672285005 Eh
   MAX-DP              :       0.002975842315
   RMS-DP              :       0.000143593657
   Actual Damping      :       0.0000
   Actual Level Shift  :       0.2500 Eh
   Int. Num. El.       :    49.99921940 (UP=   24.99960970 DN=   24.99960970)
   Exchange            :   -32.95233878
   Correlation         :    -1.98749865
   DIIS-Error          :       0.004973056048
   DIIS coefficients:
      0.06125  -0.02858   0.27784   0.68949

                      *** Initiating the SOSCF procedure ***
                           *** Shutting down DIIS ***
                      *** Re-Reading the Fockian *** 
                      *** Removing any level shift *** 

                         ----------------------------
                         !        ITERATION     6   !
                         ----------------------------
   Total Energy        :    -307.274096085824 Eh
   Energy Change       :      -0.000052501929 Eh
   MAX-DP              :       0.001218977287
   RMS-DP              :       0.000056783388
   Orbital gradient    :       0.000233113915
   Orbital Rotation    :       0.000233113915
   Actual Damping      :       0.0000
   Int. Num. El.       :    49.99922158 (UP=   24.99961079 DN=   24.99961079)
   Exchange            :   -32.95863881
   Correlation         :    -1.98773622

               *** Restarting incremental Fock matrix formation ***

                         ----------------------------
                         !        ITERATION     7   !
                         ----------------------------
   Total Energy        :    -307.274097500469 Eh
   Energy Change       :      -0.000001414645 Eh
   MAX-DP              :       0.000936279836
   RMS-DP              :       0.000035484322
   Orbital gradient    :       0.000276146163
   Orbital Rotation    :       0.001171410795
   Actual Damping      :       0.0000
   Int. Num. El.       :    49.99922137 (UP=   24.99961069 DN=   24.99961069)
   Exchange            :   -32.95869408
   Correlation         :    -1.98774961


                         ----------------------------
                         !        ITERATION     8   !
                         ----------------------------
   Total Energy        :    -307.274095546760 Eh
   Energy Change       :       0.000001953709 Eh
   MAX-DP              :       0.000638859456
   RMS-DP              :       0.000022825424
   Orbital gradient    :       0.000550793266
   Orbital Rotation    :       0.000801481429
   Actual Damping      :       0.0000
   Int. Num. El.       :    49.99922196 (UP=   24.99961098 DN=   24.99961098)
   Exchange            :   -32.95894151
   Correlation         :    -1.98775177


                         ----------------------------
                         !        ITERATION     9   !
                         ----------------------------
   Total Energy        :    -307.274098271263 Eh
   Energy Change       :      -0.000002724503 Eh
   MAX-DP              :       0.000113991733
   RMS-DP              :       0.000002959295
   Orbital gradient    :       0.000021326289
   Orbital Rotation    :       0.000076268718
   Actual Damping      :       0.0000
   Int. Num. El.       :    49.99922156 (UP=   24.99961078 DN=   24.99961078)
   Exchange            :   -32.95872756
   Correlation         :    -1.98774801


                         ----------------------------
                         !        ITERATION    10   !
                         ----------------------------
   Total Energy        :    -307.274098260772 Eh
   Energy Change       :       0.000000010491 Eh
   MAX-DP              :       0.000068393282
   RMS-DP              :       0.000001786891
   Orbital gradient    :       0.000029669935
   Orbital Rotation    :       0.000044271477
   Actual Damping      :       0.0000
   Int. Num. El.       :    49.99922158 (UP=   24.99961079 DN=   24.99961079)
   Exchange            :   -32.95875825
   Correlation         :    -1.98775005


                         ----------------------------
                         !        ITERATION    11   !
                         ----------------------------
   Total Energy        :    -307.274098279428 Eh
   Energy Change       :      -0.000000018656 Eh
   MAX-DP              :       0.000009570726
   RMS-DP              :       0.000000309044
   Orbital gradient    :       0.000002523760
   Orbital Rotation    :       0.000004626684
   Actual Damping      :       0.0000
   Int. Num. El.       :    49.99922158 (UP=   24.99961079 DN=   24.99961079)
   Exchange            :   -32.95875530
   Correlation         :    -1.98774941


                         ----------------------------
                         !        ITERATION    12   !
                         ----------------------------
   Total Energy        :    -307.274098278668 Eh
   Energy Change       :       0.000000000760 Eh
   MAX-DP              :       0.000005161299
   RMS-DP              :       0.000000181448
   Orbital gradient    :       0.000003442211
   Orbital Rotation    :       0.000003385278
   Actual Damping      :       0.0000
   Int. Num. El.       :    49.99922157 (UP=   24.99961078 DN=   24.99961078)
   Exchange            :   -32.95873759
   Correlation         :    -1.98774872

                  ***Gradient check signals convergence***
              ***Rediagonalizing the Fockian in SOSCF/NRSCF***

               *****************************************************
               *                     SUCCESS                       *
               *           SCF CONVERGED AFTER  13 CYCLES          *
               *****************************************************

Setting up the final grid:

General Integration Accuracy     IntAcc      ...  5.010
Radial Grid Type                 RadialGrid  ... Gauss-Chebyshev
Angular Grid (max. acc.)         AngularGrid ... Lebedev-434
Angular grid pruning method      GridPruning ... 3 (G Style)
Weight generation scheme         WeightScheme... Becke
Basis function cutoff            BFCut       ...    1.0000e-11
Integration weight cutoff        WCut        ...    1.0000e-14
Grids for H and He will be reduced by one unit

# of grid points (after initial pruning)     ... 115182 (   0.0 sec)
# of grid points (after weights+screening)   ... 106302 (   0.1 sec)
nearest neighbour list constructed           ...    0.0 sec
Grid point re-assignment to atoms done       ...    0.0 sec
Grid point division into batches done        ...    0.6 sec
Reduced shell lists constructed in    1.0 sec

Total number of grid points                  ...   106302
Total number of batches                      ...     1667
Average number of points per batch           ...       63
Average number of grid points per atom       ...     8177
Average number of shells per batch           ...    36.42 (67.44%)
Average number of basis functions per batch  ...    76.36 (69.42%)
Average number of large shells per batch     ...    28.83 (79.16%)
Average number of large basis fcns per batch ...    60.58 (79.33%)
Maximum spatial batch extension              ...  15.97, 16.34, 22.87 au
Average spatial batch extension              ...   2.13,  2.10,  2.36 au

Final grid set up in    1.2 sec
Final integration                            ... done (   0.7 sec)
Change in XC energy                          ...    -0.000166879
Integrated number of electrons               ...    49.999987829
Previous integrated no of electrons          ...    49.999221573

----------------
TOTAL SCF ENERGY
----------------

Total Energy       :         -307.27426516 Eh           -8361.35784 eV

Components:
Nuclear Repulsion  :          270.63016091 Eh            7364.22107 eV
Electronic Energy  :         -577.90442607 Eh          -15725.57891 eV
One Electron Energy:         -951.82261272 Eh          -25900.41004 eV
Two Electron Energy:          373.91818665 Eh           10174.83114 eV

Virial components:
Potential Energy   :         -612.74938249 Eh          -16673.75838 eV
Kinetic Energy     :          305.47511734 Eh            8312.40054 eV
Virial Ratio       :            2.00588967


DFT components:
N(Alpha)           :       24.999993914696 electrons
N(Beta)            :       24.999993914696 electrons
N(Total)           :       49.999987829392 electrons
E(X)               :      -32.958905932330 Eh       
E(C)               :       -1.987756413490 Eh       
E(XC)              :      -34.946662345820 Eh       
DFET-embed. en.    :        0.000000000000 Eh       

---------------
SCF CONVERGENCE
---------------

  Last Energy change         ...   -6.5364e-10  Tolerance :   1.0000e-08
  Last MAX-Density change    ...    9.6374e-07  Tolerance :   1.0000e-07
  Last RMS-Density change    ...    5.3820e-08  Tolerance :   5.0000e-09
  Last Orbital Gradient      ...    3.0525e-07  Tolerance :   1.0000e-05
  Last Orbital Rotation      ...    9.6985e-07  Tolerance :   1.0000e-05

             **** THE GBW FILE WAS UPDATED (/Users/lailaal-madhagi/Desktop/Testing_XAS_Analysis_code/Phenol//Results_dir_Phenol_geom_element_C_2019-11-16_16-50-48//GTE1_Phenol_geom_2019-11-16_16-51-35//freq.gbw) ****
             **** DENSITY FILE WAS UPDATED (/Users/lailaal-madhagi/Desktop/Testing_XAS_Analysis_code/Phenol//Results_dir_Phenol_geom_element_C_2019-11-16_16-50-48//GTE1_Phenol_geom_2019-11-16_16-51-35//freq.scfp.tmp) ****
             **** ENERGY FILE WAS UPDATED (/Users/lailaal-madhagi/Desktop/Testing_XAS_Analysis_code/Phenol//Results_dir_Phenol_geom_element_C_2019-11-16_16-50-48//GTE1_Phenol_geom_2019-11-16_16-51-35//freq.en.tmp) ****
----------------
ORBITAL ENERGIES
----------------

  NO   OCC          E(Eh)            E(eV) 
   0   2.0000     -19.167509      -521.5744 
   1   2.0000     -10.239753      -278.6379 
   2   2.0000     -10.181084      -277.0414 
   3   2.0000     -10.179178      -276.9895 
   4   2.0000     -10.178447      -276.9696 
   5   2.0000     -10.172354      -276.8038 
   6   2.0000     -10.171335      -276.7761 
   7   2.0000      -1.053258       -28.6606 
   8   2.0000      -0.840593       -22.8737 
   9   2.0000      -0.740839       -20.1592 
  10   2.0000      -0.729490       -19.8504 
  11   2.0000      -0.616892       -16.7865 
  12   2.0000      -0.594398       -16.1744 
  13   2.0000      -0.536739       -14.6054 
  14   2.0000      -0.491562       -13.3761 
  15   2.0000      -0.457709       -12.4549 
  16   2.0000      -0.431110       -11.7311 
  17   2.0000      -0.416738       -11.3400 
  18   2.0000      -0.399113       -10.8604 
  19   2.0000      -0.381874       -10.3913 
  20   2.0000      -0.354524        -9.6471 
  21   2.0000      -0.333312        -9.0699 
  22   2.0000      -0.326905        -8.8955 
  23   2.0000      -0.245253        -6.6737 
  24   2.0000      -0.215286        -5.8582 
  25   0.0000       0.004736         0.1289 
  26   0.0000       0.020486         0.5575 
  27   0.0000       0.072804         1.9811 
  28   0.0000       0.097065         2.6413 
  29   0.0000       0.148043         4.0284 
  30   0.0000       0.159966         4.3529 
  31   0.0000       0.173163         4.7120 
  32   0.0000       0.192118         5.2278 
  33   0.0000       0.192755         5.2451 
  34   0.0000       0.247392         6.7319 
  35   0.0000       0.303402         8.2560 
  36   0.0000       0.308847         8.4042 
  37   0.0000       0.347212         9.4481 
  38   0.0000       0.357770         9.7354 
  39   0.0000       0.486817        13.2470 
  40   0.0000       0.519980        14.1494 
  41   0.0000       0.528224        14.3737 
  42   0.0000       0.556260        15.1366 
  43   0.0000       0.573929        15.6174 
  44   0.0000       0.602493        16.3947 
  45   0.0000       0.603357        16.4182 
  46   0.0000       0.608434        16.5563 
  47   0.0000       0.619326        16.8527 
  48   0.0000       0.626082        17.0365 
  49   0.0000       0.629027        17.1167 
  50   0.0000       0.650173        17.6921 
  51   0.0000       0.668166        18.1817 
  52   0.0000       0.679104        18.4793 
  53   0.0000       0.760359        20.6904 
  54   0.0000       0.761526        20.7222 
  55   0.0000       0.841590        22.9008 
  56   0.0000       0.843001        22.9392 
  57   0.0000       0.857758        23.3408 
  58   0.0000       0.870780        23.6951 
  59   0.0000       0.900922        24.5153 
  60   0.0000       0.934110        25.4184 
  61   0.0000       0.948661        25.8144 
  62   0.0000       0.960082        26.1252 
  63   0.0000       0.977796        26.6072 
  64   0.0000       0.999231        27.1904 
  65   0.0000       1.052007        28.6266 
  66   0.0000       1.106118        30.0990 
  67   0.0000       1.123290        30.5663 
  68   0.0000       1.179538        32.0969 
  69   0.0000       1.209235        32.9050 
  70   0.0000       1.253965        34.1221 
  71   0.0000       1.277012        34.7493 
  72   0.0000       1.362948        37.0877 
  73   0.0000       1.383478        37.6463 
  74   0.0000       1.448590        39.4181 
  75   0.0000       1.449415        39.4406 
  76   0.0000       1.472377        40.0654 
  77   0.0000       1.497132        40.7390 
  78   0.0000       1.517797        41.3014 
  79   0.0000       1.736384        47.2494 
  80   0.0000       1.737965        47.2924 
  81   0.0000       1.776204        48.3330 
  82   0.0000       1.804725        49.1091 
  83   0.0000       1.861493        50.6538 
  84   0.0000       1.919034        52.2196 
  85   0.0000       1.933449        52.6118 
  86   0.0000       1.975725        53.7622 
  87   0.0000       1.980706        53.8978 
  88   0.0000       1.981639        53.9231 
  89   0.0000       2.077485        56.5313 
  90   0.0000       2.122801        57.7644 
  91   0.0000       2.142316        58.2954 
  92   0.0000       2.152028        58.5597 
  93   0.0000       2.250943        61.2513 
  94   0.0000       2.258796        61.4650 
  95   0.0000       2.313199        62.9454 
  96   0.0000       2.314938        62.9927 
  97   0.0000       2.409353        65.5618 
  98   0.0000       2.498900        67.9985 
  99   0.0000       2.538472        69.0753 
 100   0.0000       2.573491        70.0282 
 101   0.0000       2.653260        72.1989 
 102   0.0000       2.661252        72.4163 
 103   0.0000       2.724045        74.1250 
 104   0.0000       2.730453        74.2994 
 105   0.0000       2.748964        74.8031 
 106   0.0000       2.838856        77.2492 
 107   0.0000       2.955181        80.4146 
 108   0.0000       3.103257        84.4439 
 109   0.0000       3.420679        93.0814 
------------------
MOLECULAR ORBITALS
------------------
                      0         1         2         3         4         5   
                 -19.16751 -10.23975 -10.18108 -10.17918 -10.17845 -10.17235
                   2.00000   2.00000   2.00000   2.00000   2.00000   2.00000
                  --------  --------  --------  --------  --------  --------
  0C   1s        -0.000073 -0.002994  0.000936 -0.032456  0.000314  0.994577
  0C   2s        -0.000673  0.002180  0.000558  0.001004 -0.000053  0.036662
  0C   1pz        0.000000  0.000007  0.000001 -0.000003 -0.000001  0.000004
  0C   1px       -0.000041  0.000968  0.000173  0.000197 -0.000209  0.000925
  0C   1py        0.000079  0.000589 -0.000052 -0.001343 -0.000015 -0.000333
  0C   3s         0.009445 -0.017474 -0.003558 -0.012569 -0.004335 -0.033618
  0C   2pz        0.000022 -0.000039 -0.000008 -0.000010 -0.000006 -0.000027
  0C   2px        0.007285 -0.010326 -0.002346 -0.004404 -0.002184 -0.007062
  0C   2py       -0.004516  0.003638  0.001252  0.003798  0.001546  0.002487
  0C   1dz2      -0.000171 -0.000474  0.000094 -0.000593 -0.000069 -0.000638
  0C   1dxz       0.000002  0.000007 -0.000001 -0.000001  0.000000  0.000004
  0C   1dyz      -0.000001  0.000008 -0.000001  0.000005  0.000000  0.000006
  0C   1dx2y2     0.000310  0.000027  0.000022 -0.001117 -0.000052 -0.000371
  0C   1dxy      -0.000177  0.001057 -0.000004 -0.000229 -0.000006  0.000281
  1C   1s         0.000131 -0.995132  0.000243  0.000024 -0.003517 -0.003198
  1C   2s         0.001307 -0.037270  0.000254  0.000117 -0.002279 -0.002276
  1C   1pz        0.000000 -0.000002  0.000001 -0.000001 -0.000005  0.000008
  1C   1px       -0.000071  0.000181  0.000219 -0.000128 -0.001242  0.001065
  1C   1py        0.000215 -0.001035 -0.000166 -0.000179  0.000472  0.000796
  1C   3s         0.000425  0.030542  0.004537  0.005300  0.013752  0.013755
  1C   2pz        0.000051 -0.000039 -0.000001 -0.000010  0.000008 -0.000029
  1C   2px       -0.001190  0.003811  0.000696 -0.000783  0.004561 -0.002436
  1C   2py        0.018788 -0.019126 -0.001436 -0.001935 -0.004748 -0.005767
  1C   1dz2      -0.000208  0.001309 -0.000040  0.000002  0.000651  0.000646
  1C   1dxz       0.000002 -0.000006 -0.000000 -0.000000 -0.000008 -0.000011
  1C   1dyz       0.000001 -0.000007 -0.000001  0.000001  0.000003 -0.000007
  1C   1dx2y2    -0.000017  0.000760  0.000017 -0.000085 -0.000909 -0.000423
  1C   1dxy       0.000064  0.000393 -0.000165  0.000087  0.000719 -0.001080
  2C   1s         0.000014  0.000004 -0.001847 -0.994174  0.011495 -0.032447
  2C   2s        -0.000028  0.000049  0.000030 -0.036317 -0.000104 -0.003344
  2C   1pz       -0.000001  0.000002  0.000001 -0.000005 -0.000001 -0.000004
  2C   1px       -0.000088  0.000120  0.000277 -0.000630 -0.000071  0.000118
  2C   1py       -0.000280  0.000382 -0.000008 -0.000541 -0.000100 -0.001368
  2C   3s        -0.007203  0.009696  0.004787  0.031880  0.004625  0.014258
  2C   2pz       -0.000015  0.000024  0.000013  0.000040  0.000018  0.000034
  2C   2px       -0.001730  0.002815  0.001849  0.005603  0.002317  0.003515
  2C   2py       -0.002153  0.003243  0.001464  0.004138  0.002041  0.005560
  2C   1dz2      -0.000025  0.000072  0.000049  0.000580 -0.000099  0.000636
  2C   1dxz       0.000000 -0.000001 -0.000000 -0.000003  0.000001  0.000001
  2C   1dyz       0.000000 -0.000000 -0.000001 -0.000001  0.000000 -0.000005
  2C   1dx2y2     0.000016 -0.000066  0.000077  0.000117  0.000007  0.001092
  2C   1dxy      -0.000012 -0.000009 -0.000032  0.000419 -0.000023  0.000421
  3C   1s        -0.000047  0.000242 -0.022274 -0.026920 -0.002261 -0.007281
  3C   2s        -0.000412  0.000791  0.001314  0.001125  0.000083 -0.000183
  3C   1pz       -0.000000  0.000001  0.000008 -0.000004 -0.000001  0.000000
  3C   1px        0.000021 -0.000034  0.001020 -0.001192 -0.000019  0.000127
  3C   1py       -0.000137  0.000223  0.000845  0.000526 -0.000148 -0.000164
  3C   3s         0.003712 -0.006902 -0.011978 -0.012095 -0.006288 -0.005703
  3C   2pz        0.000005 -0.000012 -0.000025 -0.000001 -0.000010 -0.000006
  3C   2px       -0.000769  0.000465 -0.001610  0.003149 -0.000057  0.000629
  3C   2py        0.002834 -0.004817 -0.005783 -0.005277 -0.003351 -0.003039
  3C   1dz2      -0.000083  0.000155 -0.000595 -0.000595 -0.000093 -0.000064
  3C   1dxz       0.000001 -0.000002  0.000010  0.000007  0.000001  0.000001
  3C   1dyz       0.000000 -0.000001  0.000007 -0.000003  0.000000  0.000000
  3C   1dx2y2     0.000049 -0.000060  0.000377  0.000873  0.000063  0.000031
  3C   1dxy       0.000003 -0.000020  0.001076 -0.000742  0.000035  0.000045
  4C   1s         0.000018  0.000008 -0.991493  0.001455 -0.082150  0.001043
  4C   2s         0.000014  0.000052 -0.036117  0.000118 -0.005143 -0.000482
  4C   1pz        0.000000  0.000000  0.000003 -0.000002 -0.000003  0.000000
  4C   1px        0.000179 -0.000208  0.000731 -0.000269  0.000294  0.000115
  4C   1py       -0.000236  0.000352 -0.000304 -0.000103 -0.001335 -0.000080
  4C   3s        -0.007847  0.009516  0.031170  0.004983  0.015632  0.004657
  4C   2pz        0.000001 -0.000013 -0.000023 -0.000008 -0.000012 -0.000010
  4C   2px        0.001770 -0.003943 -0.006200 -0.002247 -0.005231 -0.002872
  4C   2py       -0.002627  0.002019  0.002346  0.001078  0.004367  0.001212
  4C   1dz2      -0.000017  0.000070  0.000552  0.000048  0.000659 -0.000099
  4C   1dxz       0.000000 -0.000001 -0.000004  0.000000  0.000001  0.000001
  4C   1dyz       0.000000 -0.000000 -0.000005 -0.000000 -0.000006  0.000001
  4C   1dx2y2     0.000019 -0.000062  0.000241  0.000065  0.001157 -0.000003
  4C   1dxy       0.000037 -0.000033 -0.000322  0.000074  0.000166  0.000025
  5C   1s        -0.000056 -0.003322 -0.081992  0.011701  0.991676  0.000134
  5C   2s        -0.000556  0.002213 -0.000847  0.000936  0.036641 -0.000039
  5C   1pz        0.000000 -0.000005 -0.000003 -0.000001 -0.000005  0.000001
  5C   1px       -0.000016 -0.001146  0.000198 -0.000151 -0.000719  0.000214
  5C   1py        0.000128  0.000314 -0.001304 -0.000095 -0.000545  0.000027
  5C   3s         0.008463 -0.018634 -0.010640 -0.003846 -0.034336 -0.004725
  5C   2pz       -0.000046  0.000066  0.000028  0.000016  0.000043  0.000015
  5C   2px       -0.004554  0.009983  0.002755  0.001916  0.006346  0.002004
  5C   2py       -0.007935  0.005472  0.004680  0.002036  0.004078  0.001782
  5C   1dz2      -0.000128 -0.000496 -0.000562  0.000085 -0.000654 -0.000072
  5C   1dxz       0.000003  0.000004 -0.000002 -0.000001  0.000003  0.000000
  5C   1dyz       0.000002 -0.000004  0.000004 -0.000000  0.000002  0.000000
  5C   1dx2y2     0.000185  0.000604 -0.001074  0.000014 -0.000202 -0.000063
  5C   1dxy       0.000369 -0.000888 -0.000356  0.000005 -0.000454 -0.000015
  6O   1s         0.995201 -0.000205  0.000010  0.000009 -0.000003 -0.000002
  6O   2s         0.030685 -0.002132  0.000162  0.000153 -0.000193 -0.000187
  6O   1pz        0.000004 -0.000000 -0.000000 -0.000000  0.000000  0.000000
  6O   1px        0.001436  0.000138  0.000016 -0.000037 -0.000010 -0.000001
  6O   1py       -0.001120 -0.000321 -0.000042 -0.000039  0.000082  0.000099
  6O   3s        -0.025727  0.010152 -0.000378 -0.000394  0.000548  0.000444
  6O   2pz        0.000004 -0.000015  0.000000  0.000003 -0.000002  0.000001
  6O   2px       -0.003251  0.000700 -0.000169  0.000237 -0.000358  0.000132
  6O   2py        0.006596 -0.005927  0.000415  0.000457 -0.000044 -0.000033
  6O   1dz2       0.000475 -0.001323  0.000057  0.000032 -0.000085 -0.000084
  6O   1dxz      -0.000001 -0.000000 -0.000000  0.000000  0.000001  0.000001
  6O   1dyz      -0.000003  0.000010 -0.000000 -0.000000  0.000001  0.000000
  6O   1dx2y2     0.000485 -0.001917  0.000048  0.000072  0.000068  0.000112
  6O   1dxy       0.000143 -0.000656  0.000029 -0.000004  0.000108  0.000039
  7H   1s         0.000829 -0.000242  0.000060 -0.000022 -0.000040 -0.000033
  7H   2s         0.001474  0.000937 -0.000199 -0.000091  0.000116  0.000288
  8H   1s         0.000325 -0.000135 -0.000092  0.000196 -0.000088 -0.001321
  8H   2s         0.002715 -0.002988 -0.000807 -0.001207 -0.000374  0.002728
  9H   1s         0.000008  0.000048  0.000053  0.001348  0.000068 -0.000082
  9H   2s        -0.000207  0.000432  0.000266 -0.002753  0.000886  0.001150
 10H   1s         0.000119 -0.000160  0.000165  0.000169 -0.000052 -0.000051
 10H   2s         0.000827 -0.001373 -0.001254 -0.001293 -0.000543 -0.000518
 11H   1s         0.000049  0.000071  0.001349  0.000048 -0.000010  0.000091
 11H   2s        -0.000157  0.000531 -0.002819  0.000316  0.001016  0.000879
 12H   1s         0.000473 -0.000088  0.000261 -0.000119 -0.001281 -0.000065
 12H   2s         0.002476 -0.003221 -0.001284 -0.000753  0.002747 -0.000422
                      6         7         8         9        10        11   
                 -10.17133  -1.05326  -0.84059  -0.74084  -0.72949  -0.61689
                   2.00000   2.00000   2.00000   2.00000   2.00000   2.00000
                  --------  --------  --------  --------  --------  --------
  0C   1s         0.006459  0.015835 -0.090740 -0.120700  0.054092  0.020042
  0C   2s         0.000342 -0.031119  0.171085  0.235134 -0.105369 -0.041913
  0C   1pz       -0.000000 -0.000125  0.000188 -0.000079 -0.000522 -0.000684
  0C   1px       -0.000114 -0.014394  0.055913  0.008381 -0.051307 -0.033833
  0C   1py        0.000139 -0.017823 -0.028458 -0.039892 -0.089159 -0.170858
  0C   3s        -0.006621  0.004706  0.108009  0.175752 -0.086175 -0.032736
  0C   2pz       -0.000010 -0.000023  0.000009 -0.000051 -0.000058 -0.000175
  0C   2px       -0.003258  0.014212  0.003176 -0.011024 -0.001529  0.002947
  0C   2py        0.001794 -0.030389 -0.001842  0.001442 -0.016186 -0.062184
  0C   1dz2      -0.000066  0.002395 -0.008616 -0.009156  0.003860  0.001080
  0C   1dxz       0.000001 -0.000024  0.000071  0.000054 -0.000085 -0.000046
  0C   1dyz       0.000001 -0.000034  0.000040  0.000047 -0.000030 -0.000016
  0C   1dx2y2    -0.000008  0.001387  0.000264 -0.003353 -0.006804 -0.004554
  0C   1dxy       0.000068 -0.003532 -0.000962 -0.002272 -0.006115 -0.004852
  1C   1s         0.000066  0.081276 -0.077236 -0.016427  0.115215  0.044989
  1C   2s        -0.000657 -0.151423  0.150409  0.033486 -0.234139 -0.095978
  1C   1pz        0.000000 -0.000281 -0.000232 -0.000726  0.000126  0.000816
  1C   1px       -0.000008  0.013344  0.011446 -0.137014 -0.015253  0.205566
  1C   1py        0.000105 -0.114072 -0.094847 -0.018308  0.066400 -0.062351
  1C   3s         0.005572 -0.041719  0.094099  0.028716 -0.164702 -0.074905
  1C   2pz       -0.000009  0.000091 -0.000041 -0.000088 -0.000015  0.000048
  1C   2px        0.000707 -0.017880  0.008711 -0.015014 -0.013674  0.020175
  1C   2py       -0.003959  0.058716 -0.027836 -0.005240  0.017098 -0.016658
  1C   1dz2      -0.000065  0.011835 -0.005873 -0.001217  0.006651  0.003055
  1C   1dxz       0.000001 -0.000006  0.000082  0.000025 -0.000095  0.000013
  1C   1dyz       0.000000 -0.000095  0.000017  0.000055 -0.000004 -0.000015
  1C   1dx2y2     0.000042  0.016857  0.006066 -0.002293 -0.008636  0.005682
  1C   1dxy       0.000011  0.003828  0.000868  0.008515  0.001082  0.003740
  2C   1s        -0.027330  0.002973 -0.094825 -0.100835 -0.075665 -0.090502
  2C   2s        -0.003151 -0.006087  0.179832  0.197399  0.147211  0.182383
  2C   1pz       -0.000005 -0.000023  0.000347  0.000068  0.000106 -0.000267
  2C   1px       -0.001237 -0.001843  0.048087 -0.026049  0.065376 -0.055231
  2C   1py        0.000455 -0.004611  0.036857  0.064495 -0.070161  0.001262
  2C   3s         0.015030 -0.029017  0.116019  0.145873  0.117173  0.133562
  2C   2pz        0.000038 -0.000019  0.000050 -0.000046 -0.000006 -0.000219
  2C   2px        0.006479  0.002190  0.007127 -0.012877  0.006618 -0.030446
  2C   2py        0.002134 -0.009610  0.004675  0.005072 -0.012843 -0.023649
  2C   1dz2       0.000635  0.000334 -0.009199 -0.007676 -0.005759 -0.004541
  2C   1dxz      -0.000006 -0.000001  0.000079  0.000039  0.000080  0.000049
  2C   1dyz       0.000003 -0.000003  0.000048  0.000063 -0.000006  0.000047
  2C   1dx2y2    -0.000721  0.000388  0.000186 -0.005840  0.007941 -0.000586
  2C   1dxy       0.000903 -0.000064  0.000107  0.000922 -0.002523  0.004377
  3C   1s         0.994501  0.001591 -0.094674  0.011680 -0.128601  0.050954
  3C   2s         0.036614 -0.004309  0.178745 -0.022655  0.250829 -0.102912
  3C   1pz        0.000002 -0.000006  0.000152 -0.000554 -0.000021 -0.000683
  3C   1px       -0.000111  0.000512 -0.007102 -0.103304 -0.015563 -0.144769
  3C   1py        0.000926 -0.002731  0.061522 -0.015975  0.018236  0.008347
  3C   3s        -0.033879  0.002740  0.110647 -0.017578  0.186657 -0.079356
  3C   2pz       -0.000019  0.000019  0.000013 -0.000094 -0.000041 -0.000098
  3C   2px        0.001014 -0.001853 -0.001080 -0.018793 -0.000337 -0.030068
  3C   2py       -0.007897  0.009294  0.006367 -0.000730 -0.013049  0.016538
  3C   1dz2      -0.000635  0.000062 -0.009207  0.000883 -0.009561  0.002560
  3C   1dxz       0.000008  0.000000  0.000077 -0.000024  0.000083 -0.000024
  3C   1dyz       0.000003 -0.000000  0.000049 -0.000057  0.000043 -0.000056
  3C   1dx2y2     0.000444  0.000118 -0.000271  0.002391  0.000942  0.003595
  3C   1dxy       0.000125  0.000072 -0.000006 -0.009290 -0.000983 -0.006478
  4C   1s        -0.022519  0.003243 -0.096873  0.113714 -0.048488  0.059318
  4C   2s        -0.002982 -0.005656  0.183681 -0.221785  0.094432 -0.122222
  4C   1pz        0.000008  0.000000 -0.000202 -0.000171 -0.000536  0.000516
  4C   1px        0.001087  0.002852 -0.056224 -0.001607 -0.047209  0.020920
  4C   1py        0.000782 -0.004510  0.024028 -0.053794 -0.100341  0.136014
  4C   3s         0.014808 -0.036590  0.120221 -0.172089  0.073894 -0.072464
  4C   2pz       -0.000033 -0.000029 -0.000034 -0.000090 -0.000067  0.000127
  4C   2px       -0.006846  0.003442 -0.009053 -0.011484 -0.003039 -0.011319
  4C   2py        0.000233 -0.014946  0.003011 -0.010618 -0.017047  0.059546
  4C   1dz2       0.000633  0.000554 -0.009395  0.008813 -0.003652  0.002612
  4C   1dxz      -0.000010 -0.000001  0.000080 -0.000049  0.000084 -0.000063
  4C   1dyz      -0.000008 -0.000003  0.000049 -0.000045  0.000033 -0.000008
  4C   1dx2y2    -0.000174  0.000569  0.000177  0.003579  0.006556 -0.006535
  4C   1dxy      -0.001146  0.000353 -0.000070  0.002495  0.006985 -0.003003
  5C   1s         0.000770  0.017059 -0.092801  0.108797  0.080126 -0.087040
  5C   2s         0.000126 -0.034546  0.175320 -0.211374 -0.156734  0.173493
  5C   1pz        0.000001  0.000049 -0.000352  0.000049  0.000150  0.000281
  5C   1px        0.000076  0.018894 -0.044836 -0.024118  0.065233  0.016047
  5C   1py        0.000175 -0.014278 -0.043617  0.055082 -0.055618  0.066325
  5C   3s        -0.006569  0.023283  0.105744 -0.161028 -0.111717  0.138886
  5C   2pz        0.000021 -0.000161 -0.000002 -0.000060 -0.000066  0.000245
  5C   2px        0.002774 -0.010103  0.001558 -0.007360 -0.004399  0.010278
  5C   2py        0.002360 -0.037032 -0.002757 -0.008655 -0.015006  0.065016
  5C   1dz2      -0.000058  0.002384 -0.008744  0.008392  0.005591 -0.004700
  5C   1dxz       0.000000 -0.000014  0.000075 -0.000047 -0.000079  0.000070
  5C   1dyz      -0.000000  0.000008  0.000053 -0.000066 -0.000001  0.000035
  5C   1dx2y2     0.000031 -0.000947 -0.000460  0.005561 -0.007345  0.003397
  5C   1dxy      -0.000049  0.003578  0.001012 -0.000984  0.001374  0.004247
  6O   1s        -0.000012  0.203029  0.037626  0.000904 -0.044763  0.001269
  6O   2s        -0.000199 -0.441497 -0.087780 -0.001930  0.104343 -0.005086
  6O   1pz        0.000000 -0.000305 -0.000237 -0.000293  0.000576  0.001335
  6O   1px        0.000008 -0.101309 -0.026943 -0.039958  0.047898  0.151561
  6O   1py        0.000016  0.061425 -0.035202 -0.032228  0.113586  0.197075
  6O   3s         0.001254 -0.473006 -0.085835 -0.003141  0.122635  0.001396
  6O   2pz       -0.000001 -0.000124 -0.000132 -0.000133  0.000291  0.000676
  6O   2px        0.000017 -0.051885 -0.013109 -0.019118  0.024324  0.082133
  6O   2py       -0.000359  0.042132 -0.022327 -0.013075  0.057257  0.091392
  6O   1dz2       0.000006  0.014934  0.000899  0.000670 -0.000427 -0.002940
  6O   1dxz      -0.000000 -0.000144 -0.000042 -0.000022  0.000071  0.000112
  6O   1dyz      -0.000000 -0.000099 -0.000012  0.000013  0.000020 -0.000008
  6O   1dx2y2    -0.000001 -0.000935 -0.004408 -0.004005  0.008382  0.015160
  6O   1dxy      -0.000002 -0.004825 -0.004184  0.000927  0.008914  0.004661
  7H   1s        -0.000024 -0.123328 -0.039452 -0.025108  0.073709  0.121107
  7H   2s         0.000161  0.002029 -0.002345 -0.007963  0.016205  0.054188
  8H   1s        -0.000108 -0.004660  0.032726  0.070515 -0.031385 -0.031048
  8H   2s        -0.000619  0.007190  0.001473  0.011206 -0.002644 -0.006504
  9H   1s        -0.000100 -0.000077  0.036078  0.059597  0.046826  0.089268
  9H   2s         0.001189  0.001731  0.005176  0.011262  0.011046  0.029240
 10H   1s        -0.001355  0.000283  0.035525 -0.006747  0.078017 -0.051734
 10H   2s         0.002538  0.003687  0.004623 -0.000953  0.015064 -0.017095
 11H   1s        -0.000100 -0.000218  0.037264 -0.068008  0.030031 -0.060708
 11H   2s         0.001212  0.000519  0.005698 -0.013708  0.006631 -0.018071
 12H   1s        -0.000088 -0.005358  0.034636 -0.067444 -0.047302  0.094527
 12H   2s        -0.000639  0.005180  0.001071 -0.014813 -0.005137  0.035781
                     12        13        14        15        16        17   
                  -0.59440  -0.53674  -0.49156  -0.45771  -0.43111  -0.41674
                   2.00000   2.00000   2.00000   2.00000   2.00000   2.00000
                  --------  --------  --------  --------  --------  --------
  0C   1s        -0.091891  0.023714 -0.056695 -0.018026 -0.018271  0.015322
  0C   2s         0.186277 -0.046459  0.114108  0.034204  0.036336 -0.033330
  0C   1pz       -0.000533 -0.000730 -0.000432  0.000658 -0.001359 -0.000863
  0C   1px       -0.084139 -0.137240 -0.145606  0.018753 -0.191812 -0.249829
  0C   1py       -0.040230 -0.019568  0.092661  0.186581 -0.140011  0.118173
  0C   3s         0.134864 -0.028794  0.164141  0.059943  0.028589 -0.077102
  0C   2pz       -0.000242 -0.000146 -0.000230  0.000356 -0.000334 -0.000444
  0C   2px       -0.053808 -0.032821 -0.048562  0.025986 -0.053232 -0.091874
  0C   2py        0.007617  0.005363  0.002625  0.075374 -0.024631  0.001899
  0C   1dz2      -0.004282  0.000125 -0.002932 -0.001366 -0.001363 -0.001924
  0C   1dxz       0.000021 -0.000037  0.000056  0.000029 -0.000044  0.000054
  0C   1dyz      -0.000008  0.000027 -0.000026 -0.000025 -0.000060 -0.000029
  0C   1dx2y2     0.000568 -0.007889  0.008356  0.005585 -0.002058  0.009238
  0C   1dxy      -0.005903  0.000788 -0.003177 -0.003193 -0.014978 -0.002265
  1C   1s         0.076761  0.018085 -0.004176  0.039767  0.050568  0.004549
  1C   2s        -0.163922 -0.037091  0.014067 -0.085036 -0.110712 -0.010458
  1C   1pz       -0.000797  0.000523  0.000160 -0.001280  0.001001  0.000602
  1C   1px       -0.121113 -0.044871  0.059098 -0.198245  0.076181  0.118929
  1C   1py       -0.066807  0.243754 -0.041739 -0.102468  0.204606  0.006480
  1C   3s        -0.098824 -0.022908 -0.018613 -0.086314 -0.167458  0.000703
  1C   2pz       -0.000236  0.000200  0.000079 -0.000216  0.000185 -0.000148
  1C   2px       -0.031187  0.006075 -0.001057 -0.047935  0.009931 -0.034521
  1C   2py       -0.027947  0.055763  0.028174  0.005714  0.043703  0.007076
  1C   1dz2       0.002932 -0.003312  0.001740  0.001711 -0.002489 -0.000185
  1C   1dxz       0.000003 -0.000040  0.000099  0.000027 -0.000018 -0.000018
  1C   1dyz       0.000020 -0.000025  0.000008 -0.000044  0.000008 -0.000081
  1C   1dx2y2     0.000832 -0.006086  0.015187  0.009372 -0.005222  0.004674
  1C   1dxy       0.007788 -0.012535  0.013024 -0.001305 -0.004418 -0.013800
  2C   1s         0.012825 -0.054261  0.049038  0.026040  0.011714  0.022462
  2C   2s        -0.027388  0.114314 -0.098836 -0.053279 -0.021801 -0.049072
  2C   1pz       -0.000074 -0.000975 -0.000401  0.000559  0.001168 -0.001441
  2C   1px       -0.113217 -0.132349 -0.078523  0.180224  0.111712 -0.188873
  2C   1py        0.158049 -0.107441 -0.005399 -0.106566  0.203881 -0.170016
  2C   3s        -0.012978  0.101812 -0.115413 -0.068194 -0.028290 -0.091283
  2C   2pz        0.000033 -0.000458 -0.000116  0.000151  0.000335 -0.000450
  2C   2px       -0.024903 -0.068216 -0.010812  0.046107  0.015399 -0.069337
  2C   2py        0.050852 -0.042168 -0.020634 -0.024333  0.085706 -0.037552
  2C   1dz2       0.000474 -0.002607  0.001263  0.001251  0.002068 -0.001773
  2C   1dxz      -0.000040  0.000039 -0.000059 -0.000028 -0.000041  0.000063
  2C   1dyz       0.000029  0.000021 -0.000036 -0.000050 -0.000074  0.000006
  2C   1dx2y2    -0.008205  0.001831 -0.004434  0.001411  0.002384  0.007344
  2C   1dxy       0.001431  0.002620 -0.008672 -0.007914 -0.011502  0.003878
  3C   1s         0.079223  0.024935 -0.046475 -0.036109 -0.035000 -0.002219
  3C   2s        -0.160798 -0.050415  0.095049  0.072543  0.071855  0.003747
  3C   1pz        0.000718 -0.000523 -0.000155 -0.001072  0.001042  0.000427
  3C   1px        0.107500 -0.061364  0.114291 -0.176549  0.089389  0.094699
  3C   1py        0.063322 -0.073421 -0.235207 -0.068927  0.198563 -0.011832
  3C   3s        -0.121572 -0.016850  0.103153  0.094633  0.125502  0.009159
  3C   2pz        0.000249 -0.000137 -0.000021 -0.000394  0.000394 -0.000080
  3C   2px        0.023277 -0.022634  0.047378 -0.068520  0.036549 -0.013088
  3C   2py        0.044676 -0.008097 -0.083198 -0.019531  0.070122 -0.004348
  3C   1dz2       0.003645  0.000355 -0.002880 -0.001353  0.000531 -0.000329
  3C   1dxz       0.000002  0.000026 -0.000014 -0.000041 -0.000016  0.000015
  3C   1dyz       0.000001 -0.000023  0.000034  0.000005  0.000011  0.000074
  3C   1dx2y2     0.002970  0.006189 -0.007417 -0.007596 -0.002976 -0.004799
  3C   1dxy       0.006021 -0.000462 -0.000769 -0.005140  0.000986  0.011745
  4C   1s        -0.089422 -0.019680  0.029921  0.040877  0.011772 -0.015887
  4C   2s         0.182221  0.042694 -0.061321 -0.082321 -0.022321  0.037017
  4C   1pz        0.000611  0.000933 -0.000149  0.000436 -0.001344 -0.000697
  4C   1px        0.094091  0.158943  0.068049 -0.042589 -0.243615 -0.224930
  4C   1py        0.049792  0.051075 -0.158484  0.211722 -0.051320  0.132946
  4C   3s         0.132595  0.038262 -0.054625 -0.126463 -0.021976  0.049724
  4C   2pz        0.000262  0.000320  0.000001  0.000066 -0.000217 -0.000316
  4C   2px        0.054655  0.059451  0.025307 -0.017707 -0.056020 -0.071424
  4C   2py       -0.001652  0.009030 -0.041417  0.050111  0.018945  0.011311
  4C   1dz2      -0.004198 -0.001190  0.000004  0.002083  0.002124  0.002207
  4C   1dxz       0.000025 -0.000001 -0.000000 -0.000042  0.000016 -0.000070
  4C   1dyz      -0.000010  0.000007  0.000037  0.000050  0.000060  0.000023
  4C   1dx2y2     0.001407 -0.001665 -0.003416 -0.009297 -0.001545 -0.010725
  4C   1dxy      -0.005771 -0.000990  0.005455  0.006768  0.013601  0.000374
  5C   1s         0.011422 -0.026885 -0.015015 -0.046124 -0.015882 -0.026198
  5C   2s        -0.023197  0.058149  0.027965  0.093672  0.029207  0.055453
  5C   1pz        0.000106  0.000988  0.000846  0.000706  0.000847 -0.001487
  5C   1px        0.120183  0.191311  0.041158  0.197553  0.109456 -0.192649
  5C   1py       -0.158489  0.016211  0.212034 -0.086638  0.100836 -0.178268
  5C   3s        -0.016616  0.048278  0.066595  0.122887  0.039771  0.126149
  5C   2pz       -0.000027  0.000375  0.000210  0.000137  0.000226 -0.000529
  5C   2px        0.027715  0.072075 -0.004595  0.068028 -0.000849 -0.079540
  5C   2py       -0.053664  0.008093  0.078202 -0.064664  0.075559 -0.047147
  5C   1dz2       0.000428 -0.001607 -0.001924 -0.001943 -0.002033  0.001683
  5C   1dxz      -0.000037 -0.000012  0.000061  0.000056  0.000024 -0.000065
  5C   1dyz       0.000031  0.000026  0.000004  0.000081  0.000085 -0.000014
  5C   1dx2y2    -0.007928 -0.005368  0.007110 -0.000603 -0.005762 -0.007001
  5C   1dxy       0.001787  0.000198  0.003066  0.014018  0.011647 -0.005464
  6O   1s        -0.027044 -0.007219  0.030651 -0.031785 -0.002509 -0.006593
  6O   2s         0.062502  0.021671 -0.071893  0.075079  0.006729  0.015299
  6O   1pz        0.000630 -0.001563  0.001051 -0.000424 -0.000519 -0.000095
  6O   1px        0.015668 -0.149610  0.149456 -0.182675 -0.013211 -0.032892
  6O   1py        0.183554 -0.276805  0.108022  0.154226 -0.153897  0.020895
  6O   3s         0.087857  0.016401 -0.126372  0.098281  0.021335  0.021868
  6O   2pz        0.000312 -0.000824  0.000581 -0.000299 -0.000280 -0.000009
  6O   2px        0.005240 -0.084731  0.085966 -0.122880 -0.001024 -0.015475
  6O   2py        0.095264 -0.136765  0.055037  0.099563 -0.093265  0.021412
  6O   1dz2       0.000725  0.003794 -0.004586  0.005488  0.000509  0.000899
  6O   1dxz       0.000070 -0.000133  0.000093 -0.000023 -0.000042 -0.000007
  6O   1dyz       0.000048 -0.000042 -0.000000  0.000074 -0.000053 -0.000007
  6O   1dx2y2     0.006593 -0.013039  0.010393 -0.006077 -0.001148  0.000332
  6O   1dxy       0.014773 -0.012568  0.001455  0.017307 -0.010902 -0.000287
  7H   1s         0.076320 -0.143935  0.091843 -0.014224 -0.052013 -0.013319
  7H   2s         0.034487 -0.075836  0.061813  0.003235 -0.032585 -0.017482
  8H   1s         0.101485  0.035692  0.144750  0.053430  0.094515  0.154466
  8H   2s         0.035087  0.025876  0.086010  0.047457  0.075862  0.141201
  9H   1s        -0.013111  0.131617 -0.014738 -0.073343 -0.141943  0.132308
  9H   2s        -0.002770  0.064781 -0.002643 -0.052156 -0.117732  0.125223
 10H   1s        -0.085939  0.008189  0.176963  0.064703 -0.071371  0.017823
 10H   2s        -0.029683  0.010517  0.113968  0.044335 -0.068892  0.016588
 11H   1s         0.103676  0.080359  0.034067 -0.112278 -0.139843 -0.144416
 11H   2s         0.037759  0.042673  0.028294 -0.078953 -0.118168 -0.136881
 12H   1s        -0.008724  0.102884  0.107067  0.114209  0.110789 -0.140283
 12H   2s         0.001968  0.055305  0.082503  0.087420  0.094743 -0.138826
                     18        19        20        21        22        23   
                  -0.39911  -0.38187  -0.35452  -0.33331  -0.32690  -0.24525
                   2.00000   2.00000   2.00000   2.00000   2.00000   2.00000
                  --------  --------  --------  --------  --------  --------
  0C   1s         0.000000 -0.006582 -0.018823 -0.008698 -0.000003  0.000000
  0C   2s         0.000002  0.007254  0.040590  0.024012  0.000005  0.000002
  0C   1pz        0.157691  0.000228 -0.000720  0.001190 -0.130162  0.290856
  0C   1px       -0.000761 -0.087343 -0.015908  0.213883  0.000673 -0.001422
  0C   1py       -0.000499  0.209046 -0.211684  0.039469  0.000409 -0.000883
  0C   3s        -0.000013  0.082250  0.061176  0.014602  0.000009 -0.000005
  0C   2pz        0.083886  0.000215 -0.000353  0.000328 -0.080966  0.208512
  0C   2px       -0.000408 -0.016406 -0.026290  0.034207  0.000390 -0.001002
  0C   2py       -0.000271  0.093134 -0.073564  0.047418  0.000262 -0.000619
  0C   1dz2       0.000091 -0.002529  0.000575  0.002293  0.000019 -0.000045
  0C   1dxz       0.008707  0.000031 -0.000046 -0.000014 -0.003637  0.001024
  0C   1dyz       0.003149 -0.000028 -0.000007  0.000104  0.009417 -0.010337
  0C   1dx2y2    -0.000033  0.005094 -0.005755 -0.010079  0.000045 -0.000036
  0C   1dxy      -0.000042 -0.005246 -0.004337  0.017778 -0.000032  0.000048
  1C   1s         0.000001 -0.013673  0.013050 -0.004720 -0.000001 -0.000000
  1C   2s        -0.000003  0.032438 -0.034048  0.011075  0.000001 -0.000005
  1C   1pz        0.308296 -0.000032  0.000540 -0.001329  0.015841 -0.008283
  1C   1px       -0.001493 -0.078957  0.037934 -0.284441 -0.000128  0.000037
  1C   1py       -0.000957  0.105312  0.117397  0.019372 -0.000048  0.000026
  1C   3s        -0.000001 -0.016155  0.006359  0.003575  0.000022  0.000019
  1C   2pz        0.164179  0.000240  0.000168 -0.000410  0.021014 -0.004174
  1C   2px       -0.000817  0.053706  0.057929 -0.046204 -0.000091  0.000047
  1C   2py       -0.000508 -0.013511 -0.038320 -0.060444 -0.000085  0.000006
  1C   1dz2       0.000040 -0.000693 -0.003541 -0.000613  0.000082 -0.000185
  1C   1dxz      -0.001040  0.000032 -0.000074  0.000005 -0.003567 -0.020358
  1C   1dyz       0.009203  0.000073  0.000056  0.000103  0.021383 -0.002238
  1C   1dx2y2     0.000035 -0.002477 -0.018778 -0.009602  0.000081  0.000093
  1C   1dxy      -0.000042  0.012492 -0.004085  0.015218 -0.000090  0.000072
  2C   1s         0.000001 -0.000757  0.007593  0.008193  0.000002  0.000000
  2C   2s        -0.000001  0.005705 -0.009681 -0.021367 -0.000005  0.000000
  2C   1pz        0.098649  0.000397  0.000819 -0.001035 -0.226642  0.300997
  2C   1px       -0.000501  0.187284  0.028948 -0.220636  0.001074 -0.001472
  2C   1py       -0.000283 -0.176020  0.223211  0.002280  0.000682 -0.000911
  2C   3s        -0.000008  0.000492 -0.052130  0.010802  0.000011 -0.000012
  2C   2pz        0.049306  0.000055  0.000123 -0.000209 -0.142299  0.212935
  2C   2px       -0.000250  0.050577 -0.009149 -0.060327  0.000704 -0.001074
  2C   2py       -0.000150 -0.066066  0.055907  0.020525  0.000441 -0.000643
  2C   1dz2       0.000049  0.001127  0.002439 -0.002283 -0.000086  0.000035
  2C   1dxz       0.002783  0.000020 -0.000129  0.000064 -0.008764 -0.001946
  2C   1dyz       0.004793 -0.000055 -0.000039  0.000101 -0.002215  0.009799
  2C   1dx2y2    -0.000000  0.008945 -0.013597 -0.001774  0.000036  0.000039
  2C   1dxy      -0.000031 -0.004666 -0.013719  0.017063  0.000040 -0.000042
  3C   1s         0.000001 -0.004443  0.001944  0.001757  0.000000 -0.000001
  3C   2s        -0.000002  0.013388 -0.011921 -0.003974  0.000001 -0.000003
  3C   1pz        0.080569 -0.000585 -0.001157  0.001113 -0.259933  0.018281
  3C   1px       -0.000376 -0.206565 -0.064043  0.227289  0.001306 -0.000088
  3C   1py       -0.000266  0.135857 -0.277720 -0.013845  0.000789 -0.000057
  3C   3s         0.000007  0.009987  0.024613 -0.008112 -0.000027  0.000026
  3C   2pz        0.045598 -0.000267 -0.000321  0.000432 -0.156481  0.013238
  3C   2px       -0.000215 -0.071537 -0.027654  0.087517  0.000779 -0.000080
  3C   2py       -0.000139  0.024810 -0.060654 -0.007164  0.000462 -0.000024
  3C   1dz2       0.000020  0.001776 -0.003567 -0.000498 -0.000041 -0.000164
  3C   1dxz      -0.000478  0.000031 -0.000103 -0.000001  0.000951 -0.018070
  3C   1dyz       0.004673 -0.000044  0.000035  0.000071 -0.009359 -0.002070
  3C   1dx2y2     0.000015  0.009969 -0.021135 -0.006848 -0.000034  0.000082
  3C   1dxy      -0.000021 -0.000965 -0.009749  0.009420  0.000044  0.000065
  4C   1s         0.000002 -0.017516  0.008001 -0.010411 -0.000002  0.000000
  4C   2s        -0.000004  0.031441 -0.015822  0.026529  0.000004  0.000002
  4C   1pz        0.101414  0.000548  0.001217 -0.000890 -0.235173 -0.280401
  4C   1px       -0.000493  0.063994  0.079788 -0.213972  0.001117  0.001371
  4C   1py       -0.000318  0.072423  0.272747  0.037239  0.000721  0.000853
  4C   3s        -0.000022  0.124743 -0.024863  0.040880  0.000028 -0.000013
  4C   2pz        0.047696  0.000262  0.000455 -0.000208 -0.148536 -0.197029
  4C   2px       -0.000218  0.005195  0.030559 -0.057722  0.000695  0.000951
  4C   2py       -0.000156  0.075464  0.100556  0.016264  0.000461  0.000594
  4C   1dz2      -0.000012 -0.001633  0.000241  0.002533  0.000076 -0.000063
  4C   1dxz      -0.003880  0.000038 -0.000081 -0.000040  0.009047 -0.000458
  4C   1dyz       0.003887 -0.000027  0.000012  0.000101 -0.000193 -0.011228
  4C   1dx2y2     0.000030  0.006986 -0.012950 -0.012951 -0.000047 -0.000032
  4C   1dxy      -0.000007 -0.003079 -0.005268  0.015214 -0.000024  0.000056
  5C   1s        -0.000003  0.028873 -0.010057  0.011506  0.000003  0.000000
  5C   2s         0.000006 -0.053463  0.029119 -0.024354 -0.000003 -0.000001
  5C   1pz        0.162405  0.000012 -0.000852  0.000884 -0.141291 -0.303959
  5C   1px       -0.000806  0.048961 -0.018633  0.227686  0.000732  0.001489
  5C   1py       -0.000482 -0.081545 -0.249198 -0.085784  0.000414  0.000920
  5C   3s         0.000024 -0.188022 -0.035176 -0.086306 -0.000055 -0.000019
  5C   2pz        0.094497  0.000292  0.000014  0.000382 -0.087525 -0.224541
  5C   2px       -0.000480  0.038313  0.046535  0.086892  0.000466  0.001131
  5C   2py       -0.000297  0.030380 -0.070532 -0.020478  0.000270  0.000683
  5C   1dz2      -0.000073  0.001679  0.002661 -0.001113  0.000059  0.000033
  5C   1dxz      -0.009149 -0.000053 -0.000092  0.000036  0.000797 -0.001587
  5C   1dyz       0.000973 -0.000021 -0.000046  0.000095  0.009924  0.008638
  5C   1dx2y2     0.000048 -0.004483 -0.007284 -0.004362  0.000026  0.000034
  5C   1dxy       0.000023 -0.005188 -0.011144  0.015842 -0.000048 -0.000037
  6O   1s        -0.000008  0.057520  0.005143  0.027350  0.000004  0.000000
  6O   2s         0.000015 -0.137084 -0.011825 -0.064391 -0.000013  0.000000
  6O   1pz        0.410797  0.001527  0.000172  0.000724  0.364868  0.010609
  6O   1px       -0.002040  0.383719  0.137763  0.214653 -0.001732 -0.000053
  6O   1py       -0.001219 -0.126381 -0.165134 -0.088279 -0.001117 -0.000032
  6O   3s         0.000042 -0.199043  0.017598 -0.091453 -0.000005  0.000000
  6O   2pz        0.279067  0.000861  0.000115  0.000396  0.271460  0.007387
  6O   2px       -0.001378  0.241784  0.096189  0.143218 -0.001293 -0.000040
  6O   2py       -0.000830 -0.113439 -0.117173 -0.086017 -0.000838 -0.000022
  6O   1dz2       0.000090 -0.011720 -0.002969 -0.006454  0.000102 -0.000017
  6O   1dxz       0.019756  0.000139  0.000011  0.000076  0.016432 -0.001803
  6O   1dyz      -0.014764 -0.000023 -0.000046  0.000020 -0.006746 -0.000379
  6O   1dx2y2    -0.000143  0.013379  0.003636  0.004829 -0.000100  0.000008
  6O   1dxy       0.000013 -0.008688 -0.010303  0.000100 -0.000017  0.000008
  7H   1s        -0.000015  0.126791  0.004101  0.080495  0.000014  0.000000
  7H   2s        -0.000016  0.079229 -0.024468  0.069272  0.000005  0.000002
  8H   1s        -0.000010  0.110903 -0.027293 -0.136143 -0.000021 -0.000000
  8H   2s        -0.000004  0.076206 -0.046848 -0.178892 -0.000037  0.000009
  9H   1s         0.000003 -0.027426 -0.127952  0.125869  0.000023 -0.000002
  9H   2s         0.000001 -0.031547 -0.135104  0.143022  0.000032 -0.000007
 10H   1s         0.000014 -0.105087  0.194811  0.031974  0.000003  0.000001
 10H   2s         0.000014 -0.108717  0.209382  0.033560  0.000002  0.000006
 11H   1s         0.000001  0.045351 -0.032418 -0.153724 -0.000024 -0.000000
 11H   2s        -0.000005  0.044507 -0.030855 -0.175379 -0.000019  0.000009
 12H   1s         0.000002 -0.040404 -0.116546  0.096171  0.000016 -0.000002
 12H   2s         0.000008 -0.030075 -0.139401  0.120974  0.000020 -0.000007
                     24        25        26        27        28        29   
                  -0.21529   0.00474   0.02049   0.07280   0.09707   0.14804
                   2.00000   0.00000   0.00000   0.00000   0.00000   0.00000
                  --------  --------  --------  --------  --------  --------
  0C   1s        -0.000001 -0.000001  0.000001  0.020741 -0.031992 -0.024598
  0C   2s         0.000001 -0.000000  0.000003 -0.045664  0.061392  0.029326
  0C   1pz       -0.222621  0.313692  0.142957 -0.000293 -0.000361 -0.000679
  0C   1px        0.001092 -0.001534 -0.000697 -0.033721 -0.093909 -0.167874
  0C   1py        0.000678 -0.000952 -0.000434 -0.041070  0.032473  0.039988
  0C   3s         0.000023  0.000022 -0.000013 -0.110411  0.269357  0.573256
  0C   2pz       -0.175710  0.418011  0.191960  0.000236 -0.000595 -0.000961
  0C   2px        0.000864 -0.002035 -0.000904  0.047897 -0.275057 -0.363166
  0C   2py        0.000539 -0.001268 -0.000604 -0.000578  0.251386  0.266498
  0C   1dz2      -0.000126  0.000078 -0.000265 -0.001211  0.005107 -0.001751
  0C   1dxz      -0.008961 -0.001993 -0.016926 -0.000036 -0.000090  0.000073
  0C   1dyz      -0.009513  0.018117 -0.023170  0.000041  0.000088  0.000063
  0C   1dx2y2     0.000015  0.000064  0.000013 -0.009958 -0.017387  0.003814
  0C   1dxy       0.000074 -0.000082  0.000164  0.000802  0.012714  0.013329
  1C   1s        -0.000000 -0.000000  0.000000 -0.004006 -0.024956 -0.001131
  1C   2s        -0.000001 -0.000004  0.000003  0.019105  0.048415  0.009576
  1C   1pz       -0.280870  0.006394 -0.408891  0.000091  0.000260 -0.000329
  1C   1px        0.001370 -0.000034  0.002000 -0.034908 -0.022115 -0.010013
  1C   1py        0.000850 -0.000017  0.001241  0.084557  0.117853 -0.085691
  1C   3s         0.000002  0.000016 -0.000050 -0.342792  0.143795  0.074413
  1C   2pz       -0.166338  0.002417 -0.454606 -0.000503 -0.000312  0.000881
  1C   2px        0.000836  0.000005  0.002190 -0.208353 -0.057335  0.283804
  1C   2py        0.000507  0.000018  0.001402  0.175678 -0.011419 -0.167185
  1C   1dz2       0.000088 -0.000294 -0.000002  0.006636  0.009100 -0.001741
  1C   1dxz      -0.003154 -0.031676 -0.000746 -0.000052  0.000088 -0.000044
  1C   1dyz       0.021795 -0.004829  0.000714 -0.000093 -0.000090 -0.000055
  1C   1dx2y2     0.000082  0.000140  0.000005  0.006094  0.028294 -0.002666
  1C   1dxy      -0.000097  0.000119 -0.000000 -0.008308  0.008975 -0.014647
  2C   1s        -0.000000  0.000000  0.000001 -0.009196 -0.045106 -0.032902
  2C   2s        -0.000002  0.000005  0.000002  0.025994  0.070649  0.027009
  2C   1pz        0.104660 -0.315891  0.205187  0.000050 -0.000719 -0.001427
  2C   1px       -0.000512  0.001545 -0.000998 -0.017852 -0.106360 -0.195957
  2C   1py       -0.000319  0.000959 -0.000620  0.044355 -0.066993 -0.151841
  2C   3s         0.000009 -0.000014 -0.000062  0.039079  0.736004  0.900611
  2C   2pz        0.075157 -0.415087  0.274236 -0.000504 -0.001418 -0.003204
  2C   2px       -0.000373  0.002061 -0.001377 -0.109249 -0.243358 -0.427052
  2C   2py       -0.000237  0.001269 -0.000829  0.009654 -0.078534 -0.363289
  2C   1dz2       0.000024  0.000076 -0.000090  0.000946  0.001630 -0.002704
  2C   1dxz       0.011437 -0.001957 -0.020473 -0.000004 -0.000100 -0.000011
  2C   1dyz      -0.013759  0.017699  0.015769 -0.000019 -0.000075 -0.000045
  2C   1dx2y2    -0.000098  0.000064  0.000147  0.001894 -0.006520  0.000648
  2C   1dxy       0.000033 -0.000081 -0.000015 -0.001692 -0.017638 -0.012122
  3C   1s        -0.000000  0.000000 -0.000000  0.011700 -0.036295 -0.022387
  3C   2s        -0.000001  0.000002 -0.000002 -0.026936  0.064034  0.030525
  3C   1pz        0.312135 -0.010385 -0.360354 -0.000126 -0.000335 -0.000307
  3C   1px       -0.001526  0.000050  0.001761 -0.027890  0.016905 -0.008139
  3C   1py       -0.000948  0.000034  0.001096  0.003963 -0.134846 -0.085982
  3C   3s         0.000004 -0.000032  0.000051  0.053707  0.485659  0.393164
  3C   2pz        0.238313 -0.015190 -0.499820  0.000229 -0.000935  0.000505
  3C   2px       -0.001159  0.000079  0.002420 -0.019605  0.032266  0.234387
  3C   2py       -0.000719  0.000036  0.001538  0.106959 -0.357503 -0.214570
  3C   1dz2       0.000024  0.000271  0.000042 -0.001704  0.003090 -0.000258
  3C   1dxz       0.000758  0.029457 -0.001964 -0.000014  0.000071  0.000046
  3C   1dyz       0.003249  0.004104  0.011265  0.000034 -0.000048  0.000053
  3C   1dx2y2     0.000006 -0.000132  0.000044 -0.006536  0.017316  0.001663
  3C   1dxy      -0.000018 -0.000109 -0.000050  0.001049  0.004290  0.011557
  4C   1s        -0.000000 -0.000000 -0.000001 -0.009742 -0.048299  0.036660
  4C   2s         0.000001 -0.000001 -0.000002  0.034415  0.075440 -0.043379
  4C   1pz        0.139492  0.323328  0.196346  0.000058  0.000543 -0.000696
  4C   1px       -0.000684 -0.001582 -0.000958 -0.031494  0.136319 -0.161898
  4C   1py       -0.000422 -0.000981 -0.000598  0.069492 -0.039657  0.027693
  4C   3s        -0.000006  0.000013  0.000031 -0.013076  0.809520 -0.827538
  4C   2pz        0.104229  0.431450  0.265561  0.000942  0.001303 -0.001109
  4C   2px       -0.000511 -0.002124 -0.001264  0.136804  0.293816 -0.383476
  4C   2py       -0.000315 -0.001312 -0.000801  0.091678 -0.046450  0.254197
  4C   1dz2      -0.000145 -0.000056  0.000245  0.002163  0.001810  0.001222
  4C   1dxz      -0.007467  0.003593  0.015743 -0.000018 -0.000047 -0.000051
  4C   1dyz      -0.015508 -0.016382  0.021214 -0.000054  0.000096 -0.000045
  4C   1dx2y2    -0.000011 -0.000067 -0.000013  0.004004 -0.014251 -0.002523
[...]
     35       0.001284   0.065227  -0.517999   0.271412   0.000636   0.236255
     36      -0.234096  -0.002888   0.001165  -0.003271  -0.170348   0.002294
     37      -0.142848  -0.001787   0.000721  -0.002021   0.009062   0.001405
     38      -0.001637   0.586126  -0.237256   0.666677  -0.000728  -0.466900
                 18         19         20         21         22         23    
      0      -0.000350   0.000259   0.385166  -0.029977   0.066264   0.013515
      1      -0.000229   0.000140  -0.118028  -0.073947  -0.080883   0.007898
      2       0.074067  -0.048700   0.001530  -0.000373   0.000080   0.000091
      3       0.000083   0.000027  -0.007444  -0.005714  -0.057930  -0.013645
      4       0.000052   0.000019   0.016745  -0.008038  -0.000846  -0.016045
      5      -0.016708  -0.005294   0.000015  -0.000051  -0.000286  -0.000117
      6       0.000368  -0.000475  -0.070783   0.169763   0.033744   0.039923
      7       0.000231  -0.000295  -0.038515   0.047342   0.057801  -0.035728
      8      -0.075358   0.096556  -0.000476   0.000970   0.000341   0.000087
      9       0.000179   0.000368  -0.052030  -0.034219  -0.089588  -0.062507
     10       0.000117   0.000250   0.340858   0.162888  -0.027056  -0.011174
     11      -0.036372  -0.076016   0.000809   0.000333  -0.000521  -0.000340
     12      -0.000557  -0.000250   0.086653  -0.161624   0.080147   0.013204
     13      -0.000344  -0.000156  -0.018305  -0.004939  -0.042579   0.036200
     14       0.113296   0.050950   0.000337  -0.000807   0.000263   0.000175
     15       0.000250   0.000038  -0.329426   0.063031   0.040115   0.012961
     16       0.000158   0.000024  -0.213324  -0.048091   0.109494   0.005788
     17      -0.053355  -0.011019  -0.002250   0.000161   0.000529   0.000080
     18      -0.000010   0.000015  -0.008075  -0.005673  -0.001930  -0.009151
     19      -0.000009   0.000007   0.006879   0.020307   0.003929   0.012858
     20       0.002194  -0.002898  -0.000018   0.000034   0.000004  -0.000005
     21      -0.000063  -0.000004   0.034120   0.016043   0.108512   0.057440
     22      -0.000038  -0.000004  -0.063391  -0.016751  -0.189676  -0.104311
     23       0.012836   0.000746  -0.000025   0.000025  -0.000047  -0.000037
     24       0.001912  -0.001748   0.453339  -0.198737  -0.093175   0.133429
     25       0.001177  -0.001107   0.005504  -0.477794  -0.470361   0.285855
     26      -0.387919   0.361541   0.002184  -0.002416  -0.001897   0.001515
     27      -0.002053   0.003201  -0.106808   0.382850  -0.141959   0.319414
     28      -0.001259   0.001983   0.033546  -0.214177   0.298213  -0.401815
     29       0.417819  -0.653042  -0.000324   0.001241   0.000207   0.000345
     30      -0.001137  -0.002464  -0.067404  -0.074454  -0.527350  -0.653279
     31      -0.000702  -0.001510   0.349137   0.173267  -0.086979  -0.089700
     32       0.232782   0.502865   0.000570   0.000138  -0.002838  -0.003466
     33       0.003411   0.001886   0.093206  -0.316857   0.011508   0.147246
     34       0.002136   0.001177   0.037037  -0.363722  -0.234236   0.368043
     35      -0.698825  -0.386314   0.000735  -0.002657  -0.000655   0.001836
     36      -0.001597  -0.000719  -0.422881   0.266183  -0.193793   0.099866
     37      -0.000979  -0.000441  -0.106771  -0.319377   0.430849  -0.106529
     38       0.322104   0.143012  -0.002436   0.000349   0.000348   0.000169
                 24         25         26         27         28         29    
      0      -0.009623  -0.042094  -0.037052   0.070842   0.007516   0.016548
      1      -0.034506  -0.024448  -0.104184   0.200204  -0.002166  -0.134487
      2      -0.000152  -0.000281  -0.000498   0.000957   0.000029  -0.000327
      3      -0.002137   0.101078   0.096482  -0.082873   0.124975  -0.146286
      4       0.014490   0.056819  -0.351179  -0.006398   0.022951   0.018453
      5       0.000033   0.000674  -0.000593  -0.000428   0.000680  -0.000657
      6      -0.041185  -0.020750   0.063132   0.061029  -0.087055   0.052356
      7       0.026145  -0.004735   0.093805  -0.097827   0.090426   0.102111
      8      -0.000121  -0.000116   0.000593   0.000002  -0.000152   0.000565
      9      -0.007162  -0.005137   0.002140  -0.209125   0.025604  -0.160371
     10       0.004870   0.008905   0.001679  -0.032306  -0.001029   0.008605
     11      -0.000020   0.000003   0.000016  -0.001124   0.000124  -0.000758
     12       0.031534  -0.000896  -0.099191   0.040154  -0.048751   0.028710
     13       0.051765  -0.018896   0.055291   0.109699  -0.112858  -0.146551
     14       0.000312  -0.000064  -0.000317   0.000532  -0.000583  -0.000305
     15       0.028451  -0.053323   0.030317   0.117963  -0.011262   0.041227
     16      -0.048519   0.010855  -0.085107  -0.167982   0.028446   0.094786
     17      -0.000010  -0.000228  -0.000110   0.000069   0.000031   0.000489
     18      -0.004625   0.064469  -0.014260  -0.006444  -0.048344   0.044664
     19      -0.006251  -0.056195   0.185426  -0.008389   0.015914  -0.018785
     20      -0.000042   0.000141   0.000492  -0.000057  -0.000185   0.000160
     21       0.018050  -0.385298  -0.076330  -0.037092   0.249298  -0.145352
     22      -0.045920   0.724705   0.309577   0.042502  -0.487347   0.294006
     23      -0.000055   0.000329   0.000569  -0.000048  -0.000271   0.000188
     24      -0.173049  -0.162621   0.098841  -0.198723  -0.121920   0.224306
     25      -0.415987  -0.297314   0.175599  -0.429427  -0.306163   0.317899
     26      -0.002105  -0.001701   0.001038  -0.002280  -0.001530   0.002060
     27      -0.254779   0.110162  -0.126880   0.142335   0.283880   0.185379
     28       0.305980  -0.180797   0.361436  -0.207028  -0.399425  -0.038434
     29      -0.000319  -0.000004   0.000465   0.000070   0.000179   0.000791
     30      -0.062489  -0.218401  -0.002826   0.471460   0.242268   0.597172
     31      -0.003066  -0.020013   0.010460   0.057793   0.026832   0.115373
     32      -0.000324  -0.001137   0.000015   0.002485   0.001267   0.003271
     33       0.222198   0.068217   0.041989   0.073105   0.145698   0.246178
     34       0.525065   0.154464   0.438665   0.192434   0.370866   0.350745
     35       0.002683   0.000808   0.001537   0.000936   0.001843   0.002271
     36       0.324933  -0.183612  -0.373684  -0.324868  -0.163299   0.183026
     37      -0.436594   0.171306   0.404654   0.412653   0.235580  -0.061245
     38       0.000275  -0.000380  -0.000603  -0.000342  -0.000089   0.000711
                 30         31         32         33         34         35    
      0      -0.091599  -0.153451  -0.126186  -0.000458  -0.016088  -0.015299
      1      -0.039638   0.051961  -0.316719  -0.000709   0.005468   0.004549
      2      -0.000570  -0.000592  -0.001580  -0.000004  -0.000062  -0.000061
      3       0.012022   0.336141   0.143060  -0.002591   0.000806  -0.001148
      4       0.174944  -0.048301   0.240104   0.003419  -0.000309   0.001281
      5       0.000590   0.001498   0.001430  -0.000002   0.000003  -0.000002
      6       0.103534   0.236298  -0.006757   0.002760   0.048118   0.037959
      7      -0.132223  -0.183884   0.203474   0.001901   0.037263   0.028126
      8       0.000105   0.000599   0.000586   0.000019   0.000348   0.000271
      9       0.036500  -0.297407  -0.125327   0.000373   0.005220  -0.006009
     10       0.113252   0.025154  -0.137558  -0.004456  -0.043998   0.019207
     11       0.000524  -0.001378  -0.001031  -0.000012  -0.000108   0.000029
     12      -0.106385   0.142783   0.110573  -0.021272  -0.027707   0.060318
     13      -0.107433  -0.029575   0.295934   0.006107   0.012474  -0.025904
     14      -0.000849   0.000609   0.001441  -0.000085  -0.000097   0.000216
     15       0.105118  -0.238108   0.015871   0.065927  -0.011719   0.014244
     16      -0.080078   0.171521  -0.230844   0.049266  -0.009590   0.013001
     17       0.000273  -0.000647  -0.000624   0.000473  -0.000087   0.000110
     18      -0.010852  -0.046546  -0.025132   0.000395  -0.000211   0.000226
     19      -0.040341   0.022708  -0.024408  -0.000442   0.000185  -0.000200
     20      -0.000175  -0.000157  -0.000196   0.000001  -0.000000   0.000000
     21       0.077088   0.159932   0.119732  -0.001977   0.001621  -0.000915
     22      -0.187577  -0.308853  -0.250335  -0.008897   0.001691  -0.001928
     23      -0.000194  -0.000165  -0.000185  -0.000037   0.000013  -0.000010
     24       0.042015  -0.167590   0.167866   0.004573   0.194071   0.178996
     25       0.323829   0.067182   0.384023  -0.000289  -0.081291  -0.073937
     26       0.001187  -0.000641   0.001985   0.000022   0.000705   0.000655
     27      -0.310542  -0.155892   0.214846  -0.032841  -0.568371  -0.430741
     28       0.416517   0.347234  -0.067156  -0.024845  -0.432844  -0.326560
     29      -0.000253   0.000286   0.000847  -0.000237  -0.004098  -0.003102
     30      -0.170202   0.323643   0.173904  -0.007108  -0.069548   0.035255
     31       0.107438   0.115210  -0.111602   0.057688   0.527693  -0.230377
     32      -0.000510   0.001941   0.000499   0.000142   0.001268  -0.000528
     33       0.085977   0.133212  -0.148765   0.257775   0.330715  -0.697390
     34       0.408222  -0.094930  -0.347250  -0.100739  -0.134670   0.282579
     35       0.001662   0.000356  -0.001787   0.000952   0.001205  -0.002547
     36      -0.257391   0.132614  -0.262533  -0.759799   0.131179  -0.161983
     37       0.419970  -0.329883   0.131629  -0.577568   0.100894  -0.126316
     38       0.000009  -0.000343  -0.000887  -0.005486   0.000951  -0.001180
                  36         37         38    
      0      -0.038133  -0.066853  -0.000706
      1       0.015357   0.029861  -0.000416
      2      -0.000140  -0.000236  -0.000005
      3       0.001547   0.001815   0.002768
      4       0.000993   0.003143   0.000063
      5       0.000011   0.000018   0.000014
      6       0.014055  -0.028639   0.000177
      7       0.006075  -0.023585   0.000084
      8       0.000087  -0.000212   0.000001
      9      -0.007404   0.005221  -0.000037
     10       0.064806  -0.030471  -0.000152
     11       0.000161  -0.000067  -0.000001
     12      -0.037831   0.014891   0.000071
     13       0.013145  -0.004868   0.000219
     14      -0.000145   0.000058   0.000001
     15      -0.005874   0.003079  -0.000767
     16      -0.006919   0.002555  -0.001262
     17      -0.000050   0.000023  -0.000008
     18      -0.000242  -0.000219   0.053098
     19      -0.000076  -0.000437   0.032352
     20      -0.000001  -0.000002   0.000355
     21       0.001248   0.000776  -0.863481
     22      -0.000453  -0.001951  -0.500455
     23       0.000004  -0.000003  -0.005700
     24       0.438125   0.761761  -0.000140
     25      -0.185748  -0.326961  -0.000664
     26       0.001578   0.002734  -0.000005
     27      -0.133330   0.317414  -0.000582
     28      -0.095373   0.242628   0.000149
     29      -0.000943   0.002292  -0.000002
     30       0.095332  -0.046392  -0.000036
     31      -0.726576   0.335820   0.000402
     32      -0.001740   0.000793   0.000001
     33       0.409052  -0.157363   0.000689
     34      -0.161702   0.061504  -0.000655
     35       0.001508  -0.000582   0.000002
     36       0.070865  -0.032820   0.002822
     37       0.057428  -0.025691   0.005191
     38       0.000523  -0.000239   0.000029


-----------
IR SPECTRUM
-----------

 Mode    freq (cm**-1)   T**2         TX         TY         TZ
-------------------------------------------------------------------
   6:       234.05    0.636244  ( -0.004093  -0.001698   0.797637)
   7:       364.13  123.395782  ( -0.053502  -0.033564  11.108186)
   8:       406.67    9.932453  ( -0.236969   3.142650   0.006967)
   9:       422.84    0.096047  ( -0.001737  -0.001131   0.309908)
  10:       519.16    5.630402  ( -0.011584  -0.007693   2.372806)
  11:       534.81    1.289272  (  0.497877  -1.020485  -0.001436)
  12:       631.88    0.291391  ( -0.485470   0.236021  -0.001876)
  13:       700.83   11.483531  ( -0.016492  -0.010631   3.388679)
  14:       764.79   53.521270  (  0.036056   0.022074  -7.315701)
  15:       825.35    0.032271  ( -0.001753   0.000026   0.179633)
  16:       832.68   17.473613  ( -0.496620   4.150527   0.010456)
  17:       887.37    6.482443  (  0.011809   0.010235  -2.546016)
  18:       952.40    0.088482  ( -0.000016   0.001388  -0.297456)
  19:       980.12    0.252530  ( -0.001969  -0.001274   0.502518)
  20:      1013.08    1.502972  (  0.360656  -1.171706  -0.001844)
  21:      1051.68    3.506971  (  0.324617  -1.844337  -0.003984)
  22:      1102.94   11.229494  ( -2.009545  -2.681584  -0.018090)
  23:      1187.23    7.535115  (  1.533380  -2.276809   0.000558)
  24:      1201.07    4.816041  (  0.309546   2.172592   0.008127)
  25:      1211.41  142.493199  ( -2.482049  11.676133   0.023375)
  26:      1306.43   78.509728  (  0.642885  -8.837187  -0.023696)
  27:      1366.41    2.618626  (  1.567556   0.401641   0.008801)
  28:      1384.92   39.497475  (  0.129370  -6.283343  -0.018424)
  29:      1519.86   29.654875  (  0.392622   5.431425   0.018451)
  30:      1549.99   47.743295  ( -1.477727   6.749773   0.013266)
  31:      1655.38   36.885691  (  2.968332  -5.298556  -0.001592)
  32:      1668.44   42.846913  (  0.606151   6.517590   0.022694)
  33:      3162.18   18.047183  (  1.707204   3.890018   0.019887)
  34:      3184.82    0.194551  (  0.368977   0.241662   0.002387)
  35:      3193.45   24.240763  (  4.512139   1.969920   0.027936)
  36:      3209.00   25.161639  ( -2.714168   4.218404  -0.000527)
  37:      3216.91    6.052373  ( -2.130572  -1.229975  -0.014135)
  38:      3743.54   38.901959  ( -3.381567  -5.240795  -0.032200)

The first frequency considered to be a vibration is 6
The total number of vibrations considered is 33


--------------------------
THERMOCHEMISTRY AT 298.15K
--------------------------

Temperature         ... 298.15 K
Pressure            ... 1.00 atm
Total Mass          ... 94.11 AMU

Throughout the following assumptions are being made:
  (1) The electronic state is orbitally nondegenerate
  (2) There are no thermally accessible electronically excited states
  (3) Hindered rotations indicated by low frequency modes are not
      treated as such but are treated as vibrations and this may
      cause some error
  (4) All equations used are the standard statistical mechanics
      equations for an ideal gas
  (5) All vibrations are strictly harmonic

freq.     234.05  E(vib)   ...       0.32 
freq.     364.13  E(vib)   ...       0.22 
freq.     406.67  E(vib)   ...       0.19 
freq.     422.84  E(vib)   ...       0.18 
freq.     519.16  E(vib)   ...       0.13 
freq.     534.81  E(vib)   ...       0.13 
freq.     631.88  E(vib)   ...       0.09 
freq.     700.83  E(vib)   ...       0.07 
freq.     764.79  E(vib)   ...       0.06 
freq.     825.35  E(vib)   ...       0.04 
freq.     832.68  E(vib)   ...       0.04 
freq.     887.37  E(vib)   ...       0.04 
freq.     952.40  E(vib)   ...       0.03 
freq.     980.12  E(vib)   ...       0.02 
freq.    1013.08  E(vib)   ...       0.02 
freq.    1051.68  E(vib)   ...       0.02 
freq.    1102.94  E(vib)   ...       0.02 
freq.    1187.23  E(vib)   ...       0.01 
freq.    1201.07  E(vib)   ...       0.01 
freq.    1211.41  E(vib)   ...       0.01 
freq.    1306.43  E(vib)   ...       0.01 
freq.    1366.41  E(vib)   ...       0.01 
freq.    1384.92  E(vib)   ...       0.00 
freq.    1519.86  E(vib)   ...       0.00 
freq.    1549.99  E(vib)   ...       0.00 
freq.    1655.38  E(vib)   ...       0.00 
freq.    1668.44  E(vib)   ...       0.00 
freq.    3162.18  E(vib)   ...       0.00 
freq.    3184.82  E(vib)   ...       0.00 
freq.    3193.45  E(vib)   ...       0.00 
freq.    3209.00  E(vib)   ...       0.00 
freq.    3216.91  E(vib)   ...       0.00 
freq.    3743.54  E(vib)   ...       0.00 

------------
INNER ENERGY
------------

The inner energy is: U= E(el) + E(ZPE) + E(vib) + E(rot) + E(trans)
    E(el)   - is the total energy from the electronic structure calculation
              = E(kin-el) + E(nuc-el) + E(el-el) + E(nuc-nuc)
    E(ZPE)  - the the zero temperature vibrational energy from the frequency calculation
    E(vib)  - the the finite temperature correction to E(ZPE) due to population
              of excited vibrational states
    E(rot)  - is the rotational thermal energy
    E(trans)- is the translational thermal energy

Summary of contributions to the inner energy U:
Electronic energy                ...   -307.27426516 Eh
Zero point energy                ...      0.10476339 Eh      65.74 kcal/mol
Thermal vibrational correction   ...      0.00266333 Eh       1.67 kcal/mol
Thermal rotational correction    ...      0.00141627 Eh       0.89 kcal/mol
Thermal translational correction ...      0.00141627 Eh       0.89 kcal/mol
-----------------------------------------------------------------------
Total thermal energy                   -307.16400590 Eh


Summary of corrections to the electronic energy:
(perhaps to be used in another calculation)
Total thermal correction                  0.00549587 Eh       3.45 kcal/mol
Non-thermal (ZPE) correction              0.10476339 Eh      65.74 kcal/mol
-----------------------------------------------------------------------
Total correction                          0.11025926 Eh      69.19 kcal/mol


--------
ENTHALPY
--------

The enthalpy is H = U + kB*T
                kB is Boltzmann's constant
Total free energy                 ...   -307.16400590 Eh 
Thermal Enthalpy correction       ...      0.00094421 Eh       0.59 kcal/mol
-----------------------------------------------------------------------
Total Enthalpy                    ...   -307.16306169 Eh


Note: Rotational entropy computed according to Herzberg 
Infrared and Raman Spectra, Chapter V,1, Van Nostrand Reinhold, 1945 
Point Group:  C1, Symmetry Number:   1  
Rotational constants in cm-1:     0.188073     0.087034     0.059499 

Vibrational entropy computed according to the QRRHO of S. Grimme
Chem.Eur.J. 2012 18 9955


-------
ENTROPY
-------

The entropy contributions are T*S = T*(S(el)+S(vib)+S(rot)+S(trans))
     S(el)   - electronic entropy
     S(vib)  - vibrational entropy
     S(rot)  - rotational entropy
     S(trans)- translational entropy
The entropies will be listed as mutliplied by the temperature to get
units of energy

Electronic entropy                ...      0.00000000 Eh      0.00 kcal/mol
Vibrational entropy               ...      0.00384748 Eh      2.41 kcal/mol
Rotational entropy                ...      0.01278437 Eh      8.02 kcal/mol
Translational entropy             ...      0.01878531 Eh     11.79 kcal/mol
-----------------------------------------------------------------------
Final entropy term                ...      0.03541716 Eh     22.22 kcal/mol


-------------------
GIBBS FREE ENTHALPY
-------------------

The Gibbs free enthalpy is G = H - T*S

Total enthalpy                    ...   -307.16306169 Eh 
Total entropy correction          ...     -0.03541716 Eh    -22.22 kcal/mol
-----------------------------------------------------------------------
Final Gibbs free enthalpy         ...   -307.19847884 Eh

For completeness - the Gibbs free enthalpy minus the electronic energy
G-E(el)                           ...      0.07578632 Eh     47.56 kcal/mol


Timings for individual modules:

Sum of individual times         ...      401.437 sec (=   6.691 min)
GTO integral calculation        ...        0.325 sec (=   0.005 min)   0.1 %
SCF iterations                  ...       24.861 sec (=   0.414 min)   6.2 %
Analytical frequency calculation...      376.252 sec (=   6.271 min)  93.7 %
                             ****ORCA TERMINATED NORMALLY****
TOTAL RUN TIME: 0 days 0 hours 6 minutes 41 seconds 864 msec
