
                                 *****************
                                 * O   R   C   A *
                                 *****************

           --- An Ab Initio, DFT and Semiempirical electronic structure package ---

                  #######################################################
                  #                        -***-                        #
                  #          Department of theory and spectroscopy      #
                  #               Directorship: Frank Neese             #
                  #        Max Planck Institute fuer Kohlenforschung    #
                  #                Kaiser Wilhelm Platz 1               #
                  #                 D-45470 Muelheim/Ruhr               #
                  #                      Germany                        #
                  #                                                     #
                  #                  All rights reserved                #
                  #                        -***-                        #
                  #######################################################


                         Program Version 4.1.0  - RELEASE  -


 With contributions from (in alphabetic order):
   Daniel Aravena         : Magnetic Properties
   Michael Atanasov       : Ab Initio Ligand Field Theory
   Alexander A. Auer      : GIAO ZORA
   Ute Becker             : Parallelization
   Giovanni Bistoni       : ED, Open-shell LED
   Martin Brehm           : Molecular dynamics
   Dmytro Bykov           : SCF Hessian
   Vijay G. Chilkuri      : MRCI spin determinant printing
   Dipayan Datta          : RHF DLPNO-CCSD density
   Achintya Kumar Dutta   : EOM-CC, STEOM-CC
   Dmitry Ganyushin       : Spin-Orbit,Spin-Spin,Magnetic field MRCI
   Miquel Garcia          : C-PCM Hessian
   Yang Guo               : DLPNO-NEVPT2, CIM, IAO-localization
   Andreas Hansen         : Spin unrestricted coupled pair/coupled cluster methods
   Benjamin Helmich-Paris : CASSCF linear response (MC-RPA)
   Lee Huntington         : MR-EOM, pCC
   Robert Izsak           : Overlap fitted RIJCOSX, COSX-SCS-MP3, EOM
   Christian Kollmar      : KDIIS, OOCD, Brueckner-CCSD(T), CCSD density
   Simone Kossmann        : Meta GGA functionals, TD-DFT gradient, OOMP2, MP2 Hessian
   Martin Krupicka        : AUTO-CI
   Lucas Lang             : DCDCAS
   Dagmar Lenk            : GEPOL surface, SMD
   Dimitrios Liakos       : Extrapolation schemes; parallel MDCI
   Dimitrios Manganas     : ROCIS; embedding schemes
   Dimitrios Pantazis     : SARC Basis sets
   Taras Petrenko         : DFT Hessian,TD-DFT gradient, ASA, ECA, R-Raman, ABS, FL, XAS/XES, NRVS
   Peter Pinski           : DLPNO-MP2, DLPNO-MP2 Gradient
   Christoph Reimann      : Effective Core Potentials
   Marius Retegan         : Local ZFS, SOC
   Christoph Riplinger    : Optimizer, TS searches, QM/MM, DLPNO-CCSD(T), (RO)-DLPNO pert. Triples
   Tobias Risthaus        : Range-separated hybrids, TD-DFT gradient, RPA, STAB
   Michael Roemelt        : Restricted open shell CIS
   Masaaki Saitow         : Open-shell DLPNO
   Barbara Sandhoefer     : DKH picture change effects
   Avijit Sen             : IP-ROCIS
   Kantharuban Sivalingam : CASSCF convergence, NEVPT2, FIC-MRCI
   Bernardo de Souza      : ESD, SOC TD-DFT
   Georgi Stoychev        : AutoAux, RI-MP2 NMR
   Willem Van den Heuvel  : Paramagnetic NMR
   Boris Wezisla          : Elementary symmetry handling
   Frank Wennmohs         : Technical directorship


 We gratefully acknowledge several colleagues who have allowed us to
 interface, adapt or use parts of their codes:
   Stefan Grimme, W. Hujo, H. Kruse,             : VdW corrections, initial TS optimization,
                  C. Bannwarth                     DFT functionals, gCP, sTDA/sTD-DF
   Ed Valeev                                     : LibInt (2-el integral package), F12 methods
   Garnet Chan, S. Sharma, J. Yang, R. Olivares  : DMRG
   Ulf Ekstrom                                   : XCFun DFT Library
   Mihaly Kallay                                 : mrcc  (arbitrary order and MRCC methods)
   Andreas Klamt, Michael Diedenhofen            : otool_cosmo (COSMO solvation model)
   Jiri Pittner, Ondrej Demel                    : Mk-CCSD
   Frank Weinhold                                : gennbo (NPA and NBO analysis)
   Christopher J. Cramer and Donald G. Truhlar   : smd solvation model
   Lars Goerigk                                  : TD-DFT with DH, B97 family of functionals
   V. Asgeirsson, H. Jonsson                     : NEB implementation
   FAccTs GmbH                                   : IRC, NEB, NEB-TS, Multilevel


 Your calculation uses the libint2 library for the computation of 2-el integrals
 For citations please refer to: http://libint.valeyev.net

 This ORCA versions uses:
   CBLAS   interface :  Fast vector & matrix operations
   LAPACKE interface :  Fast linear algebra routines
   SCALAPACK package :  Parallel linear algebra routines




***************************************
The coordinates will be read from file: /Users/lailaal-madhagi/Desktop/Testing_XAS_Analysis_code/Nitrobenzene/Nitrobenzene_geom.xyz
***************************************


----- Orbital basis set information -----
Your calculation utilizes the basis: 6-31G*
   H-He, Li-Ne : W. J. Hehre, R. Ditchfield and J.A. Pople, J. Chem. Phys. 56, 2257 (1972).
                 Note: He and Ne are unpublished basis sets taken from the Gaussian program.
                 Note: Li and B from J. D. Dill and J. A. Pople, J. Chem. Phys. 62, 2921 (1975).
   Na - Ar     : M. M. Francl, W. J. Pietro, W. J. Hehre, J. S. Binkley, M. S. Gordon, 
                 D. J. DeFrees and J. A. Pople, J. Chem. Phys. 77, 3654 (1982).
   K - Zn      : V. A. Rassolov, J. A. Pople, M. A. Ratner, and T. L. Windus, J. Chem. Phys. 109, 1223 (1998).

================================================================================
                                        WARNINGS
                       Please study these warnings very carefully!
================================================================================


WARNING: Geometry Optimization
  ===> : Switching off AutoStart
         For restart on a previous wavefunction, please use MOREAD

INFO   : the flag for use of LIBINT has been found!

================================================================================
                                       INPUT FILE
================================================================================
NAME = /Users/lailaal-madhagi/Desktop/Testing_XAS_Analysis_code/Nitrobenzene//Results_dir_Nitrobenzene_geom_element_N_2019-11-11_22-18-54//GTE1_Nitrobenzene_geom_2019-11-11_22-19-15//opt.inp
|  1> ! B3LYP 6-31G* TIGHTSCF Grid3 FinalGrid5 Opt 
|  2> !NormalPrint 
|  3> %output 
|  4> Print[P_Basis] 2 
|  5> Print[P_MOS] 1 
|  6> end 
|  7> *xyzfile 0 1 /Users/lailaal-madhagi/Desktop/Testing_XAS_Analysis_code/Nitrobenzene/Nitrobenzene_geom.xyz                           ****END OF INPUT****
================================================================================

                       *****************************
                       * Geometry Optimization Run *
                       *****************************

Geometry optimization settings:
Update method            Update   .... BFGS
Choice of coordinates    CoordSys .... Z-matrix Internals
Initial Hessian          InHess   .... Almoef's Model

Convergence Tolerances:
Energy Change            TolE     ....  5.0000e-06 Eh
Max. Gradient            TolMAXG  ....  3.0000e-04 Eh/bohr
RMS Gradient             TolRMSG  ....  1.0000e-04 Eh/bohr
Max. Displacement        TolMAXD  ....  4.0000e-03 bohr
RMS Displacement         TolRMSD  ....  2.0000e-03 bohr

------------------------------------------------------------------------------
                        ORCA OPTIMIZATION COORDINATE SETUP
------------------------------------------------------------------------------

The optimization will be done in new redundant internal coordinates
Making redundant internal coordinates   ...  (new redundants) done
Evaluating the initial hessian          ...  (Almloef) done
Evaluating the coordinates              ...  done
Calculating the B-matrix                .... done
Calculating the G-matrix                .... done
Diagonalizing the G-matrix              .... done
The first mode is                       ....   27
The number of degrees of freedom        ....   36

    -----------------------------------------------------------------
                    Redundant Internal Coordinates


    -----------------------------------------------------------------
         Definition                    Initial Value    Approx d2E/dq
    -----------------------------------------------------------------
      1. B(C   1,C   0)                  1.3962         0.610795   
      2. B(C   2,C   0)                  1.3962         0.610799   
      3. B(C   3,C   2)                  1.3983         0.606033   
      4. B(C   4,C   3)                  1.4102         0.580193   
      5. B(C   5,C   4)                  1.4102         0.580187   
      6. B(C   5,C   1)                  1.3983         0.606022   
      7. B(N   6,C   4)                  1.4293         0.484331   
      8. B(O   7,N   6)                  1.1944         1.028323   
      9. B(O   8,N   6)                  1.1944         1.028279   
     10. B(H   9,C   3)                  1.0826         0.370089   
     11. B(H  10,C   0)                  1.0824         0.370340   
     12. B(H  11,C   2)                  1.0824         0.370261   
     13. B(H  12,C   5)                  1.0825         0.370106   
     14. B(H  13,C   1)                  1.0824         0.370277   
     15. A(C   1,C   0,H  10)          120.0080         0.353691   
     16. A(C   1,C   0,C   2)          119.9841         0.431738   
     17. A(C   2,C   0,H  10)          120.0079         0.353692   
     18. A(C   0,C   1,C   5)          120.1546         0.431129   
     19. A(C   0,C   1,H  13)          119.9000         0.353681   
     20. A(C   5,C   1,H  13)          119.9454         0.353212   
     21. A(C   0,C   2,C   3)          120.1547         0.431131   
     22. A(C   3,C   2,H  11)          119.9454         0.353210   
     23. A(C   0,C   2,H  11)          119.8999         0.353679   
     24. A(C   2,C   3,H   9)          118.7069         0.353182   
     25. A(C   2,C   3,C   4)          120.5478         0.427174   
     26. A(C   4,C   3,H   9)          120.7453         0.350590   
     27. A(C   3,C   4,N   6)          120.6945         0.407799   
     28. A(C   3,C   4,C   5)          118.6111         0.423854   
     29. A(C   5,C   4,N   6)          120.6944         0.407798   
     30. A(C   1,C   5,C   4)          120.5476         0.427171   
     31. A(C   4,C   5,H  12)          120.7460         0.350592   
     32. A(C   1,C   5,H  12)          118.7063         0.353184   
     33. A(O   7,N   6,O   8)          119.0460         0.508634   
     34. A(C   4,N   6,O   8)          120.4769         0.445879   
     35. A(C   4,N   6,O   7)          120.4771         0.445883   
     36. D(H  13,C   1,C   0,C   2)    179.9999         0.025770   
     37. D(C   5,C   1,C   0,C   2)     -0.0007         0.025770   
     38. D(C   5,C   1,C   0,H  10)   -179.9998         0.025770   
     39. D(H  13,C   1,C   0,H  10)      0.0009         0.025770   
     40. D(C   3,C   2,C   0,C   1)      0.0007         0.025770   
     41. D(C   3,C   2,C   0,H  10)    179.9997         0.025770   
     42. D(H  11,C   2,C   0,H  10)     -0.0007         0.025770   
     43. D(H  11,C   2,C   0,C   1)   -179.9997         0.025770   
     44. D(H   9,C   3,C   2,H  11)      0.0007         0.025347   
     45. D(H   9,C   3,C   2,C   0)   -179.9997         0.025347   
     46. D(C   4,C   3,C   2,H  11)    179.9997         0.025347   
     47. D(C   4,C   3,C   2,C   0)     -0.0007         0.025347   
     48. D(N   6,C   4,C   3,C   2)   -179.9999         0.023128   
     49. D(C   5,C   4,C   3,H   9)    179.9997         0.023128   
     50. D(C   5,C   4,C   3,C   2)      0.0007         0.023128   
     51. D(N   6,C   4,C   3,H   9)     -0.0009         0.023128   
     52. D(H  12,C   5,C   4,N   6)      0.0001         0.023128   
     53. D(C   1,C   5,C   4,N   6)    179.9999         0.023128   
     54. D(C   1,C   5,C   4,C   3)     -0.0007         0.023128   
     55. D(H  12,C   5,C   1,H  13)     -0.0001         0.025346   
     56. D(H  12,C   5,C   1,C   0)   -179.9995         0.025346   
     57. D(H  12,C   5,C   4,C   3)    179.9995         0.023128   
     58. D(C   4,C   5,C   1,H  13)   -179.9999         0.025346   
     59. D(C   4,C   5,C   1,C   0)      0.0007         0.025346   
     60. D(O   8,N   6,C   4,C   5)     -0.0007         0.018512   
     61. D(O   8,N   6,C   4,C   3)    179.9999         0.018512   
     62. D(O   7,N   6,C   4,C   5)    179.9990         0.018512   
     63. D(O   7,N   6,C   4,C   3)     -0.0004         0.018512   
    -----------------------------------------------------------------

Number of atoms                         .... 14
Number of degrees of freedom            .... 63

         *************************************************************
         *                GEOMETRY OPTIMIZATION CYCLE   1            *
         *************************************************************
---------------------------------
CARTESIAN COORDINATES (ANGSTROEM)
---------------------------------
  C     -3.442720    2.052510   -0.037750
  C     -2.047080    2.082610   -0.061680
  C     -4.112670    0.831770    0.063470
  C     -3.389110   -0.362250    0.141060
  C     -1.979200   -0.348700    0.118140
  C     -1.317400    0.892290    0.015540
  N     -1.236460   -1.567320    0.197260
  O     -1.800980   -2.616270    0.284080
  O     -0.042350   -1.551320    0.177510
  H     -3.932400   -1.295360    0.218910
  H     -4.005170    2.975320   -0.097670
  H     -5.194720    0.810020    0.081900
  H     -0.236240    0.942900   -0.005020
  H     -1.529080    3.029780   -0.140190

----------------------------
CARTESIAN COORDINATES (A.U.)
----------------------------
  NO LB      ZA    FRAG     MASS         X           Y           Z
   0 C     6.0000    0    12.011   -6.505798    3.878682   -0.071337
   1 C     6.0000    0    12.011   -3.868421    3.935563   -0.116558
   2 C     6.0000    0    12.011   -7.771820    1.571818    0.119941
   3 C     6.0000    0    12.011   -6.404490   -0.684553    0.266565
   4 C     6.0000    0    12.011   -3.740146   -0.658948    0.223252
   5 C     6.0000    0    12.011   -2.489525    1.686184    0.029366
   6 N     7.0000    0    14.007   -2.336571   -2.961806    0.372767
   7 O     8.0000    0    15.999   -3.403359   -4.944034    0.536833
   8 O     8.0000    0    15.999   -0.080030   -2.931570    0.335445
   9 H     1.0000    0     1.008   -7.431159   -2.447876    0.413680
  10 H     1.0000    0     1.008   -7.568674    5.622540   -0.184570
  11 H     1.0000    0     1.008   -9.816598    1.530716    0.154769
  12 H     1.0000    0     1.008   -0.446429    1.781823   -0.009486
  13 H     1.0000    0     1.008   -2.889542    5.725454   -0.264921

--------------------------------
INTERNAL COORDINATES (ANGSTROEM)
--------------------------------
 C      0   0   0     0.000000000000     0.00000000     0.00000000
 C      1   0   0     1.396169640302     0.00000000     0.00000000
 C      1   2   0     1.396167840376   119.98411417     0.00000000
 C      3   1   2     1.398300054387   120.15471492     0.00000000
 C      4   3   1     1.410161386863   120.54784567     0.00000000
 C      2   1   3     1.398305236063   120.15459876     0.00000000
 N      5   4   3     1.429320603084   120.69452685   180.00010028
 O      7   5   4     1.194368722506   120.47710421     0.00000000
 O      7   5   4     1.194380489877   120.47691448   179.99991412
 H      4   3   1     1.082552039719   118.70688382   180.00030441
 H      1   2   3     1.082367176609   120.00801894   180.00098226
 H      3   1   2     1.082425484687   119.89989290   180.00030877
 H      6   2   1     1.082539159246   118.70634765   180.00050648
 H      2   1   3     1.082413427947   119.89995956   179.99989288

---------------------------
INTERNAL COORDINATES (A.U.)
---------------------------
 C      0   0   0     0.000000000000     0.00000000     0.00000000
 C      1   0   0     2.638378256665     0.00000000     0.00000000
 C      1   2   0     2.638374855299   119.98411417     0.00000000
 C      3   1   2     2.642404155840   120.15471492     0.00000000
 C      4   3   1     2.664818825802   120.54784567     0.00000000
 C      2   1   3     2.642413947786   120.15459876     0.00000000
 N      5   4   3     2.701024497400   120.69452685   180.00010028
 O      7   5   4     2.257029788457   120.47710421     0.00000000
 O      7   5   4     2.257052025567   120.47691448   179.99991412
 H      4   3   1     2.045726880787   118.70688382   180.00030441
 H      1   2   3     2.045377540136   120.00801894   180.00098226
 H      3   1   2     2.045487726436   119.89989290   180.00030877
 H      6   2   1     2.045702540219   118.70634765   180.00050648
 H      2   1   3     2.045464942499   119.89995956   179.99989288

---------------------
BASIS SET INFORMATION
---------------------
There are 4 groups of distinct atoms

 Group   1 Type C   : 10s4p1d contracted to 3s2p1d pattern {631/31/1}
 Group   2 Type N   : 10s4p1d contracted to 3s2p1d pattern {631/31/1}
 Group   3 Type O   : 10s4p1d contracted to 3s2p1d pattern {631/31/1}
 Group   4 Type H   : 4s contracted to 2s pattern {31}

Atom   0C    basis set group =>   1
Atom   1C    basis set group =>   1
Atom   2C    basis set group =>   1
Atom   3C    basis set group =>   1
Atom   4C    basis set group =>   1
Atom   5C    basis set group =>   1
Atom   6N    basis set group =>   2
Atom   7O    basis set group =>   3
Atom   8O    basis set group =>   3
Atom   9H    basis set group =>   4
Atom  10H    basis set group =>   4
Atom  11H    basis set group =>   4
Atom  12H    basis set group =>   4
Atom  13H    basis set group =>   4

-------------------------
BASIS SET IN INPUT FORMAT
-------------------------

 # Basis set for element : H 
 NewGTO H 
 S 3 
   1      18.7311370000      0.0334945995
   2       2.8253937000      0.2347269467
   3       0.6401217000      0.8137573184
 S 1 
   1       0.1612778000      1.0000000000
  end;

 # Basis set for element : C 
 NewGTO C 
 S 6 
   1    3047.5249000000      0.0018347002
   2     457.3695100000      0.0140373012
   3     103.9486900000      0.0688426061
   4      29.2101550000      0.2321844206
   5       9.2866630000      0.4679413416
   6       3.1639270000      0.3623120322
 S 3 
   1       7.8682724000     -0.1193324086
   2       1.8812885000     -0.1608542116
   3       0.5442493000      1.1434564826
 P 3 
   1       7.8682724000      0.0689990956
   2       1.8812885000      0.3164239798
   3       0.5442493000      0.7443082524
 S 1 
   1       0.1687144000      1.0000000000
 P 1 
   1       0.1687144000      1.0000000000
 D 1 
   1       0.8000000000      1.0000000000
  end;

 # Basis set for element : N 
 NewGTO N 
 S 6 
   1    4173.5110000000      0.0018347994
   2     627.4579000000      0.0139949958
   3     142.9021000000      0.0685869792
   4      40.2343300000      0.2322409295
   5      12.8202100000      0.4690698576
   6       4.3904370000      0.3604548906
 S 3 
   1      11.6263580000     -0.1149610229
   2       2.7162800000     -0.1691180337
   3       0.7722180000      1.1458522281
 P 3 
   1      11.6263580000      0.0675800232
   2       2.7162800000      0.3239071114
   3       0.7722180000      0.7408952549
 S 1 
   1       0.2120313000      1.0000000000
 P 1 
   1       0.2120313000      1.0000000000
 D 1 
   1       0.8000000000      1.0000000000
  end;

 # Basis set for element : O 
 NewGTO O 
 S 6 
   1    5484.6717000000      0.0018310998
   2     825.2349500000      0.0139500985
   3     188.0469600000      0.0684450927
   4      52.9645000000      0.2327142753
   5      16.8975700000      0.4701929501
   6       5.7996353000      0.3585208619
 S 3 
   1      15.5396160000     -0.1107775038
   2       3.5999336000     -0.1480263051
   3       1.0137618000      1.1307670390
 P 3 
   1      15.5396160000      0.0708742995
   2       3.5999336000      0.3397527978
   3       1.0137618000      0.7271585953
 S 1 
   1       0.2700058000      1.0000000000
 P 1 
   1       0.2700058000      1.0000000000
 D 1 
   1       0.8000000000      1.0000000000
  end;

------------------------------------------------------------------------------
                           ORCA GTO INTEGRAL CALCULATION
------------------------------------------------------------------------------

                         BASIS SET STATISTICS AND STARTUP INFO

 # of primitive gaussian shells          ...  155
 # of primitive gaussian functions       ...  263
 # of contracted shells                  ...   64
 # of contracted basis functions         ...  136
 Highest angular momentum                ...    2
 Maximum contraction depth               ...    6
 Integral package used                   ... LIBINT
 Integral threshhold            Thresh   ...  2.500e-11
 Primitive cut-off              TCut     ...  2.500e-12


------------------------------ INTEGRAL EVALUATION ----------------------------


 * One electron integrals 
 Pre-screening matrix                    ... done
 Shell pair data                         ... done (   0.003 sec)

-------------------------------------------------------------------------------
                                 ORCA SCF
-------------------------------------------------------------------------------

------------
SCF SETTINGS
------------
Hamiltonian:
 Density Functional     Method          .... DFT(GTOs)
 Exchange Functional    Exchange        .... B88
   X-Alpha parameter    XAlpha          ....  0.666667
   Becke's b parameter  XBeta           ....  0.004200
 Correlation Functional Correlation     .... LYP
 LDA part of GGA corr.  LDAOpt          .... VWN-5
 Gradients option       PostSCFGGA      .... off
 Hybrid DFT is turned on
   Fraction HF Exchange ScalHFX         ....  0.200000
   Scaling of DF-GGA-X  ScalDFX         ....  0.720000
   Scaling of DF-GGA-C  ScalDFC         ....  0.810000
   Scaling of DF-LDA-C  ScalLDAC        ....  1.000000
   Perturbative correction              ....  0.000000
   Density functional embedding theory  .... OFF
   NL short-range parameter             ....  4.800000


General Settings:
 Integral files         IntName         .... /Users/lailaal-madhagi/Desktop/Testing_XAS_Analysis_code/Nitrobenzene//Results_dir_Nitrobenzene_geom_element_N_2019-11-11_22-18-54//GTE1_Nitrobenzene_geom_2019-11-11_22-19-15//opt
 Hartree-Fock type      HFTyp           .... RHF
 Total Charge           Charge          ....    0
 Multiplicity           Mult            ....    1
 Number of Electrons    NEL             ....   64
 Basis Dimension        Dim             ....  136
 Nuclear Repulsion      ENuc            ....    413.5886281273 Eh

Convergence Acceleration:
 DIIS                   CNVDIIS         .... on
   Start iteration      DIISMaxIt       ....    12
   Startup error        DIISStart       ....  0.200000
   # of expansion vecs  DIISMaxEq       ....     5
   Bias factor          DIISBfac        ....   1.050
   Max. coefficient     DIISMaxC        ....  10.000
 Newton-Raphson         CNVNR           .... off
 SOSCF                  CNVSOSCF        .... on
   Start iteration      SOSCFMaxIt      ....   150
   Startup grad/error   SOSCFStart      ....  0.003300
 Level Shifting         CNVShift        .... on
   Level shift para.    LevelShift      ....    0.2500
   Turn off err/grad.   ShiftErr        ....    0.0010
 Zerner damping         CNVZerner       .... off
 Static damping         CNVDamp         .... on
   Fraction old density DampFac         ....    0.7000
   Max. Damping (<1)    DampMax         ....    0.9800
   Min. Damping (>=0)   DampMin         ....    0.0000
   Turn off err/grad.   DampErr         ....    0.1000
 Fernandez-Rico         CNVRico         .... off

SCF Procedure:
 Maximum # iterations   MaxIter         ....   125
 SCF integral mode      SCFMode         .... Direct
   Integral package                     .... LIBINT
 Reset frequency        DirectResetFreq ....    20
 Integral Threshold     Thresh          ....  2.500e-11 Eh
 Primitive CutOff       TCut            ....  2.500e-12 Eh

Convergence Tolerance:
 Convergence Check Mode ConvCheckMode   .... Total+1el-Energy
 Convergence forced     ConvForced      .... 0
 Energy Change          TolE            ....  1.000e-08 Eh
 1-El. energy change                    ....  1.000e-05 Eh
 Orbital Gradient       TolG            ....  1.000e-05
 Orbital Rotation angle TolX            ....  1.000e-05
 DIIS Error             TolErr          ....  5.000e-07


Diagonalization of the overlap matrix:
Smallest eigenvalue                        ... 4.856e-04
Time for diagonalization                   ...    0.005 sec
Threshold for overlap eigenvalues          ... 1.000e-08
Number of eigenvalues below threshold      ... 0
Time for construction of square roots      ...    0.002 sec
Total time needed                          ...    0.007 sec

-------------------
DFT GRID GENERATION
-------------------

General Integration Accuracy     IntAcc      ...  4.340
Radial Grid Type                 RadialGrid  ... Gauss-Chebyshev
Angular Grid (max. acc.)         AngularGrid ... Lebedev-194
Angular grid pruning method      GridPruning ... 3 (G Style)
Weight generation scheme         WeightScheme... Becke
Basis function cutoff            BFCut       ...    1.0000e-11
Integration weight cutoff        WCut        ...    1.0000e-14
Grids for H and He will be reduced by one unit

# of grid points (after initial pruning)     ...  37344 (   0.0 sec)
# of grid points (after weights+screening)   ...  34661 (   0.1 sec)
nearest neighbour list constructed           ...    0.0 sec
Grid point re-assignment to atoms done       ...    0.0 sec
Grid point division into batches done        ...    0.1 sec
Reduced shell lists constructed in    0.3 sec

Total number of grid points                  ...    34661
Total number of batches                      ...      548
Average number of points per batch           ...       63
Average number of grid points per atom       ...     2476
Average number of shells per batch           ...    42.99 (67.18%)
Average number of basis functions per batch  ...    93.76 (68.94%)
Average number of large shells per batch     ...    33.38 (77.64%)
Average number of large basis fcns per batch ...    73.06 (77.92%)
Maximum spatial batch extension              ...  18.26, 17.60, 22.17 au
Average spatial batch extension              ...   2.98,  2.98,  3.70 au

Time for grid setup =    0.340 sec

------------------------------
INITIAL GUESS: MODEL POTENTIAL
------------------------------
Loading Hartree-Fock densities                     ... done
Calculating cut-offs                               ... done
Setting up the integral package                    ... done
Initializing the effective Hamiltonian             ... done
Starting the Coulomb interaction                   ... done (   0.1 sec)
Reading the grid                                   ... done
Mapping shells                                     ... done
Starting the XC term evaluation                    ... done (   0.3 sec)
  promolecular density results
     # of electrons  =     63.997784808
     EX              =    -55.316392056
     EC              =     -2.212411907
     EX+EC           =    -57.528803963
Transforming the Hamiltonian                       ... done (   0.0 sec)
Diagonalizing the Hamiltonian                      ... done (   0.0 sec)
Back transforming the eigenvectors                 ... done (   0.0 sec)
Now organizing SCF variables                       ... done
                      ------------------
                      INITIAL GUESS DONE (   0.8 sec)
                      ------------------
--------------
SCF ITERATIONS
--------------
               ***  Starting incremental Fock matrix formation  ***

                         ----------------------------
                         !        ITERATION     0   !
                         ----------------------------
   Total Energy        :    -436.257358820944 Eh
   Energy Change       :    -436.257358820944 Eh
   MAX-DP              :       0.081664167463
   RMS-DP              :       0.002757920469
   Actual Damping      :       0.7000
   Actual Level Shift  :       0.2500 Eh
   Int. Num. El.       :    64.00008213 (UP=   32.00004107 DN=   32.00004107)
   Exchange            :   -45.03161772
   Correlation         :    -2.62487788


                         ----------------------------
                         !        ITERATION     1   !
                         ----------------------------
   Total Energy        :    -436.370258718992 Eh
   Energy Change       :      -0.112899898049 Eh
   MAX-DP              :       0.039331341177
   RMS-DP              :       0.001718903436
   Actual Damping      :       0.7000
   Actual Level Shift  :       0.2500 Eh
   Int. Num. El.       :    64.00006608 (UP=   32.00003304 DN=   32.00003304)
   Exchange            :   -44.79067348
   Correlation         :    -2.61669878

                               ***Turning on DIIS***

                         ----------------------------
                         !        ITERATION     2   !
                         ----------------------------
   Total Energy        :    -436.409917082658 Eh
   Energy Change       :      -0.039658363665 Eh
   MAX-DP              :       0.047011162724
   RMS-DP              :       0.002600476614
   Actual Damping      :       0.0000
   Actual Level Shift  :       0.2500 Eh
   Int. Num. El.       :    64.00005888 (UP=   32.00002944 DN=   32.00002944)
   Exchange            :   -44.63633559
   Correlation         :    -2.61098119
   DIIS-Error          :       0.028862426315


                         ----------------------------
                         !        ITERATION     3   !
                         ----------------------------
   Total Energy        :    -436.481882945091 Eh
   Energy Change       :      -0.071965862433 Eh
   MAX-DP              :       0.033071473469
   RMS-DP              :       0.001129514312
   Actual Damping      :       0.0000
   Actual Level Shift  :       0.2500 Eh
   Int. Num. El.       :    64.00004521 (UP=   32.00002260 DN=   32.00002260)
   Exchange            :   -44.39573494
   Correlation         :    -2.60132084
   DIIS-Error          :       0.042850513935
   DIIS coefficients:
      0.60088   0.39912


                         ----------------------------
                         !        ITERATION     4   !
                         ----------------------------
   Total Energy        :    -436.492602997727 Eh
   Energy Change       :      -0.010720052636 Eh
   MAX-DP              :       0.009366183115
   RMS-DP              :       0.000401570987
   Actual Damping      :       0.0000
   Actual Level Shift  :       0.2500 Eh
   Int. Num. El.       :    64.00004423 (UP=   32.00002211 DN=   32.00002211)
   Exchange            :   -44.47574663
   Correlation         :    -2.60450534
   DIIS-Error          :       0.015994543228
   DIIS coefficients:
      0.26800   0.13241   0.59959

                      *** Initiating the SOSCF procedure ***
                           *** Shutting down DIIS ***
                      *** Re-Reading the Fockian *** 
                      *** Removing any level shift *** 

                         ----------------------------
                         !        ITERATION     5   !
                         ----------------------------
   Total Energy        :    -436.493715356794 Eh
   Energy Change       :      -0.001112359067 Eh
   MAX-DP              :       0.002077128432
   RMS-DP              :       0.000119908730
   Orbital gradient    :       0.000947686799
   Orbital Rotation    :       0.000947686799
   Actual Damping      :       0.0000
   Int. Num. El.       :    64.00004259 (UP=   32.00002129 DN=   32.00002129)
   Exchange            :   -44.50137024
   Correlation         :    -2.60575826

               *** Restarting incremental Fock matrix formation ***

                         ----------------------------
                         !        ITERATION     6   !
                         ----------------------------
   Total Energy        :    -436.493747121419 Eh
   Energy Change       :      -0.000031764626 Eh
   MAX-DP              :       0.001470099131
   RMS-DP              :       0.000052461277
   Orbital gradient    :       0.000575536536
   Orbital Rotation    :       0.001617368170
   Actual Damping      :       0.0000
   Int. Num. El.       :    64.00004134 (UP=   32.00002067 DN=   32.00002067)
   Exchange            :   -44.50756336
   Correlation         :    -2.60593195


                         ----------------------------
                         !        ITERATION     7   !
                         ----------------------------
   Total Energy        :    -436.493744460259 Eh
   Energy Change       :       0.000002661160 Eh
   MAX-DP              :       0.000946458746
   RMS-DP              :       0.000028271163
   Orbital gradient    :       0.000687754019
   Orbital Rotation    :       0.000703309134
   Actual Damping      :       0.0000
   Int. Num. El.       :    64.00004097 (UP=   32.00002049 DN=   32.00002049)
   Exchange            :   -44.50605051
   Correlation         :    -2.60590394


                         ----------------------------
                         !        ITERATION     8   !
                         ----------------------------
   Total Energy        :    -436.493750577967 Eh
   Energy Change       :      -0.000006117708 Eh
   MAX-DP              :       0.000153259809
   RMS-DP              :       0.000006205582
   Orbital gradient    :       0.000048337963
   Orbital Rotation    :       0.000082583802
   Actual Damping      :       0.0000
   Int. Num. El.       :    64.00004084 (UP=   32.00002042 DN=   32.00002042)
   Exchange            :   -44.50689748
   Correlation         :    -2.60591438


                         ----------------------------
                         !        ITERATION     9   !
                         ----------------------------
   Total Energy        :    -436.493750561174 Eh
   Energy Change       :       0.000000016793 Eh
   MAX-DP              :       0.000115222942
   RMS-DP              :       0.000003294085
   Orbital gradient    :       0.000056406948
   Orbital Rotation    :       0.000111422081
   Actual Damping      :       0.0000
   Int. Num. El.       :    64.00004079 (UP=   32.00002040 DN=   32.00002040)
   Exchange            :   -44.50715410
   Correlation         :    -2.60592410


                         ----------------------------
                         !        ITERATION    10   !
                         ----------------------------
   Total Energy        :    -436.493750633610 Eh
   Energy Change       :      -0.000000072436 Eh
   MAX-DP              :       0.000034459936
   RMS-DP              :       0.000001592728
   Orbital gradient    :       0.000010464866
   Orbital Rotation    :       0.000038418278
   Actual Damping      :       0.0000
   Int. Num. El.       :    64.00004079 (UP=   32.00002040 DN=   32.00002040)
   Exchange            :   -44.50703390
   Correlation         :    -2.60592021


                         ----------------------------
                         !        ITERATION    11   !
                         ----------------------------
   Total Energy        :    -436.493750631228 Eh
   Energy Change       :       0.000000002383 Eh
   MAX-DP              :       0.000023619104
   RMS-DP              :       0.000000891843
   Orbital gradient    :       0.000016791413
   Orbital Rotation    :       0.000025776298
   Actual Damping      :       0.0000
   Int. Num. El.       :    64.00004081 (UP=   32.00002041 DN=   32.00002041)
   Exchange            :   -44.50695678
   Correlation         :    -2.60591718


                         ----------------------------
                         !        ITERATION    12   !
                         ----------------------------
   Total Energy        :    -436.493750635750 Eh
   Energy Change       :      -0.000000004522 Eh
   MAX-DP              :       0.000013926701
   RMS-DP              :       0.000000438898
   Orbital gradient    :       0.000003041454
   Orbital Rotation    :       0.000011355618
   Actual Damping      :       0.0000
   Int. Num. El.       :    64.00004080 (UP=   32.00002040 DN=   32.00002040)
   Exchange            :   -44.50700098
   Correlation         :    -2.60591871


                         ----------------------------
                         !        ITERATION    13   !
                         ----------------------------
   Total Energy        :    -436.493750635883 Eh
   Energy Change       :      -0.000000000133 Eh
   MAX-DP              :       0.000013121112
   RMS-DP              :       0.000000279412
   Orbital gradient    :       0.000006828521
   Orbital Rotation    :       0.000010737194
   Actual Damping      :       0.0000
   Int. Num. El.       :    64.00004080 (UP=   32.00002040 DN=   32.00002040)
   Exchange            :   -44.50702084
   Correlation         :    -2.60591965


                         ----------------------------
                         !        ITERATION    14   !
                         ----------------------------
   Total Energy        :    -436.493750636221 Eh
   Energy Change       :      -0.000000000339 Eh
   MAX-DP              :       0.000006188405
   RMS-DP              :       0.000000231716
   Orbital gradient    :       0.000002504271
   Orbital Rotation    :       0.000005429909
   Actual Damping      :       0.0000
   Int. Num. El.       :    64.00004080 (UP=   32.00002040 DN=   32.00002040)
   Exchange            :   -44.50700873
   Correlation         :    -2.60591914

                  ***Gradient check signals convergence***
              ***Rediagonalizing the Fockian in SOSCF/NRSCF***

               *****************************************************
               *                     SUCCESS                       *
               *           SCF CONVERGED AFTER  15 CYCLES          *
               *****************************************************

Setting up the final grid:

General Integration Accuracy     IntAcc      ...  5.010
Radial Grid Type                 RadialGrid  ... Gauss-Chebyshev
Angular Grid (max. acc.)         AngularGrid ... Lebedev-434
Angular grid pruning method      GridPruning ... 3 (G Style)
Weight generation scheme         WeightScheme... Becke
Basis function cutoff            BFCut       ...    1.0000e-11
Integration weight cutoff        WCut        ...    1.0000e-14
Grids for H and He will be reduced by one unit

# of grid points (after initial pruning)     ... 129922 (   0.1 sec)
# of grid points (after weights+screening)   ... 119597 (   0.2 sec)
nearest neighbour list constructed           ...    0.0 sec
Grid point re-assignment to atoms done       ...    0.0 sec
Grid point division into batches done        ...    0.7 sec
Reduced shell lists constructed in    1.3 sec

Total number of grid points                  ...   119597
Total number of batches                      ...     1876
Average number of points per batch           ...       63
Average number of grid points per atom       ...     8543
Average number of shells per batch           ...    39.69 (62.01%)
Average number of basis functions per batch  ...    86.25 (63.42%)
Average number of large shells per batch     ...    30.30 (76.34%)
Average number of large basis fcns per batch ...    66.14 (76.69%)
Maximum spatial batch extension              ...  19.45, 16.57, 23.27 au
Average spatial batch extension              ...   2.03,  2.05,  2.32 au

Final grid set up in    1.6 sec
Final integration                            ... done (   1.1 sec)
Change in XC energy                          ...    -0.000144637
Integrated number of electrons               ...    63.999989806
Previous integrated no of electrons          ...    64.000040804

----------------
TOTAL SCF ENERGY
----------------

Total Energy       :         -436.49389527 Eh          -11877.60274 eV

Components:
Nuclear Repulsion  :          413.58862813 Eh           11254.31873 eV
Electronic Energy  :         -850.08252340 Eh          -23131.92147 eV
One Electron Energy:        -1412.35171703 Eh          -38432.04407 eV
Two Electron Energy:          562.26919363 Eh           15300.12260 eV

Virial components:
Potential Energy   :         -870.69954827 Eh          -23692.93923 eV
Kinetic Energy     :          434.20565299 Eh           11815.33650 eV
Virial Ratio       :            2.00526995


DFT components:
N(Alpha)           :       31.999994902786 electrons
N(Beta)            :       31.999994902786 electrons
N(Total)           :       63.999989805571 electrons
E(X)               :      -44.507151325620 Eh       
E(C)               :       -2.605910888477 Eh       
E(XC)              :      -47.113062214097 Eh       
DFET-embed. en.    :        0.000000000000 Eh       

---------------
SCF CONVERGENCE
---------------

  Last Energy change         ...    4.5571e-10  Tolerance :   1.0000e-08
  Last MAX-Density change    ...    3.9963e-06  Tolerance :   1.0000e-07
  Last RMS-Density change    ...    1.4857e-07  Tolerance :   5.0000e-09
  Last Orbital Gradient      ...    2.2155e-06  Tolerance :   1.0000e-05
  Last Orbital Rotation      ...    2.9953e-06  Tolerance :   1.0000e-05

             **** THE GBW FILE WAS UPDATED (/Users/lailaal-madhagi/Desktop/Testing_XAS_Analysis_code/Nitrobenzene//Results_dir_Nitrobenzene_geom_element_N_2019-11-11_22-18-54//GTE1_Nitrobenzene_geom_2019-11-11_22-19-15//opt.gbw) ****
             **** DENSITY FILE WAS UPDATED (/Users/lailaal-madhagi/Desktop/Testing_XAS_Analysis_code/Nitrobenzene//Results_dir_Nitrobenzene_geom_element_N_2019-11-11_22-18-54//GTE1_Nitrobenzene_geom_2019-11-11_22-19-15//opt.scfp.tmp) ****
             **** ENERGY FILE WAS UPDATED (/Users/lailaal-madhagi/Desktop/Testing_XAS_Analysis_code/Nitrobenzene//Results_dir_Nitrobenzene_geom_element_N_2019-11-11_22-18-54//GTE1_Nitrobenzene_geom_2019-11-11_22-19-15//opt.en.tmp) ****
----------------
ORBITAL ENERGIES
----------------

  NO   OCC          E(Eh)            E(eV) 
   0   2.0000     -19.160466      -521.3828 
   1   2.0000     -19.160371      -521.3802 
   2   2.0000     -14.563363      -396.2893 
   3   2.0000     -10.249972      -278.9159 
   4   2.0000     -10.216532      -278.0060 
   5   2.0000     -10.216486      -278.0047 
   6   2.0000     -10.213185      -277.9149 
   7   2.0000     -10.209919      -277.8260 
   8   2.0000     -10.209860      -277.8244 
   9   2.0000      -1.253027       -34.0966 
  10   2.0000      -1.056213       -28.7410 
  11   2.0000      -0.889677       -24.2093 
  12   2.0000      -0.816568       -22.2199 
  13   2.0000      -0.770831       -20.9754 
  14   2.0000      -0.707600       -19.2548 
  15   2.0000      -0.630170       -17.1478 
  16   2.0000      -0.595564       -16.2061 
  17   2.0000      -0.554403       -15.0861 
  18   2.0000      -0.545225       -14.8363 
  19   2.0000      -0.513846       -13.9825 
  20   2.0000      -0.506878       -13.7928 
  21   2.0000      -0.468611       -12.7516 
  22   2.0000      -0.466232       -12.6868 
  23   2.0000      -0.444886       -12.1060 
  24   2.0000      -0.389584       -10.6011 
  25   2.0000      -0.388247       -10.5647 
  26   2.0000      -0.369951       -10.0669 
  27   2.0000      -0.309880        -8.4323 
  28   2.0000      -0.300471        -8.1762 
  29   2.0000      -0.281935        -7.6718 
  30   2.0000      -0.275179        -7.4880 
  31   2.0000      -0.272976        -7.4280 
  32   0.0000      -0.081043        -2.2053 
  33   0.0000      -0.025632        -0.6975 
  34   0.0000       0.012114         0.3296 
  35   0.0000       0.077145         2.0992 
  36   0.0000       0.128916         3.5080 
  37   0.0000       0.137900         3.7525 
  38   0.0000       0.142806         3.8860 
  39   0.0000       0.171748         4.6735 
  40   0.0000       0.177943         4.8421 
  41   0.0000       0.198856         5.4111 
  42   0.0000       0.266540         7.2529 
  43   0.0000       0.268765         7.3135 
  44   0.0000       0.282675         7.6920 
  45   0.0000       0.318295         8.6613 
  46   0.0000       0.338141         9.2013 
  47   0.0000       0.390966        10.6387 
  48   0.0000       0.470150        12.7934 
  49   0.0000       0.487508        13.2658 
  50   0.0000       0.497277        13.5316 
  51   0.0000       0.525936        14.3115 
  52   0.0000       0.551655        15.0113 
  53   0.0000       0.565459        15.3869 
  54   0.0000       0.565761        15.3951 
  55   0.0000       0.574502        15.6330 
  56   0.0000       0.574878        15.6432 
  57   0.0000       0.593554        16.1514 
  58   0.0000       0.600098        16.3295 
  59   0.0000       0.630784        17.1645 
  60   0.0000       0.637938        17.3592 
  61   0.0000       0.640449        17.4275 
  62   0.0000       0.721283        19.6271 
  63   0.0000       0.722722        19.6663 
  64   0.0000       0.776444        21.1281 
  65   0.0000       0.794647        21.6234 
  66   0.0000       0.814543        22.1648 
  67   0.0000       0.829265        22.5655 
  68   0.0000       0.829543        22.5730 
  69   0.0000       0.841997        22.9119 
  70   0.0000       0.845745        23.0139 
  71   0.0000       0.903083        24.5741 
  72   0.0000       0.924296        25.1514 
  73   0.0000       0.930551        25.3216 
  74   0.0000       0.948198        25.8018 
  75   0.0000       0.959185        26.1008 
  76   0.0000       0.990640        26.9567 
  77   0.0000       1.000432        27.2231 
  78   0.0000       1.037888        28.2424 
  79   0.0000       1.066179        29.0122 
  80   0.0000       1.072855        29.1939 
  81   0.0000       1.095943        29.8221 
  82   0.0000       1.167493        31.7691 
  83   0.0000       1.188034        32.3280 
  84   0.0000       1.221825        33.2476 
  85   0.0000       1.276677        34.7401 
  86   0.0000       1.322873        35.9972 
  87   0.0000       1.353144        36.8209 
  88   0.0000       1.401268        38.1305 
  89   0.0000       1.402029        38.1512 
  90   0.0000       1.438310        39.1384 
  91   0.0000       1.452369        39.5210 
  92   0.0000       1.464945        39.8632 
  93   0.0000       1.466174        39.8966 
  94   0.0000       1.485212        40.4147 
  95   0.0000       1.537182        41.8289 
  96   0.0000       1.703530        46.3554 
  97   0.0000       1.745576        47.4995 
  98   0.0000       1.756310        47.7916 
  99   0.0000       1.780726        48.4560 
 100   0.0000       1.814187        49.3665 
 101   0.0000       1.839507        50.0555 
 102   0.0000       1.869210        50.8638 
 103   0.0000       1.887694        51.3668 
 104   0.0000       1.912020        52.0287 
 105   0.0000       1.922184        52.3053 
 106   0.0000       1.954639        53.1884 
 107   0.0000       1.976327        53.7786 
 108   0.0000       2.011959        54.7482 
 109   0.0000       2.037296        55.4376 
 110   0.0000       2.062863        56.1334 
 111   0.0000       2.109554        57.4039 
 112   0.0000       2.142539        58.3014 
 113   0.0000       2.145914        58.3933 
 114   0.0000       2.161868        58.8274 
 115   0.0000       2.236031        60.8455 
 116   0.0000       2.248128        61.1747 
 117   0.0000       2.271875        61.8209 
 118   0.0000       2.278327        61.9964 
 119   0.0000       2.416184        65.7477 
 120   0.0000       2.463073        67.0236 
 121   0.0000       2.579562        70.1935 
 122   0.0000       2.584986        70.3411 
 123   0.0000       2.594535        70.6009 
 124   0.0000       2.604764        70.8792 
 125   0.0000       2.634046        71.6760 
 126   0.0000       2.719654        74.0055 
 127   0.0000       2.720855        74.0382 
 128   0.0000       2.723640        74.1140 
 129   0.0000       2.780412        75.6589 
 130   0.0000       2.886623        78.5490 
 131   0.0000       2.923065        79.5406 
 132   0.0000       2.968775        80.7845 
 133   0.0000       3.123535        84.9957 
 134   0.0000       3.226992        87.8109 
 135   0.0000       3.405429        92.6664 
------------------
MOLECULAR ORBITALS
------------------
                      0         1         2         3         4         5   
                 -19.16047 -19.16037 -14.56336 -10.24997 -10.21653 -10.21649
                   2.00000   2.00000   2.00000   2.00000   2.00000   2.00000
                  --------  --------  --------  --------  --------  --------
  0C   1s         0.000000  0.000005  0.000040  0.000371  0.001739  0.002080
  0C   2s         0.000001  0.000058  0.000364  0.000777 -0.000006 -0.000006
  0C   1pz        0.000003  0.000000  0.000008  0.000013 -0.000001 -0.000022
  0C   1px       -0.000045  0.000001  0.000077  0.000122 -0.000277  0.000018
  0C   1py       -0.000027 -0.000001 -0.000126 -0.000200  0.000078  0.000296
  0C   3s        -0.000011 -0.000830 -0.002677 -0.006498 -0.004865 -0.005641
  0C   2pz        0.000093  0.000021 -0.000113 -0.000266 -0.000129 -0.000164
  0C   2px       -0.001525  0.000225 -0.001063 -0.002499 -0.001400 -0.001378
  0C   2py       -0.000930 -0.000326  0.001744  0.004101  0.002024  0.002494
  0C   1dz2       0.000001  0.000021  0.000078  0.000145 -0.000033 -0.000039
  0C   1dxz      -0.000001  0.000002  0.000005  0.000008 -0.000003  0.000001
  0C   1dyz      -0.000004  0.000002  0.000009  0.000018 -0.000012  0.000002
  0C   1dx2y2    -0.000047 -0.000007 -0.000020 -0.000025 -0.000099  0.000080
  0C   1dxy       0.000024 -0.000015 -0.000038 -0.000046  0.000045 -0.000050
  1C   1s        -0.000005  0.000036  0.000009 -0.000009  0.032057  0.001175
  1C   2s        -0.000012  0.000267  0.000166 -0.000008 -0.000912 -0.000656
  1C   1pz        0.000001  0.000003  0.000020  0.000028 -0.000073 -0.000018
  1C   1px        0.000095  0.000026  0.000008  0.000034 -0.000647  0.000027
  1C   1py       -0.000039 -0.000048 -0.000267 -0.000383  0.001116  0.000233
  1C   3s        -0.000176 -0.001497  0.005104  0.009369  0.011679  0.005175
  1C   2pz        0.000021 -0.000052  0.000129  0.000325  0.000449  0.000253
  1C   2px       -0.002415 -0.001058 -0.000247 -0.001287 -0.000904 -0.001568
  1C   2py        0.000228  0.000919 -0.001689 -0.004105 -0.005844 -0.003075
  1C   1dz2       0.000006  0.000098  0.000062  0.000043  0.000597 -0.000050
  1C   1dxz      -0.000001 -0.000003  0.000001  0.000007 -0.000070 -0.000007
  1C   1dyz       0.000001  0.000014  0.000007  0.000001  0.000093 -0.000004
  1C   1dx2y2     0.000011  0.000027 -0.000015 -0.000068  0.000435  0.000045
  1C   1dxy       0.000011  0.000072  0.000013 -0.000059  0.001060  0.000069
  2C   1s         0.000006  0.000036  0.000009 -0.000009 -0.003622  0.032359
  2C   2s         0.000019  0.000266  0.000166 -0.000008 -0.000515 -0.000982
  2C   1pz       -0.000008  0.000003  0.000006  0.000010  0.000008 -0.000070
  2C   1px        0.000010  0.000030  0.000234  0.000325 -0.000115 -0.000721
  2C   1py        0.000101 -0.000047 -0.000130 -0.000207 -0.000078  0.001087
  2C   3s         0.000138 -0.001501  0.005105  0.009369  0.003393  0.012301
  2C   2pz        0.000178 -0.000101  0.000017 -0.000010 -0.000059  0.000045
  2C   2px       -0.000918 -0.000308  0.001618  0.004248  0.002592  0.006067
  2C   2py       -0.002206  0.001416 -0.000560 -0.000752  0.000251 -0.001877
  2C   1dz2      -0.000003  0.000098  0.000061  0.000043 -0.000138  0.000582
  2C   1dxz       0.000001 -0.000003  0.000002  0.000008  0.000002 -0.000066
  2C   1dyz      -0.000000  0.000015  0.000009  0.000006 -0.000021  0.000106
  2C   1dx2y2    -0.000002  0.000043  0.000019 -0.000010 -0.000060  0.000609
  2C   1dxy      -0.000013  0.000064 -0.000004 -0.000089 -0.000068  0.000969
  3C   1s        -0.000018  0.000029  0.000074 -0.005657 -0.073806  0.991847
  3C   2s        -0.000154  0.000368  0.000685  0.002026 -0.002787  0.036284
  3C   1pz        0.000002  0.000008  0.000001 -0.000027  0.000017 -0.000066
  3C   1px        0.000102  0.000136  0.000012  0.001115 -0.000249  0.000557
  3C   1py       -0.000054 -0.000140 -0.000020  0.000129 -0.000179  0.000777
  3C   3s         0.008010 -0.001579 -0.007509 -0.017100 -0.002307 -0.032612
  3C   2pz        0.000007  0.000054  0.000541  0.000710  0.000143  0.000515
  3C   2px        0.005955 -0.003282 -0.002438 -0.005474 -0.000985 -0.004061
  3C   2py       -0.001332 -0.000046 -0.006756 -0.008398 -0.001721 -0.006072
  3C   1dz2       0.000011  0.000078  0.000205 -0.000487 -0.000031 -0.000583
  3C   1dxz       0.000004  0.000022  0.000033 -0.000019  0.000002  0.000006
  3C   1dyz       0.000009  0.000004  0.000038  0.000023 -0.000009 -0.000053
  3C   1dx2y2     0.000084 -0.000135  0.000078  0.001117 -0.000078  0.000230
  3C   1dxy      -0.000062 -0.000240 -0.000385 -0.000149 -0.000027 -0.000344
  4C   1s        -0.000001 -0.000057 -0.000077 -0.995020 -0.005397 -0.006257
  4C   2s        -0.000003 -0.000242 -0.000039 -0.036730 -0.002156 -0.002502
  4C   1pz        0.000002  0.000016  0.000028 -0.000031  0.000098 -0.000012
  4C   1px       -0.000036  0.000148  0.000267 -0.000285 -0.000689  0.001271
  4C   1py       -0.000026 -0.000242 -0.000438  0.000468 -0.001170 -0.000104
  4C   3s         0.000032  0.002497 -0.006785  0.025522  0.012444  0.014440
  4C   2pz       -0.000823 -0.000316 -0.001160 -0.001070 -0.000441 -0.000198
  4C   2px        0.013479 -0.003236 -0.010892 -0.010051 -0.000116 -0.005323
  4C   2py        0.008250  0.004923  0.017870  0.016489  0.005956  0.003770
  4C   1dz2      -0.000002  0.000094 -0.000030  0.001068  0.000571  0.000673
  4C   1dxz       0.000014  0.000004  0.000020 -0.000010  0.000081  0.000051
  4C   1dyz       0.000051  0.000011 -0.000010  0.000149  0.000137  0.000007
  4C   1dx2y2     0.000617 -0.000020 -0.000131  0.000239  0.000636 -0.001113
  4C   1dxy      -0.000321 -0.000018 -0.000253  0.000471 -0.001008 -0.000208
  5C   1s         0.000018  0.000029  0.000074 -0.005665  0.991859  0.073850
  5C   2s         0.000164  0.000364  0.000685  0.002026  0.036297  0.002615
  5C   1pz       -0.000008  0.000013  0.000001  0.000079  0.000027 -0.000011
  5C   1px        0.000001  0.000062  0.000012 -0.000629 -0.000979  0.000131
  5C   1py        0.000110 -0.000187 -0.000020 -0.000927 -0.000153  0.000116
  5C   3s        -0.008048 -0.001374 -0.007509 -0.017100 -0.031920 -0.007108
  5C   2pz       -0.000468 -0.000227 -0.000040 -0.000228 -0.000165 -0.000062
  5C   2px        0.001597  0.001513  0.007139  0.010000  0.006907  0.003040
  5C   2py        0.005953  0.002732 -0.000956  0.000972  0.000774  0.000195
  5C   1dz2      -0.000010  0.000078  0.000207 -0.000477 -0.000568 -0.000117
  5C   1dxz       0.000001  0.000022  0.000023 -0.000063 -0.000009  0.000003
  5C   1dyz       0.000007  0.000005  0.000002 -0.000132 -0.000104 -0.000017
  5C   1dx2y2     0.000096 -0.000122 -0.000361 -0.000760 -0.000407 -0.000037
  5C   1dxy      -0.000039 -0.000247 -0.000157  0.000826 -0.000001 -0.000080
  6N   1s        -0.000003 -0.000207 -0.995292 -0.000227 -0.000005 -0.000005
  6N   2s         0.000003  0.000261 -0.034026 -0.001228 -0.000220 -0.000255
  6N   1pz       -0.000023  0.000030 -0.000047 -0.000019  0.000007  0.000000
  6N   1px        0.000393  0.000273 -0.000441 -0.000183 -0.000033  0.000084
  6N   1py        0.000230 -0.000460  0.000724  0.000300 -0.000081 -0.000020
  6N   3s        -0.000161 -0.012659  0.022759  0.009878  0.000164  0.000190
  6N   2pz        0.001179 -0.000570 -0.000803 -0.000513 -0.000020 -0.000009
  6N   2px       -0.019647 -0.004964 -0.007535 -0.004815  0.000002 -0.000249
  6N   2py       -0.011748  0.008704  0.012363  0.007901  0.000275  0.000167
  6N   1dz2      -0.000008 -0.000324  0.000926 -0.001190 -0.000032 -0.000037
  6N   1dxz       0.000015 -0.000062  0.000106  0.000076 -0.000002 -0.000005
  6N   1dyz       0.000056 -0.000028  0.000097 -0.000184  0.000002 -0.000009
  6N   1dx2y2     0.000683  0.000326 -0.000513 -0.000675  0.000084 -0.000040
  6N   1dxy      -0.000344  0.000646 -0.000978 -0.001312 -0.000005  0.000066
  7O   1s         0.694717 -0.712557 -0.000119 -0.000001 -0.000010 -0.000005
  7O   2s         0.021852 -0.020983 -0.000521 -0.000039 -0.000147 -0.000166
  7O   1pz       -0.000130  0.000120 -0.000069 -0.000006  0.000000  0.000006
  7O   1px        0.000850 -0.000551  0.000430 -0.000147  0.000024 -0.000002
  7O   1py        0.001568 -0.001500  0.000841  0.000107 -0.000011 -0.000086
  7O   3s        -0.023236  0.015905  0.004010  0.001201  0.000646  0.000310
  7O   2pz        0.000681 -0.000396 -0.000169  0.000035 -0.000024 -0.000023
  7O   2px       -0.002648  0.003595  0.002672  0.001411 -0.000033  0.000089
  7O   2py       -0.008601  0.004578  0.001716 -0.000764  0.000325  0.000288
  7O   1dz2       0.000506 -0.000034 -0.001208  0.000173 -0.000016 -0.000039
  7O   1dxz       0.000016 -0.000047 -0.000146 -0.000010 -0.000000  0.000001
  7O   1dyz       0.000121 -0.000004 -0.000234  0.000043 -0.000004 -0.000009
  7O   1dx2y2     0.000703  0.000125 -0.000689  0.000299 -0.000029 -0.000058
  7O   1dxy      -0.000176  0.000587  0.001660  0.000132  0.000006 -0.000012
  8O   1s        -0.712631 -0.694641 -0.000119 -0.000001 -0.000003 -0.000010
  8O   2s        -0.022379 -0.020420 -0.000521 -0.000039 -0.000142 -0.000170
  8O   1pz       -0.000030 -0.000009  0.000014 -0.000013  0.000001  0.000002
  8O   1px        0.001827  0.001543 -0.000947 -0.000028  0.000077  0.000010
  8O   1py        0.000024 -0.000205  0.000007  0.000179 -0.000034 -0.000032
  8O   3s         0.023634  0.015308  0.004009  0.001201  0.000211  0.000685
  8O   2pz        0.000022  0.000168  0.000160  0.000119  0.000002 -0.000009
  8O   2px       -0.009021 -0.005505 -0.002759  0.000031 -0.000254 -0.000315
  8O   2py        0.001593 -0.001111 -0.001573 -0.001600  0.000027  0.000185
  8O   1dz2      -0.000514 -0.000023 -0.001222  0.000175 -0.000037 -0.000022
  8O   1dxz       0.000012 -0.000040 -0.000089 -0.000018  0.000002  0.000001
  8O   1dyz      -0.000017  0.000019 -0.000032  0.000013 -0.000002 -0.000001
  8O   1dx2y2     0.000563  0.000394  0.001765 -0.000065  0.000020  0.000025
  8O   1dxy      -0.000465  0.000452  0.000386  0.000321 -0.000051 -0.000028
  9H   1s        -0.000239  0.000136 -0.000281 -0.000126  0.000052 -0.001330
  9H   2s         0.000591 -0.000884 -0.002182 -0.002494 -0.000575  0.002697
 10H   1s         0.000001  0.000096 -0.000069 -0.000177 -0.000054 -0.000062
 10H   2s         0.000002  0.000133 -0.000641 -0.001398 -0.000324 -0.000375
 11H   1s        -0.000105  0.000073 -0.000020  0.000045  0.000111 -0.000146
 11H   2s        -0.000309 -0.000120 -0.000053  0.000525  0.000789  0.001439
 12H   1s         0.000242  0.000130 -0.000281 -0.000127 -0.001323 -0.000146
 12H   2s        -0.000613 -0.000869 -0.002182 -0.002494  0.002752 -0.000169
 13H   1s         0.000106  0.000070 -0.000020  0.000045 -0.000160  0.000089
 13H   2s         0.000306 -0.000128 -0.000053  0.000525  0.001305  0.000993
                      6         7         8         9        10        11   
                 -10.21318 -10.20992 -10.20986  -1.25303  -1.05621  -0.88968
                   2.00000   2.00000   2.00000   2.00000   2.00000   2.00000
                  --------  --------  --------  --------  --------  --------
  0C   1s         0.990743 -0.047784 -0.080303  0.000016  0.000000 -0.072214
  0C   2s         0.036080 -0.003265 -0.005532 -0.001433  0.000000  0.137129
  0C   1pz        0.000044 -0.000100 -0.000010 -0.000040  0.000003  0.002787
  0C   1px        0.000418  0.000875 -0.001151 -0.000377 -0.000055  0.026137
  0C   1py       -0.000683  0.001156  0.000373  0.000619 -0.000033 -0.042870
  0C   3s        -0.031139  0.011161  0.019045  0.008324  0.000006  0.082960
  0C   2pz       -0.000372  0.000414  0.000349  0.000276 -0.000367  0.000211
  0C   2px       -0.003499 -0.000159  0.005635  0.002588  0.006045  0.002114
  0C   2py        0.005737 -0.005527 -0.005864 -0.004247  0.003658 -0.003465
  0C   1dz2      -0.000536  0.000464  0.000807 -0.000159 -0.000001 -0.007033
  0C   1dxz      -0.000040  0.000072  0.000070 -0.000018  0.000003 -0.000170
  0C   1dyz      -0.000062  0.000134  0.000038 -0.000017  0.000010 -0.000913
  0C   1dx2y2     0.000166  0.000778 -0.000987  0.000086  0.000118 -0.000095
  0C   1dxy       0.000311 -0.000965 -0.000448  0.000165 -0.000062 -0.000253
  1C   1s         0.065295 -0.253866  0.959465  0.000181  0.000540 -0.075648
  1C   2s         0.000270 -0.009235  0.035483 -0.001966 -0.000935  0.143351
  1C   1pz       -0.000021 -0.000026  0.000066 -0.000109 -0.000048  0.003948
  1C   1px        0.001316  0.000267 -0.000454 -0.000178 -0.000780 -0.019761
  1C   1py        0.000001  0.000299 -0.000805  0.001499  0.000798 -0.048896
  1C   3s         0.011354  0.002598 -0.034526 -0.012091  0.000109  0.095302
  1C   2pz        0.000347 -0.000071 -0.000625 -0.000198 -0.000088  0.000663
  1C   2px       -0.004512  0.000542  0.004396  0.002348  0.009184 -0.001907
  1C   2py       -0.003720  0.000836  0.007490  0.002182 -0.000707 -0.008577
  1C   1dz2       0.000570  0.000080 -0.000667 -0.000236  0.000139 -0.007435
  1C   1dxz       0.000032 -0.000001  0.000007  0.000004 -0.000007 -0.000161
  1C   1dyz      -0.000012  0.000006 -0.000056 -0.000027  0.000021 -0.001005
  1C   1dx2y2    -0.001144 -0.000051  0.000315  0.000023  0.000065 -0.000650
  1C   1dxy       0.000021  0.000054 -0.000410 -0.000138  0.000126 -0.000422
  2C   1s         0.066333  0.960465  0.249721  0.000181 -0.000540 -0.075643
  2C   2s         0.000308  0.035448  0.009367 -0.001966  0.000934  0.143352
  2C   1pz        0.000096 -0.000021  0.000004 -0.000043  0.000073 -0.000441
  2C   1px       -0.000606  0.000998  0.000115 -0.001253  0.000351  0.052651
  2C   1py       -0.001164  0.000076 -0.000072  0.000848 -0.001057 -0.005058
  2C   3s         0.011326 -0.031380 -0.014671 -0.012074 -0.000131  0.095118
  2C   2pz       -0.000253  0.000135  0.000102  0.000126 -0.000683  0.000034
  2C   2px        0.005387 -0.007098 -0.005127 -0.003015  0.003588  0.008377
  2C   2py        0.002277 -0.000337 -0.000295 -0.001080  0.008452 -0.002170
  2C   1dz2       0.000559 -0.000617 -0.000256 -0.000235 -0.000139 -0.007437
  2C   1dxz       0.000073 -0.000011 -0.000004  0.000000  0.000007 -0.000142
  2C   1dyz       0.000137 -0.000116 -0.000047 -0.000039 -0.000021 -0.000943
  2C   1dx2y2     0.000669 -0.000482 -0.000187 -0.000124 -0.000065  0.000095
  2C   1dxy      -0.000921  0.000022 -0.000000 -0.000062 -0.000126 -0.000804
  3C   1s        -0.004019 -0.031781 -0.006991  0.003456 -0.004323 -0.091514
  3C   2s        -0.000295 -0.003165 -0.001266 -0.010143  0.009075  0.175149
  3C   1pz        0.000022  0.000073  0.000028 -0.000110  0.000202 -0.003666
  3C   1px        0.000041  0.000657  0.000069 -0.006322  0.004197  0.045472
  3C   1py       -0.000306 -0.001117 -0.000392  0.002796 -0.003582  0.039757
  3C   3s        -0.004878  0.014253  0.007697  0.024214 -0.022629  0.098324
  3C   2pz        0.000220 -0.000424 -0.000349 -0.001941 -0.000045  0.000400
  3C   2px       -0.001206  0.001326  0.001397  0.015116 -0.020523  0.002180
  3C   2py       -0.002700  0.005425  0.004395  0.022974  0.004865 -0.005775
  3C   1dz2      -0.000004  0.000617  0.000089  0.000219 -0.000480 -0.008911
  3C   1dxz      -0.000008 -0.000066 -0.000018 -0.000123 -0.000026 -0.000271
  3C   1dyz       0.000006  0.000096  0.000015 -0.000042 -0.000071 -0.001015
  3C   1dx2y2     0.000098  0.000428  0.000105 -0.000553 -0.000084  0.001864
  3C   1dxy       0.000079  0.001021  0.000256  0.001855  0.000185  0.000001
  4C   1s         0.000282  0.000151  0.000256  0.026335  0.000001 -0.123715
  4C   2s        -0.000565  0.000104  0.000175 -0.049539 -0.000002  0.242507
  4C   1pz        0.000010  0.000004  0.000010 -0.002509  0.001277 -0.000784
  4C   1px        0.000089  0.000073  0.000073 -0.023563 -0.021054 -0.007338
  4C   1py       -0.000147 -0.000069 -0.000150  0.038662 -0.012749  0.012039
  4C   3s         0.003395 -0.004878 -0.008330  0.009395  0.000016  0.131539
  4C   2pz       -0.000254 -0.000018  0.000237  0.004834  0.002756 -0.002063
  4C   2px       -0.002385  0.002866  0.000453  0.045447 -0.045459 -0.019677
  4C   2py        0.003916 -0.000352 -0.003284 -0.074530 -0.027544  0.032084
  4C   1dz2      -0.000060 -0.000011 -0.000020  0.003853  0.000035 -0.011001
  4C   1dxz      -0.000008 -0.000007 -0.000008 -0.000367 -0.000146 -0.000169
  4C   1dyz      -0.000006 -0.000006  0.000003  0.000630 -0.000521 -0.001457
  4C   1dx2y2     0.000043 -0.000038  0.000093  0.002953 -0.006331 -0.000755
  4C   1dxy       0.000083  0.000094  0.000080  0.005727  0.003289 -0.001572
  5C   1s        -0.003895  0.009388 -0.030663  0.003456  0.004325 -0.091514
  5C   2s        -0.000289  0.000446 -0.003362 -0.010139 -0.009067  0.175144
  5C   1pz        0.000009 -0.000023  0.000068 -0.000518 -0.000379  0.002505
  5C   1px        0.000253 -0.000063  0.000758  0.000427 -0.001251 -0.056362
  5C   1py       -0.000177  0.000328 -0.001074  0.006880  0.005361 -0.021897
  5C   3s        -0.004892 -0.000274  0.016178  0.024193  0.022609  0.098325
  5C   2pz       -0.000033  0.000018 -0.000007  0.000630  0.001593  0.000286
  5C   2px        0.002963 -0.001307 -0.006972 -0.027444 -0.005164  0.004293
  5C   2py       -0.000179  0.000036  0.001544 -0.002760 -0.020376 -0.004777
  5C   1dz2      -0.000004 -0.000225  0.000580  0.000206  0.000482 -0.008896
  5C   1dxz      -0.000010  0.000016 -0.000063 -0.000069  0.000019 -0.000335
  5C   1dyz      -0.000002 -0.000037  0.000104  0.000154  0.000048 -0.001250
  5C   1dx2y2     0.000008 -0.000157  0.000581  0.001833 -0.000204 -0.000995
  5C   1dxy       0.000125 -0.000258  0.000934  0.000614 -0.000038  0.001492
  6N   1s        -0.000031 -0.000010 -0.000017  0.164910  0.000004 -0.023107
  6N   2s        -0.000308 -0.000117 -0.000201 -0.356199 -0.000010  0.047779
  6N   1pz        0.000002 -0.000001  0.000002 -0.005783  0.017739 -0.008559
  6N   1px        0.000016  0.000033  0.000001 -0.054266 -0.292711 -0.080369
  6N   1py       -0.000027  0.000000 -0.000033  0.089056 -0.177250  0.131862
  6N   3s         0.002612  0.000060  0.000108 -0.205303 -0.000022  0.088243
  6N   2pz       -0.000062  0.000031 -0.000081  0.003993  0.000130 -0.003405
  6N   2px       -0.000585 -0.001214  0.000122  0.037480 -0.002244 -0.031875
  6N   2py        0.000958 -0.000161  0.001059 -0.061498 -0.001365  0.052335
  6N   1dz2      -0.000051 -0.000015 -0.000027  0.016673  0.000152 -0.000661
  6N   1dxz      -0.000001  0.000002  0.000005  0.001165 -0.000622  0.000549
  6N   1dyz      -0.000007 -0.000006 -0.000003  0.001954 -0.002217 -0.000245
  6N   1dx2y2    -0.000004 -0.000051 -0.000011 -0.004580 -0.026969 -0.003570
  6N   1dxy      -0.000007 -0.000017 -0.000069 -0.008641  0.014004 -0.006882
  7O   1s        -0.000000  0.000001 -0.000005  0.107266 -0.141116  0.028191
  7O   2s        -0.000022 -0.000029 -0.000081 -0.231736  0.311789 -0.065633
  7O   1pz        0.000001  0.000002 -0.000001  0.009619 -0.009711  0.000493
  7O   1px       -0.000014  0.000015  0.000002 -0.069037  0.039163 -0.030541
  7O   1py       -0.000013 -0.000028  0.000007 -0.114891  0.122358 -0.000248
  7O   3s        -0.000028 -0.000349  0.000627 -0.196407  0.298198 -0.062033
  7O   2pz        0.000007  0.000011 -0.000014  0.003638 -0.004447  0.000318
  7O   2px        0.000053 -0.000068  0.000213 -0.032704  0.014974 -0.008250
  7O   2py       -0.000108 -0.000140  0.000147 -0.042055  0.056698 -0.002550
  7O   1dz2       0.000007 -0.000020 -0.000015  0.007919 -0.005290 -0.000141
  7O   1dxz       0.000000  0.000001 -0.000003  0.001254 -0.000379  0.000276
  7O   1dyz       0.000004  0.000000 -0.000001  0.001736 -0.001603 -0.000156
  7O   1dx2y2     0.000034  0.000033  0.000021  0.006270 -0.011119 -0.002529
  7O   1dxy      -0.000009 -0.000024  0.000028 -0.015287  0.005513 -0.003237
  8O   1s        -0.000000 -0.000005 -0.000002  0.107258  0.141123  0.028192
  8O   2s        -0.000022 -0.000056 -0.000065 -0.231717 -0.311804 -0.065630
  8O   1pz       -0.000001 -0.000001  0.000001 -0.002689 -0.000357 -0.002224
  8O   1px        0.000018 -0.000015  0.000012  0.134099  0.126998  0.014295
  8O   1py        0.000006  0.000014 -0.000022  0.008128 -0.021737  0.026905
  8O   3s        -0.000027  0.000717  0.000003 -0.196391 -0.298208 -0.062058
  8O   2pz        0.000006  0.000012  0.000004 -0.001527  0.000067 -0.000544
  8O   2px        0.000072 -0.000276  0.000023  0.052511  0.057380  0.006079
  8O   2py       -0.000096 -0.000103 -0.000063  0.009554 -0.012874  0.006117
  8O   1dz2       0.000007 -0.000004 -0.000025  0.008043  0.005410 -0.000148
  8O   1dxz      -0.000001 -0.000002 -0.000002  0.000737 -0.000128  0.000306
  8O   1dyz      -0.000001  0.000001 -0.000006 -0.000112 -0.000214 -0.000047
  8O   1dx2y2    -0.000027  0.000029 -0.000028 -0.016181 -0.010955 -0.001192
  8O   1dxy       0.000023  0.000022  0.000028 -0.003628  0.005949 -0.003931
  9H   1s        -0.000105 -0.000134  0.000073 -0.001282  0.004158  0.033681
  9H   2s        -0.000497  0.000801  0.001126  0.009807 -0.000406 -0.001652
 10H   1s        -0.001384 -0.000027 -0.000048  0.000000 -0.000000  0.025741
 10H   2s         0.002793  0.000758  0.001300  0.001843 -0.000000  0.001886
 11H   1s        -0.000234 -0.001303 -0.000384 -0.000056  0.000486  0.026987
 11H   2s         0.001393  0.002502  0.000142  0.001176  0.001334  0.002613
 12H   1s        -0.000105  0.000130 -0.000081 -0.001279 -0.004156  0.033670
 12H   2s        -0.000497  0.000588  0.001252  0.009822  0.000434 -0.001708
 13H   1s        -0.000232  0.000305 -0.001324 -0.000056 -0.000486  0.026997
 13H   2s         0.001390 -0.001107  0.002251  0.001172 -0.001341  0.002658
                     12        13        14        15        16        17   
                  -0.81657  -0.77083  -0.70760  -0.63017  -0.59556  -0.55440
                   2.00000   2.00000   2.00000   2.00000   2.00000   2.00000
                  --------  --------  --------  --------  --------  --------
  0C   1s         0.112438 -0.000000  0.113864 -0.000002 -0.071764 -0.010267
  0C   2s        -0.216559  0.000014 -0.229135 -0.000008  0.146396  0.020527
  0C   1pz       -0.002516  0.005868  0.001376 -0.010468 -0.001730 -0.006191
  0C   1px       -0.023590 -0.096842  0.012932  0.172796 -0.016272 -0.058107
  0C   1py        0.038672 -0.058652 -0.021267  0.104632  0.026653  0.095387
  0C   3s        -0.155865 -0.000122 -0.167603  0.000166  0.114149  0.052434
  0C   2pz       -0.000242  0.000937  0.002056 -0.002580 -0.001739 -0.001592
  0C   2px       -0.002328 -0.015468  0.019329  0.042700 -0.016432 -0.014934
  0C   2py        0.003955 -0.009288 -0.031607  0.025705  0.026961  0.024442
  0C   1dz2       0.009488  0.000054  0.006792 -0.000046 -0.002678 -0.001115
  0C   1dxz       0.000295 -0.000207  0.000147  0.000177  0.000501 -0.000097
  0C   1dyz       0.001214 -0.000741  0.000887  0.000630 -0.000507 -0.000125
  0C   1dx2y2    -0.000288 -0.009005  0.000194  0.007652 -0.003594  0.000427
  0C   1dxy      -0.000462  0.004672  0.000434 -0.003968 -0.006946  0.000819
  1C   1s         0.082116  0.111406  0.014494 -0.089308  0.061202 -0.003174
  1C   2s        -0.157488 -0.218188 -0.029298  0.181240 -0.126280  0.006914
  1C   1pz       -0.001508 -0.002748  0.003941 -0.006299  0.004265 -0.007795
  1C   1px        0.058531 -0.040859  0.117505 -0.055944 -0.165577  0.045464
  1C   1py        0.007967  0.045411 -0.077579  0.096433 -0.022761  0.095300
  1C   3s        -0.103915 -0.159836 -0.043070  0.140877 -0.122430 -0.004621
  1C   2pz        0.000195  0.000426  0.000376 -0.003728  0.002256 -0.003563
  1C   2px        0.005148 -0.011332  0.024824 -0.003082 -0.056416  0.027710
  1C   2py       -0.003489 -0.003320 -0.009948  0.050476 -0.018706  0.042180
  1C   1dz2       0.006953  0.008267  0.001053 -0.004173  0.002746 -0.000774
  1C   1dxz       0.000445 -0.000085  0.000496 -0.000576  0.000032  0.000065
  1C   1dyz       0.000633  0.001318 -0.000454 -0.000560  0.000744  0.000048
  1C   1dx2y2    -0.004111  0.003992 -0.008808  0.000978  0.005077  0.001676
  1C   1dxy      -0.002574  0.003339 -0.004437  0.005999 -0.000473 -0.001501
  2C   1s         0.082107 -0.111411  0.014478  0.089321  0.061185 -0.003160
  2C   2s        -0.157478  0.218169 -0.029284 -0.181206 -0.126215  0.006879
  2C   1pz        0.004106  0.003910  0.010157  0.006050 -0.011612  0.001368
  2C   1px       -0.034082  0.021619  0.014910  0.060101  0.096540 -0.105773
  2C   1py       -0.048091 -0.057077 -0.139677 -0.093902  0.136012  0.003669
  2C   3s        -0.103831  0.159952 -0.042894 -0.141223 -0.122522 -0.004826
  2C   2pz        0.000438  0.000752  0.002020  0.001267 -0.003756  0.001169
  2C   2px        0.000883 -0.008167 -0.002438  0.043470  0.042662 -0.050509
  2C   2py       -0.006101 -0.008389 -0.026571 -0.026064  0.041346 -0.005001
  2C   1dz2       0.006928 -0.008294  0.000990  0.004201  0.002798 -0.000749
  2C   1dxz       0.000542  0.000170  0.000731  0.000497 -0.000163 -0.000024
  2C   1dyz       0.000987 -0.001020  0.000388  0.000284  0.000053 -0.000268
  2C   1dx2y2     0.000196 -0.000359  0.001424 -0.004382 -0.003332 -0.002181
  2C   1dxy      -0.004815 -0.005216 -0.009758 -0.004243  0.003895  0.000509
  3C   1s        -0.002438 -0.113758 -0.085983 -0.085219  0.017875 -0.007195
  3C   2s         0.007610  0.223635  0.168612  0.173130 -0.040691  0.011154
  3C   1pz        0.003255 -0.002719 -0.001853  0.006551 -0.002880  0.009221
  3C   1px        0.068945 -0.038172  0.013891  0.071465  0.208311 -0.062293
  3C   1py       -0.058168  0.044496  0.022001 -0.102998 -0.004768 -0.110911
  3C   3s        -0.005610  0.167440  0.150399  0.154488 -0.006034  0.065228
  3C   2pz        0.001477  0.000290 -0.000852  0.003957 -0.003651 -0.000021
  3C   2px        0.001214 -0.013218  0.002844  0.012148  0.076783  0.016999
  3C   2py       -0.020051 -0.001111  0.010862 -0.055747  0.033254 -0.003479
  3C   1dz2       0.000025 -0.008539 -0.005529 -0.004188  0.000649 -0.001507
  3C   1dxz      -0.000214  0.000065 -0.000592 -0.000568 -0.000606 -0.000073
  3C   1dyz       0.000517 -0.001332 -0.000725 -0.000457  0.000510 -0.000217
  3C   1dx2y2     0.007160 -0.003693  0.001080  0.002323  0.007129 -0.000175
  3C   1dxy       0.001398 -0.003228  0.005711  0.005618  0.006906  0.000469
  4C   1s        -0.103130 -0.000004 -0.014773 -0.000016 -0.077076  0.001056
  4C   2s         0.209413 -0.000009  0.024902  0.000013  0.162805  0.002052
  4C   1pz        0.006363  0.006330 -0.012513  0.011682 -0.008916  0.006281
  4C   1px        0.059744 -0.104472 -0.117461 -0.192869 -0.083693  0.058834
  4C   1py       -0.098028 -0.063263  0.192718 -0.116758  0.137385 -0.096608
  4C   3s         0.133047  0.000132  0.038495  0.000224  0.110904 -0.015474
  4C   2pz       -0.000358  0.001218 -0.000458  0.001564  0.002098  0.008211
  4C   2px       -0.003637 -0.020192 -0.004545 -0.025962  0.019629  0.077052
  4C   2py        0.005608 -0.012147  0.007378 -0.015651 -0.032292 -0.126397
  4C   1dz2      -0.008660 -0.000052  0.001034 -0.000038 -0.000022 -0.001929
  4C   1dxz       0.000325  0.000199 -0.001182  0.000139 -0.000564 -0.000108
  4C   1dyz      -0.001276  0.000715  0.000474  0.000499  0.000155 -0.000235
  4C   1dx2y2    -0.003473  0.008696  0.007617  0.006079  0.003546  0.000365
  4C   1dxy      -0.006788 -0.004510  0.014679 -0.003149  0.006830  0.000684
  5C   1s        -0.002439  0.113762 -0.085989  0.085227  0.017852 -0.007178
  5C   2s         0.007584 -0.223608  0.168589 -0.173078 -0.040629  0.011094
  5C   1pz        0.006221  0.003693  0.000566 -0.007320  0.015295 -0.002273
  5C   1px        0.020012  0.022025 -0.025982 -0.058826 -0.091743  0.127447
  5C   1py       -0.087790 -0.054283 -0.002150  0.110633 -0.186504  0.004030
  5C   3s        -0.005314 -0.167583  0.150632 -0.154712 -0.006012  0.065098
  5C   2pz        0.000507  0.000941 -0.000028 -0.002017  0.004947  0.001301
  5C   2px        0.017233 -0.007087 -0.011014 -0.044077 -0.064962 -0.004518
  5C   2py       -0.010502 -0.011052  0.002463  0.036621 -0.052689 -0.016747
  5C   1dz2       0.000077  0.008564 -0.005552  0.004202  0.000683 -0.001510
  5C   1dxz      -0.000447 -0.000141 -0.000520  0.000544 -0.000735 -0.000058
  5C   1dyz      -0.000318  0.001065 -0.000478  0.000380  0.000050 -0.000161
  5C   1dx2y2    -0.002977  0.000439  0.004099 -0.003298  0.001541  0.000504
  5C   1dxy       0.006664  0.004908  0.004143 -0.005122  0.009809  0.000127
  6N   1s        -0.052641 -0.000001  0.070556  0.000006  0.055588  0.061410
  6N   2s         0.121004 -0.000004 -0.170599 -0.000018 -0.140965 -0.161574
  6N   1pz       -0.013995 -0.000210  0.012051  0.000984  0.002504 -0.012934
  6N   1px       -0.131407  0.003452  0.113149 -0.016323  0.023467 -0.121892
  6N   1py        0.215600  0.002089 -0.185647 -0.009903 -0.038499  0.199992
  6N   3s         0.148342  0.000010 -0.204698 -0.000041 -0.180238 -0.195715
  6N   2pz       -0.004658  0.000006  0.004831  0.001810  0.002501 -0.000597
  6N   2px       -0.043642 -0.000140  0.045479 -0.029936  0.023451 -0.005992
  6N   2py        0.071757 -0.000051 -0.074561 -0.018109 -0.038495  0.009745
  6N   1dz2       0.000362 -0.000024 -0.002289 -0.000051 -0.002972 -0.001776
  6N   1dxz       0.000675  0.000098 -0.000346  0.000211 -0.000049 -0.000822
  6N   1dyz      -0.000140  0.000350 -0.000216  0.000750 -0.000393 -0.000013
  6N   1dx2y2    -0.004188  0.004254  0.001798  0.009123 -0.000187  0.004894
  6N   1dxy      -0.008067 -0.002211  0.003440 -0.004740 -0.000383  0.009403
  7O   1s         0.044216  0.007958 -0.046183  0.017455 -0.043436 -0.080152
  7O   2s        -0.103178 -0.018690  0.107333 -0.039782  0.099915  0.179641
  7O   1pz       -0.000520  0.000054  0.003295 -0.001325  0.006468  0.014242
  7O   1px       -0.045886 -0.005684  0.028575 -0.012752 -0.024947 -0.199380
  7O   1py        0.016582  0.000457 -0.050271  0.020423 -0.081696 -0.149442
  7O   3s        -0.108018 -0.019284  0.130229 -0.065731  0.138988  0.271437
  7O   2pz       -0.000103  0.000000  0.001298 -0.000200  0.003004  0.006655
  7O   2px       -0.016229 -0.003103  0.011191 -0.009461 -0.011450 -0.106771
  7O   2py        0.004745  0.000623 -0.019769  0.004601 -0.037937 -0.066972
  7O   1dz2      -0.001139 -0.000290  0.002508 -0.001334  0.003827  0.007980
  7O   1dxz       0.000380  0.000034 -0.000147  0.000062  0.000303  0.001561
  7O   1dyz      -0.000552 -0.000033  0.000885 -0.000228  0.000914  0.001180
  7O   1dx2y2    -0.006289 -0.000062  0.007753 -0.000972  0.004812 -0.001775
  7O   1dxy      -0.004230 -0.000555  0.001286 -0.001117 -0.003663 -0.017629
  8O   1s         0.044216 -0.007958 -0.046180 -0.017464 -0.043433 -0.080155
  8O   2s        -0.103168  0.018683  0.107328  0.039791  0.099901  0.179645
  8O   1pz       -0.003687  0.000424  0.003113  0.001346 -0.000147 -0.011461
  8O   1px        0.006382 -0.002213  0.031592  0.012318  0.084230  0.224931
  8O   1py        0.048234 -0.005242 -0.048444 -0.020709 -0.015581  0.107483
  8O   3s        -0.108105  0.019319  0.130188  0.065810  0.139001  0.271492
  8O   2pz       -0.001278  0.000237  0.001221  0.000778 -0.000061 -0.006411
[...]
 3 C  dyz             0.1       2.2       2.8       0.2       0.0       0.0
 3 C  dx2y2           0.4       0.0       0.0       8.5       0.4       0.2
 3 C  dxy             4.8       0.0       0.0       0.4       1.0       4.9
 4 C  s               0.0       0.0       0.0       0.0       3.5       0.1
 4 C  px              2.3       0.0       0.0       0.6       0.1       0.1
 4 C  py              0.8       0.0       0.0       0.2       0.2       0.3
 4 C  dz2             0.0       0.2       0.0       0.0      10.9       1.3
 4 C  dxz             0.0       5.2       4.2       0.0       0.0       0.1
 4 C  dyz             0.0      13.8       1.5       0.0       0.2       0.0
 4 C  dx2y2           4.6       0.1       0.0       0.5       0.1       4.1
 4 C  dxy             1.2       0.0       0.0       0.1       0.2      15.2
 5 C  s               2.5       0.0       0.0       1.9       0.3       0.6
 5 C  pz              0.0       0.2       0.0       0.0       0.0       0.0
 5 C  px              0.3       0.0       0.0       0.1       0.1       0.1
 5 C  py              1.1       0.0       0.0       0.8       0.3       1.3
 5 C  dz2             8.2       0.0       0.2       5.0       0.3       1.7
 5 C  dxz             0.1       3.7       0.1       0.0       0.0       0.0
 5 C  dyz             0.1       0.2       9.6       0.0       0.0       0.1
 5 C  dx2y2           2.1       0.0       0.1       1.4       1.5       4.4
 5 C  dxy             3.2       0.0       0.0       7.6       0.0       0.8
 6 N  s               0.0       0.0       0.0       0.0       5.2       0.6
 6 N  pz              0.0       1.3       0.0       0.0       0.0       0.0
 6 N  px              1.0       0.0       0.0       0.0       0.2       0.8
 6 N  py              0.4       0.0       0.0       0.0       0.6       2.1
 6 N  dz2             0.0       0.3       0.1       0.0       6.2       0.3
 6 N  dxz             0.0       9.4       9.8       0.0       0.0       0.0
 6 N  dyz             0.1      24.9       3.5       0.0       0.1       0.0
 6 N  dx2y2          14.3       0.2       0.0       1.7       0.3       0.2
 6 N  dxy             3.9       0.0       0.1       0.5       1.0       0.6
 7 O  s               1.4       0.0       0.0       0.2       0.3       0.6
 7 O  pz              0.0       0.7       0.3       0.0       0.0       0.0
 7 O  px              0.3       0.0       0.0       0.0       0.1       0.4
 7 O  py              1.3       0.0       0.0       0.2       0.3       0.0
 7 O  dz2             0.9       0.1       0.1       0.2       0.0       0.0
 7 O  dxz             0.0      11.6       0.9       0.0       0.0       0.0
 7 O  dyz             0.1       4.6       7.2       0.0       0.0       0.0
 7 O  dx2y2           3.9       0.0       0.0       0.4       0.5       1.5
 7 O  dxy             0.9       0.1       0.0       0.8       1.6       3.3
 8 O  s               1.4       0.0       0.0       0.2       0.3       0.6
 8 O  pz              0.0       0.7       0.3       0.0       0.0       0.0
 8 O  px              1.2       0.0       0.0       0.1       0.4       0.1
 8 O  py              0.4       0.0       0.0       0.1       0.0       0.2
 8 O  dz2             0.9       0.1       0.0       0.2       0.0       0.0
 8 O  dxz             0.0      12.1       8.0       0.0       0.0       0.0
 8 O  dyz             0.0       4.0       0.2       0.0       0.0       0.0
 8 O  dx2y2           0.1       0.0       0.0       0.1       2.1       0.6
 8 O  dxy             4.8       0.1       0.0       1.1       0.0       4.1
 9 H  s               1.4       0.0       0.0       0.5       0.0       0.2
10 H  s               0.0       0.0       0.0       0.0       0.6       2.0
11 H  s               0.6       0.0       0.0       0.9       0.3       0.6
12 H  s               1.4       0.0       0.0       0.5       0.1       0.2
13 H  s               0.6       0.0       0.0       0.9       0.3       0.6

                    126       127       128       129       130       131   
                   2.70572   2.70753   2.72618   2.77760   2.87743   2.91061
                   0.00000   0.00000   0.00000   0.00000   0.00000   0.00000
                  --------  --------  --------  --------  --------  --------
 0 C  s               0.0       0.0       1.2       2.5       0.0       0.4
 0 C  px              1.2       0.0       0.1       0.1       3.0       0.0
 0 C  py              0.4       0.0       0.4       0.2       1.1       0.0
 0 C  dz2             0.0       0.0       0.0       3.2       0.0       0.6
 0 C  dxz             0.0       2.3       0.0       0.0       0.0       0.0
 0 C  dyz             0.0       0.8       0.0       0.1       0.1       0.0
 0 C  dx2y2           1.6       0.0       0.0       0.4      12.4       0.2
 0 C  dxy             0.4       0.0       0.1       1.5       3.3       0.6
 1 C  s               0.9       0.0       1.8       2.0       0.2       0.5
 1 C  px              0.6       0.0       1.0       0.1       2.2       0.0
 1 C  py              0.6       0.0       1.8       0.0       0.3       0.0
 1 C  dz2             2.4       0.0       1.5       3.4       0.0       1.0
 1 C  dxz             0.0       2.8       0.0       0.0       0.0       0.0
 1 C  dyz             0.0       0.8       0.1       0.1       0.0       0.0
 1 C  dx2y2           3.6       0.0      11.9       0.0      10.8       0.0
 1 C  dxy            11.4       0.0       3.2       2.1       1.9       0.2
 2 C  s               0.9       0.0       1.8       2.0       0.2       0.5
 2 C  px              0.2       0.0       0.5       0.1       0.1       0.1
 2 C  py              0.9       0.0       2.3       0.1       2.4       0.0
 2 C  dz2             2.3       0.1       1.5       3.5       0.0       1.0
 2 C  dyz             0.2       3.6       0.0       0.0       0.0       0.0
 2 C  dx2y2          14.7       0.0       0.3       1.7       0.6       0.1
 2 C  dxy             0.2       0.0      14.9       0.5      12.1       0.1
 3 C  s               3.3       0.0       1.0       2.4       0.9       0.8
 3 C  px              0.3       0.0       1.5       0.4       0.1       0.0
 3 C  py              0.8       0.0       1.6       0.0       0.8       0.1
 3 C  dz2             4.4       0.0       0.6       4.4       0.3       2.0
 3 C  dxz             0.0       5.4       0.0       0.0       0.0       0.0
 3 C  dyz             0.0       0.9       0.1       0.1       0.0       0.0
 3 C  dx2y2           7.5       0.0      14.8       0.1       2.3       0.0
 3 C  dxy             8.3       0.0       3.7       2.0       0.0       0.4
 4 C  s               0.0       0.0       2.9       8.9       0.0       4.1
 4 C  px              2.5       0.0       0.2       0.1       0.2       0.1
 4 C  py              0.9       0.0       0.5       0.2       0.1       0.4
 4 C  dz2             0.0       0.1       0.4      10.1       0.0       5.3
 4 C  dxz             0.0       7.9       0.0       0.0       0.0       0.0
 4 C  dyz             0.0       2.9       0.0       0.2       0.0       0.1
 4 C  dx2y2           0.7       0.0       0.0       0.2       2.9       1.3
 4 C  dxy             0.2       0.1       0.0       0.8       0.8       4.8
 5 C  s               3.3       0.0       1.0       2.4       0.9       0.8
 5 C  px              0.8       0.0       0.4       0.2       0.5       0.1
 5 C  py              0.3       0.0       2.8       0.2       0.5       0.0
 5 C  dz2             4.2       0.1       0.6       4.4       0.3       2.0
 5 C  dyz             0.3       6.1       0.0       0.0       0.0       0.0
 5 C  dx2y2          15.3       0.0       0.4       1.1       0.9       0.3
 5 C  dxy             0.3       0.0      18.1       1.0       1.4       0.1
 6 N  s               0.0       0.0       0.0       3.6       0.0      19.1
 6 N  px              0.1       0.0       0.0       1.0       1.7       0.2
 6 N  py              0.0       0.0       0.0       2.6       0.6       0.5
 6 N  dz2             0.0       0.3       0.0       0.4       0.0      10.3
 6 N  dxz             0.0      24.0       0.0       0.0       0.0       0.0
 6 N  dyz             0.0       8.7       0.0       0.0       0.0       0.2
 6 N  dx2y2           0.1       0.0       0.4       0.1       4.4       0.5
 6 N  dxy             0.0       0.2       1.6       0.2       1.2       1.8
 7 O  s               0.0       0.0       0.3       3.1       6.0       6.0
 7 O  pz              0.0       0.7       0.0       0.0       0.0       0.0
 7 O  px              0.0       0.0       0.0       0.6       0.1       0.4
 7 O  py              0.0       0.0       0.0       0.5       1.3       0.8
 7 O  dz2             0.0       0.3       0.1       1.1       1.8       3.5
 7 O  dxz             0.0       1.8       0.0       0.1       0.0       0.1
 7 O  dyz             0.0      13.6       0.0       0.0       0.1       0.1
 7 O  dx2y2           0.0       0.1       0.6       0.0       4.2       0.7
 7 O  dxy             0.4       0.0       0.0       8.3       0.6       7.6
 8 O  s               0.0       0.0       0.3       3.1       6.0       6.0
 8 O  pz              0.0       0.7       0.0       0.0       0.0       0.0
 8 O  px              0.0       0.0       0.0       1.0       1.3       1.3
 8 O  py              0.0       0.0       0.0       0.1       0.1       0.0
 8 O  dz2             0.0       0.0       0.1       1.1       1.8       3.6
 8 O  dxz             0.0      15.4       0.0       0.0       0.0       0.0
 8 O  dyz             0.0       0.3       0.0       0.0       0.0       0.0
 8 O  dx2y2           0.3       0.0       0.1       5.0       3.2       7.7
 8 O  dxy             0.1       0.1       0.4       3.3       1.6       0.8
 9 H  s               0.6       0.0       0.0       0.4       0.1       0.2
10 H  s               0.0       0.0       0.0       0.4       0.0       0.0
11 H  s               0.7       0.0       0.1       0.4       0.0       0.0
12 H  s               0.6       0.0       0.0       0.4       0.1       0.2
13 H  s               0.7       0.0       0.1       0.4       0.0       0.0

                    132       133       134       135   
                   2.92653   3.08031   3.17109   3.40723
                   0.00000   0.00000   0.00000   0.00000
                  --------  --------  --------  --------
 0 C  s               0.0       0.4       0.0       1.7
 0 C  px              1.1       0.0       0.3       0.0
 0 C  py              0.4       0.0       0.1       0.1
 0 C  dz2             0.0       0.5       0.0       1.0
 0 C  dx2y2           4.1       0.7       1.3       2.4
 0 C  dxy             1.1       2.5       0.3       8.8
 1 C  s               0.0       0.9       0.1       1.4
 1 C  px              0.8       0.0       0.6       0.0
 1 C  py              0.1       0.1       0.4       0.1
 1 C  dz2             0.0       0.5       0.0       0.9
 1 C  dx2y2           3.8       0.1       0.7       3.9
 1 C  dxy             0.8       2.0       1.6       7.9
 2 C  s               0.0       0.9       0.1       1.4
 2 C  px              0.0       0.1       0.0       0.1
 2 C  py              1.0       0.0       0.9       0.0
 2 C  dz2             0.0       0.5       0.0       0.9
 2 C  dyz             0.0       0.0       0.0       0.1
 2 C  dx2y2           0.1       1.8       0.3      11.7
 2 C  dxy             4.4       0.3       2.0       0.0
 3 C  s               0.0       0.3       0.2       1.5
 3 C  px              0.4       0.2       2.2       0.1
 3 C  py              0.2       0.3       0.1       0.0
 3 C  dz2             0.0       0.3       0.0       0.9
 3 C  dx2y2           2.1       0.0       3.5       4.1
 3 C  dxy             0.1       0.3       5.5       8.4
 4 C  s               0.0       0.1       0.0       1.1
 4 C  px              0.5       0.2       0.8       0.1
 4 C  py              0.2       0.5       0.3       0.3
 4 C  dz2             0.0       0.2       0.0       0.7
 4 C  dyz             0.0       0.0       0.2       0.0
 4 C  dx2y2           0.1       0.4      24.7       3.4
 4 C  dxy             0.0       1.3       6.7      12.6
 5 C  s               0.0       0.3       0.2       1.5
 5 C  px              0.0       0.1       0.2       0.1
 5 C  py              0.6       0.3       2.0       0.0
 5 C  dz2             0.0       0.3       0.0       0.8
 5 C  dyz             0.0       0.0       0.0       0.1
 5 C  dx2y2           0.3       0.1       0.7      12.5
 5 C  dxy             1.9       0.2       8.3       0.0
 6 N  s               0.0       2.2       0.0       0.1
 6 N  px              6.1       0.5       0.4       0.0
 6 N  py              2.2       1.4       0.1       0.1
 6 N  dz2             0.0       1.1       0.0       0.0
 6 N  dxz             0.0       0.2       0.0       0.0
 6 N  dyz             0.0       0.0       0.1       0.0
 6 N  dx2y2           2.8       8.1      18.7       0.9
 6 N  dxy             0.7      30.0       5.0       3.5
 7 O  s              11.2       0.8       0.5       0.1
 7 O  px              1.2       0.5       0.6       0.0
 7 O  py              2.0       1.8       0.4       0.1
 7 O  dz2             3.4       0.6       0.1       0.0
 7 O  dyz             0.2       0.2       0.0       0.0
 7 O  dx2y2           2.6      15.4       1.1       0.7
 7 O  dxy            11.1       0.2       2.9       0.1
 8 O  s              11.2       0.8       0.5       0.1
 8 O  px              3.1       1.2       0.8       0.1
 8 O  py              0.1       1.0       0.3       0.0
 8 O  dz2             3.5       0.7       0.1       0.0
 8 O  dx2y2          13.4       3.5       0.6       0.1
 8 O  dxy             0.4      12.3       3.4       0.7
 9 H  s               0.0       0.0       0.0       0.6
10 H  s               0.0       0.2       0.0       0.5
11 H  s               0.0       0.1       0.0       0.5
12 H  s               0.0       0.0       0.0       0.6
13 H  s               0.0       0.1       0.0       0.5


                      *****************************
                      * MAYER POPULATION ANALYSIS *
                      *****************************

  NA   - Mulliken gross atomic population
  ZA   - Total nuclear charge
  QA   - Mulliken gross atomic charge
  VA   - Mayer's total valence
  BVA  - Mayer's bonded valence
  FA   - Mayer's free valence

  ATOM       NA         ZA         QA         VA         BVA        FA
  0 C      6.1066     6.0000    -0.1066     3.9251     3.9251     0.0000
  1 C      6.1395     6.0000    -0.1395     3.9349     3.9349     0.0000
  2 C      6.1404     6.0000    -0.1404     3.9347     3.9347    -0.0000
  3 C      6.1444     6.0000    -0.1444     3.8846     3.8846    -0.0000
  4 C      5.7553     6.0000     0.2447     3.8339     3.8339     0.0000
  5 C      6.1456     6.0000    -0.1456     3.8847     3.8847     0.0000
  6 N      6.6225     7.0000     0.3775     3.9245     3.9245     0.0000
  7 O      8.3774     8.0000    -0.3774     1.9217     1.9217    -0.0000
  8 O      8.3773     8.0000    -0.3773     1.9219     1.9219     0.0000
  9 H      0.8181     1.0000     0.1819     0.9404     0.9404     0.0000
 10 H      0.8532     1.0000     0.1468     0.9342     0.9342     0.0000
 11 H      0.8507     1.0000     0.1493     0.9347     0.9347    -0.0000
 12 H      0.8179     1.0000     0.1821     0.9403     0.9403     0.0000
 13 H      0.8511     1.0000     0.1489     0.9348     0.9348     0.0000

  Mayer bond orders larger than 0.1
B(  0-C ,  1-C ) :   1.4415 B(  0-C ,  2-C ) :   1.4416 B(  0-C , 10-H ) :   0.9285 
B(  1-C ,  5-C ) :   1.4292 B(  1-C , 13-H ) :   0.9271 B(  2-C ,  3-C ) :   1.4290 
B(  2-C , 11-H ) :   0.9270 B(  3-C ,  4-C ) :   1.4088 B(  3-C ,  9-H ) :   0.9009 
B(  4-C ,  5-C ) :   1.4083 B(  4-C ,  6-N ) :   0.8143 B(  5-C , 12-H ) :   0.9009 
B(  6-N ,  7-O ) :   1.5371 B(  6-N ,  8-O ) :   1.5372 B(  7-O ,  8-O ) :   0.2681 


-------
TIMINGS
-------

Total SCF time: 0 days 0 hours 0 min 22 sec 

Total time                  ....      22.222 sec
Sum of individual times     ....      21.941 sec  ( 98.7%)

Fock matrix formation       ....      20.087 sec  ( 90.4%)
  XC integration            ....       3.214 sec  ( 16.0% of F)
    Basis function eval.    ....       1.199 sec  ( 37.3% of XC)
    Density eval.           ....       0.867 sec  ( 27.0% of XC)
    XC-Functional eval.     ....       0.232 sec  (  7.2% of XC)
    XC-Potential eval.      ....       0.701 sec  ( 21.8% of XC)
Diagonalization             ....       0.003 sec  (  0.0%)
Density matrix formation    ....       0.003 sec  (  0.0%)
Population analysis         ....       0.045 sec  (  0.2%)
Initial guess               ....       0.003 sec  (  0.0%)
Orbital Transformation      ....       0.000 sec  (  0.0%)
Orbital Orthonormalization  ....       0.001 sec  (  0.0%)
DIIS solution               ....       0.000 sec  (  0.0%)
SOSCF solution              ....       0.015 sec  (  0.1%)
Grid generation             ....       1.785 sec  (  8.0%)

-------------------------   --------------------
FINAL SINGLE POINT ENERGY      -436.504358103765
-------------------------   --------------------

                                *** OPTIMIZATION RUN DONE ***

                            ***************************************
                            *     ORCA property calculations      *
                            ***************************************

                                    ---------------------
                                    Active property flags
                                    ---------------------
   (+) Dipole Moment


------------------------------------------------------------------------------
                       ORCA ELECTRIC PROPERTIES CALCULATION
------------------------------------------------------------------------------

Dipole Moment Calculation                       ... on
Quadrupole Moment Calculation                   ... off
Polarizability Calculation                      ... off
GBWName                                         ... /Users/lailaal-madhagi/Desktop/Testing_XAS_Analysis_code/Nitrobenzene//Results_dir_Nitrobenzene_geom_element_N_2019-11-11_22-18-54//GTE1_Nitrobenzene_geom_2019-11-11_22-19-15//opt.gbw
Electron density file                           ... /Users/lailaal-madhagi/Desktop/Testing_XAS_Analysis_code/Nitrobenzene//Results_dir_Nitrobenzene_geom_element_N_2019-11-11_22-18-54//GTE1_Nitrobenzene_geom_2019-11-11_22-19-15//opt.scfp.tmp
The origin for moment calculation is the CENTER OF MASS  = (-3.964303, -0.291169  0.199375)

-------------
DIPOLE MOMENT
-------------
                                X             Y             Z
Electronic contribution:      3.11096      -5.10387       0.33143
Nuclear contribution   :     -4.04250       6.63260      -0.43057
                        -----------------------------------------
Total Dipole Moment    :     -0.93154       1.52874      -0.09914
                        -----------------------------------------
Magnitude (a.u.)       :      1.79294
Magnitude (Debye)      :      4.55729



--------------------
Rotational spectrum 
--------------------
 
Rotational constants in cm-1:     0.131887     0.042793     0.032310 
Rotational constants in MHz :  3953.863867  1282.912875   968.623142 

 Dipole components along the rotational axes: 
x,y,z [a.u.] :     1.792941     0.000178     0.000122 
x,y,z [Debye]:     4.557293     0.000452     0.000310 

 

Timings for individual modules:

Sum of individual times         ...      394.860 sec (=   6.581 min)
GTO integral calculation        ...        3.948 sec (=   0.066 min)   1.0 %
SCF iterations                  ...      263.450 sec (=   4.391 min)  66.7 %
SCF Gradient evaluation         ...      125.654 sec (=   2.094 min)  31.8 %
Geometry relaxation             ...        1.807 sec (=   0.030 min)   0.5 %
                             ****ORCA TERMINATED NORMALLY****
TOTAL RUN TIME: 0 days 0 hours 6 minutes 35 seconds 996 msec
