
                                 *****************
                                 * O   R   C   A *
                                 *****************

           --- An Ab Initio, DFT and Semiempirical electronic structure package ---

                  #######################################################
                  #                        -***-                        #
                  #          Department of theory and spectroscopy      #
                  #               Directorship: Frank Neese             #
                  #        Max Planck Institute fuer Kohlenforschung    #
                  #                Kaiser Wilhelm Platz 1               #
                  #                 D-45470 Muelheim/Ruhr               #
                  #                      Germany                        #
                  #                                                     #
                  #                  All rights reserved                #
                  #                        -***-                        #
                  #######################################################


                         Program Version 4.1.0  - RELEASE  -


 With contributions from (in alphabetic order):
   Daniel Aravena         : Magnetic Properties
   Michael Atanasov       : Ab Initio Ligand Field Theory
   Alexander A. Auer      : GIAO ZORA
   Ute Becker             : Parallelization
   Giovanni Bistoni       : ED, Open-shell LED
   Martin Brehm           : Molecular dynamics
   Dmytro Bykov           : SCF Hessian
   Vijay G. Chilkuri      : MRCI spin determinant printing
   Dipayan Datta          : RHF DLPNO-CCSD density
   Achintya Kumar Dutta   : EOM-CC, STEOM-CC
   Dmitry Ganyushin       : Spin-Orbit,Spin-Spin,Magnetic field MRCI
   Miquel Garcia          : C-PCM Hessian
   Yang Guo               : DLPNO-NEVPT2, CIM, IAO-localization
   Andreas Hansen         : Spin unrestricted coupled pair/coupled cluster methods
   Benjamin Helmich-Paris : CASSCF linear response (MC-RPA)
   Lee Huntington         : MR-EOM, pCC
   Robert Izsak           : Overlap fitted RIJCOSX, COSX-SCS-MP3, EOM
   Christian Kollmar      : KDIIS, OOCD, Brueckner-CCSD(T), CCSD density
   Simone Kossmann        : Meta GGA functionals, TD-DFT gradient, OOMP2, MP2 Hessian
   Martin Krupicka        : AUTO-CI
   Lucas Lang             : DCDCAS
   Dagmar Lenk            : GEPOL surface, SMD
   Dimitrios Liakos       : Extrapolation schemes; parallel MDCI
   Dimitrios Manganas     : ROCIS; embedding schemes
   Dimitrios Pantazis     : SARC Basis sets
   Taras Petrenko         : DFT Hessian,TD-DFT gradient, ASA, ECA, R-Raman, ABS, FL, XAS/XES, NRVS
   Peter Pinski           : DLPNO-MP2, DLPNO-MP2 Gradient
   Christoph Reimann      : Effective Core Potentials
   Marius Retegan         : Local ZFS, SOC
   Christoph Riplinger    : Optimizer, TS searches, QM/MM, DLPNO-CCSD(T), (RO)-DLPNO pert. Triples
   Tobias Risthaus        : Range-separated hybrids, TD-DFT gradient, RPA, STAB
   Michael Roemelt        : Restricted open shell CIS
   Masaaki Saitow         : Open-shell DLPNO
   Barbara Sandhoefer     : DKH picture change effects
   Avijit Sen             : IP-ROCIS
   Kantharuban Sivalingam : CASSCF convergence, NEVPT2, FIC-MRCI
   Bernardo de Souza      : ESD, SOC TD-DFT
   Georgi Stoychev        : AutoAux, RI-MP2 NMR
   Willem Van den Heuvel  : Paramagnetic NMR
   Boris Wezisla          : Elementary symmetry handling
   Frank Wennmohs         : Technical directorship


 We gratefully acknowledge several colleagues who have allowed us to
 interface, adapt or use parts of their codes:
   Stefan Grimme, W. Hujo, H. Kruse,             : VdW corrections, initial TS optimization,
                  C. Bannwarth                     DFT functionals, gCP, sTDA/sTD-DF
   Ed Valeev                                     : LibInt (2-el integral package), F12 methods
   Garnet Chan, S. Sharma, J. Yang, R. Olivares  : DMRG
   Ulf Ekstrom                                   : XCFun DFT Library
   Mihaly Kallay                                 : mrcc  (arbitrary order and MRCC methods)
   Andreas Klamt, Michael Diedenhofen            : otool_cosmo (COSMO solvation model)
   Jiri Pittner, Ondrej Demel                    : Mk-CCSD
   Frank Weinhold                                : gennbo (NPA and NBO analysis)
   Christopher J. Cramer and Donald G. Truhlar   : smd solvation model
   Lars Goerigk                                  : TD-DFT with DH, B97 family of functionals
   V. Asgeirsson, H. Jonsson                     : NEB implementation
   FAccTs GmbH                                   : IRC, NEB, NEB-TS, Multilevel


 Your calculation uses the libint2 library for the computation of 2-el integrals
 For citations please refer to: http://libint.valeyev.net

 This ORCA versions uses:
   CBLAS   interface :  Fast vector & matrix operations
   LAPACKE interface :  Fast linear algebra routines
   SCALAPACK package :  Parallel linear algebra routines




***************************************
The coordinates will be read from file: /Users/lailaal-madhagi/Desktop/Testing_XAS_Analysis_code/PhenylAlanine//Results_dir_PhenylAlanine_geom_element_O_2019-11-18_00-35-02//GTE1_PhenylAlanine_geom_2019-11-18_00-35-14//opt.xyz
***************************************


----- Orbital basis set information -----
Your calculation utilizes the basis: 6-31G*
   H-He, Li-Ne : W. J. Hehre, R. Ditchfield and J.A. Pople, J. Chem. Phys. 56, 2257 (1972).
                 Note: He and Ne are unpublished basis sets taken from the Gaussian program.
                 Note: Li and B from J. D. Dill and J. A. Pople, J. Chem. Phys. 62, 2921 (1975).
   Na - Ar     : M. M. Francl, W. J. Pietro, W. J. Hehre, J. S. Binkley, M. S. Gordon, 
                 D. J. DeFrees and J. A. Pople, J. Chem. Phys. 77, 3654 (1982).
   K - Zn      : V. A. Rassolov, J. A. Pople, M. A. Ratner, and T. L. Windus, J. Chem. Phys. 109, 1223 (1998).

================================================================================
                                        WARNINGS
                       Please study these warnings very carefully!
================================================================================

INFO   : Checking CIS options ...

WARNING: CIS/ROCIS methods need fully converged wavefunctions
  ===> : Setting SCFConvForced true
         You can overwrite this default with %scf ConvForced false 


INFO   : the flag for use of LIBINT has been found!

================================================================================
                                       INPUT FILE
================================================================================
NAME = /Users/lailaal-madhagi/Desktop/Testing_XAS_Analysis_code/PhenylAlanine//Results_dir_PhenylAlanine_geom_element_O_2019-11-18_00-35-02//GTE1_PhenylAlanine_geom_2019-11-18_00-35-14//TDDFT_O-edge.inp
|  1> #This is O K-edge calculation 
|  2> ! B3LYP 6-31G* TIGHTSCF Grid3 FinalGrid5 
|  3> !NormalPrint 
|  4> %output 
|  5> Print[P_Basis] 2 
|  6> Print[P_MOS] 1 
|  7> end 
|  8> 
|  9> %tddft 
| 10> orbwin[0]=0,1,-1,-1 
| 11> nroots=20 
| 12> maxdim=200 
| 13> end 
| 14> *xyzfile 0 1 /Users/lailaal-madhagi/Desktop/Testing_XAS_Analysis_code/PhenylAlanine//Results_dir_PhenylAlanine_geom_element_O_2019-11-18_00-35-02//GTE1_PhenylAlanine_geom_2019-11-18_00-35-14//opt.xyz                           ****END OF INPUT****
================================================================================

                       ****************************
                       * Single Point Calculation *
                       ****************************

---------------------------------
CARTESIAN COORDINATES (ANGSTROEM)
---------------------------------
  C     -2.347428    1.105934    1.186747
  C     -1.449696    1.676486    0.270419
  C     -2.420932   -0.277441    1.352974
  C     -1.595664   -1.120457    0.604118
  C     -0.696355   -0.568349   -0.309312
  C     -0.627296    0.817267   -0.472437
  C     -2.502895    3.782849   -0.830189
  H     -2.989493    1.751059    1.781751
  H     -3.120437   -0.697742    2.071279
  H     -0.045688   -1.213983   -0.893983
  H      0.083077    1.239537   -1.180710
  C     -3.763291    3.992953    0.000289
  O     -4.723146    3.069225   -0.238581
  O     -3.890517    4.866344    0.831280
  N     -2.790891    3.077405   -2.073393
  H     -1.929228    2.965049   -2.605798
  H     -3.130931    2.139665   -1.867947
  H     -5.465594    3.293395    0.354817
  C     -1.372547    3.175520    0.079451
  H     -2.172213    4.795017   -1.089172
  H     -0.415342    3.434157   -0.390125
  H     -1.397051    3.689573    1.048301
  H     -1.650664   -2.198013    0.735561

----------------------------
CARTESIAN COORDINATES (A.U.)
----------------------------
  NO LB      ZA    FRAG     MASS         X           Y           Z
   0 C     6.0000    0    12.011   -4.435995    2.089913    2.242627
   1 C     6.0000    0    12.011   -2.739529    3.168099    0.511018
   2 C     6.0000    0    12.011   -4.574898   -0.524288    2.556750
   3 C     6.0000    0    12.011   -3.015368   -2.117356    1.141618
   4 C     6.0000    0    12.011   -1.315921   -1.074023   -0.584516
   5 C     6.0000    0    12.011   -1.185417    1.544411   -0.892777
   6 C     6.0000    0    12.011   -4.729785    7.148549   -1.568830
   7 H     1.0000    0     1.008   -5.649323    3.309022    3.367021
   8 H     1.0000    0     1.008   -5.896771   -1.318541    3.914150
   9 H     1.0000    0     1.008   -0.086338   -2.294095   -1.689382
  10 H     1.0000    0     1.008    0.156993    2.342386   -2.231218
  11 C     6.0000    0    12.011   -7.111590    7.545587    0.000546
  12 O     8.0000    0    15.999   -8.925452    5.799994   -0.450852
  13 O     8.0000    0    15.999   -7.352012    9.196057    1.570891
  14 N     7.0000    0    14.007   -5.274020    5.815453   -3.918145
  15 H     1.0000    0     1.008   -3.645713    5.603131   -4.924245
  16 H     1.0000    0     1.008   -5.916601    4.043380   -3.529909
  17 H     1.0000    0     1.008  -10.328475    6.223614    0.670507
  18 C     6.0000    0    12.011   -2.593737    6.000862    0.150140
  19 H     1.0000    0     1.008   -4.104888    9.061269   -2.058237
  20 H     1.0000    0     1.008   -0.784883    6.489616   -0.737229
  21 H     1.0000    0     1.008   -2.640043    6.972283    1.981002
  22 H     1.0000    0     1.008   -3.119302   -4.153643    1.390008

--------------------------------
INTERNAL COORDINATES (ANGSTROEM)
--------------------------------
 C      0   0   0     0.000000000000     0.00000000     0.00000000
 C      1   0   0     1.403961462528     0.00000000     0.00000000
 C      1   2   0     1.395264247606   120.95514493     0.00000000
 C      3   1   2     1.397328386940   120.21215817     0.00000000
 C      4   3   1     1.395684171446   119.51430388     0.10036420
 C      5   4   3     1.396892715772   120.04440018   359.86320910
 C      2   1   3     2.599486971832   110.27737803   144.41887793
 H      1   2   3     1.087411130062   119.57632937   179.50250457
 H      3   1   2     1.087162488780   119.73047482   179.74139875
 H      5   4   3     1.087221671230   120.17618188   179.69432097
 H      6   5   4     1.088389687389   119.54488227   179.46739628
 C      7   2   1     1.523954314939   102.47845040     9.47502176
 O     12   7   2     1.353385651900   113.34632494   287.97261200
 O     12   7   2     1.212247479712   124.03438606   105.42079108
 N      7   2   1     1.458132269909    92.80782102   256.63365614
 H     15   7   2     1.019088866918   109.37597004   283.93838245
 H     15   7   2     1.018426200559   109.84169283    40.64445328
 H     13  12   7     0.976525449367   105.97919490   178.96671527
 C      2   1   3     1.513117090818   121.17004834   179.57996708
 H      7   2   1     1.095858237333   136.57037246   136.90176199
 H     19   2   1     1.097102868060   109.39362879   160.58293834
 H     19   2   1     1.097051718901   110.58628306    43.37223932
 H      4   3   1     1.086936081894   120.22556190   179.81840567

---------------------------
INTERNAL COORDINATES (A.U.)
---------------------------
 C      0   0   0     0.000000000000     0.00000000     0.00000000
 C      1   0   0     2.653102666758     0.00000000     0.00000000
 C      1   2   0     2.636667312427   120.95514493     0.00000000
 C      3   1   2     2.640567970470   120.21215817     0.00000000
 C      4   3   1     2.637460853481   119.51430388     0.10036420
 C      5   4   3     2.639744671278   120.04440018   359.86320910
 C      2   1   3     4.912318465459   110.27737803   144.41887793
 H      1   2   3     2.054909230796   119.57632937   179.50250457
 H      3   1   2     2.054439366867   119.73047482   179.74139875
 H      5   4   3     2.054551205489   120.17618188   179.69432097
 H      6   5   4     2.056758436149   119.54488227   179.46739628
 C      7   2   1     2.879856295842   102.47845040     9.47502176
 O     12   7   2     2.557528235670   113.34632494   287.97261200
 O     12   7   2     2.290815743191   124.03438606   105.42079108
 N      7   2   1     2.755470657162    92.80782102   256.63365614
 H     15   7   2     1.925798864603   109.37597004   283.93838245
 H     15   7   2     1.924546606667   109.84169283    40.64445328
 H     13  12   7     1.845365662107   105.97919490   178.96671527
 C      2   1   3     2.859376910201   121.17004834   179.57996708
 H      7   2   1     2.070871950161   136.57037246   136.90176199
 H     19   2   1     2.073223961372   109.39362879   160.58293834
 H     19   2   1     2.073127303471   110.58628306    43.37223932
 H      4   3   1     2.054011519857   120.22556190   179.81840567

---------------------
BASIS SET INFORMATION
---------------------
There are 4 groups of distinct atoms

 Group   1 Type C   : 10s4p1d contracted to 3s2p1d pattern {631/31/1}
 Group   2 Type H   : 4s contracted to 2s pattern {31}
 Group   3 Type O   : 10s4p1d contracted to 3s2p1d pattern {631/31/1}
 Group   4 Type N   : 10s4p1d contracted to 3s2p1d pattern {631/31/1}

Atom   0C    basis set group =>   1
Atom   1C    basis set group =>   1
Atom   2C    basis set group =>   1
Atom   3C    basis set group =>   1
Atom   4C    basis set group =>   1
Atom   5C    basis set group =>   1
Atom   6C    basis set group =>   1
Atom   7H    basis set group =>   2
Atom   8H    basis set group =>   2
Atom   9H    basis set group =>   2
Atom  10H    basis set group =>   2
Atom  11C    basis set group =>   1
Atom  12O    basis set group =>   3
Atom  13O    basis set group =>   3
Atom  14N    basis set group =>   4
Atom  15H    basis set group =>   2
Atom  16H    basis set group =>   2
Atom  17H    basis set group =>   2
Atom  18C    basis set group =>   1
Atom  19H    basis set group =>   2
Atom  20H    basis set group =>   2
Atom  21H    basis set group =>   2
Atom  22H    basis set group =>   2

-------------------------
BASIS SET IN INPUT FORMAT
-------------------------

 # Basis set for element : H 
 NewGTO H 
 S 3 
   1      18.7311370000      0.0334945995
   2       2.8253937000      0.2347269467
   3       0.6401217000      0.8137573184
 S 1 
   1       0.1612778000      1.0000000000
  end;

 # Basis set for element : C 
 NewGTO C 
 S 6 
   1    3047.5249000000      0.0018347002
   2     457.3695100000      0.0140373012
   3     103.9486900000      0.0688426061
   4      29.2101550000      0.2321844206
   5       9.2866630000      0.4679413416
   6       3.1639270000      0.3623120322
 S 3 
   1       7.8682724000     -0.1193324086
   2       1.8812885000     -0.1608542116
   3       0.5442493000      1.1434564826
 P 3 
   1       7.8682724000      0.0689990956
   2       1.8812885000      0.3164239798
   3       0.5442493000      0.7443082524
 S 1 
   1       0.1687144000      1.0000000000
 P 1 
   1       0.1687144000      1.0000000000
 D 1 
   1       0.8000000000      1.0000000000
  end;

 # Basis set for element : N 
 NewGTO N 
 S 6 
   1    4173.5110000000      0.0018347994
   2     627.4579000000      0.0139949958
   3     142.9021000000      0.0685869792
   4      40.2343300000      0.2322409295
   5      12.8202100000      0.4690698576
   6       4.3904370000      0.3604548906
 S 3 
   1      11.6263580000     -0.1149610229
   2       2.7162800000     -0.1691180337
   3       0.7722180000      1.1458522281
 P 3 
   1      11.6263580000      0.0675800232
   2       2.7162800000      0.3239071114
   3       0.7722180000      0.7408952549
 S 1 
   1       0.2120313000      1.0000000000
 P 1 
   1       0.2120313000      1.0000000000
 D 1 
   1       0.8000000000      1.0000000000
  end;

 # Basis set for element : O 
 NewGTO O 
 S 6 
   1    5484.6717000000      0.0018310998
   2     825.2349500000      0.0139500985
   3     188.0469600000      0.0684450927
   4      52.9645000000      0.2327142753
   5      16.8975700000      0.4701929501
   6       5.7996353000      0.3585208619
 S 3 
   1      15.5396160000     -0.1107775038
   2       3.5999336000     -0.1480263051
   3       1.0137618000      1.1307670390
 P 3 
   1      15.5396160000      0.0708742995
   2       3.5999336000      0.3397527978
   3       1.0137618000      0.7271585953
 S 1 
   1       0.2700058000      1.0000000000
 P 1 
   1       0.2700058000      1.0000000000
 D 1 
   1       0.8000000000      1.0000000000
  end;

------------------------------------------------------------------------------
                           ORCA GTO INTEGRAL CALCULATION
------------------------------------------------------------------------------

                         BASIS SET STATISTICS AND STARTUP INFO

 # of primitive gaussian shells          ...  224
 # of primitive gaussian functions       ...  368
 # of contracted shells                  ...   94
 # of contracted basis functions         ...  190
 Highest angular momentum                ...    2
 Maximum contraction depth               ...    6
 Integral package used                   ... LIBINT
 Integral threshhold            Thresh   ...  2.500e-11
 Primitive cut-off              TCut     ...  2.500e-12


------------------------------ INTEGRAL EVALUATION ----------------------------


 * One electron integrals 
 Pre-screening matrix                    ... done
 Shell pair data                         ... done (   0.004 sec)

-------------------------------------------------------------------------------
                                 ORCA SCF
-------------------------------------------------------------------------------

------------
SCF SETTINGS
------------
Hamiltonian:
 Density Functional     Method          .... DFT(GTOs)
 Exchange Functional    Exchange        .... B88
   X-Alpha parameter    XAlpha          ....  0.666667
   Becke's b parameter  XBeta           ....  0.004200
 Correlation Functional Correlation     .... LYP
 LDA part of GGA corr.  LDAOpt          .... VWN-5
 Gradients option       PostSCFGGA      .... off
 Hybrid DFT is turned on
   Fraction HF Exchange ScalHFX         ....  0.200000
   Scaling of DF-GGA-X  ScalDFX         ....  0.720000
   Scaling of DF-GGA-C  ScalDFC         ....  0.810000
   Scaling of DF-LDA-C  ScalLDAC        ....  1.000000
   Perturbative correction              ....  0.000000
   Density functional embedding theory  .... OFF
   NL short-range parameter             ....  4.800000


General Settings:
 Integral files         IntName         .... /Users/lailaal-madhagi/Desktop/Testing_XAS_Analysis_code/PhenylAlanine//Results_dir_PhenylAlanine_geom_element_O_2019-11-18_00-35-02//GTE1_PhenylAlanine_geom_2019-11-18_00-35-14//TDDFT_O-edge
 Hartree-Fock type      HFTyp           .... RHF
 Total Charge           Charge          ....    0
 Multiplicity           Mult            ....    1
 Number of Electrons    NEL             ....   88
 Basis Dimension        Dim             ....  190
 Nuclear Repulsion      ENuc            ....    684.6518646560 Eh

Convergence Acceleration:
 DIIS                   CNVDIIS         .... on
   Start iteration      DIISMaxIt       ....    12
   Startup error        DIISStart       ....  0.200000
   # of expansion vecs  DIISMaxEq       ....     5
   Bias factor          DIISBfac        ....   1.050
   Max. coefficient     DIISMaxC        ....  10.000
 Newton-Raphson         CNVNR           .... off
 SOSCF                  CNVSOSCF        .... on
   Start iteration      SOSCFMaxIt      ....   150
   Startup grad/error   SOSCFStart      ....  0.003300
 Level Shifting         CNVShift        .... on
   Level shift para.    LevelShift      ....    0.2500
   Turn off err/grad.   ShiftErr        ....    0.0010
 Zerner damping         CNVZerner       .... off
 Static damping         CNVDamp         .... on
   Fraction old density DampFac         ....    0.7000
   Max. Damping (<1)    DampMax         ....    0.9800
   Min. Damping (>=0)   DampMin         ....    0.0000
   Turn off err/grad.   DampErr         ....    0.1000
 Fernandez-Rico         CNVRico         .... off

SCF Procedure:
 Maximum # iterations   MaxIter         ....   125
 SCF integral mode      SCFMode         .... Direct
   Integral package                     .... LIBINT
 Reset frequency        DirectResetFreq ....    20
 Integral Threshold     Thresh          ....  2.500e-11 Eh
 Primitive CutOff       TCut            ....  2.500e-12 Eh

Convergence Tolerance:
 Convergence Check Mode ConvCheckMode   .... Total+1el-Energy
 Convergence forced     ConvForced      .... 1
 Energy Change          TolE            ....  1.000e-08 Eh
 1-El. energy change                    ....  1.000e-05 Eh
 Orbital Gradient       TolG            ....  1.000e-05
 Orbital Rotation angle TolX            ....  1.000e-05
 DIIS Error             TolErr          ....  5.000e-07


Diagonalization of the overlap matrix:
Smallest eigenvalue                        ... 4.820e-04
Time for diagonalization                   ...    0.013 sec
Threshold for overlap eigenvalues          ... 1.000e-08
Number of eigenvalues below threshold      ... 0
Time for construction of square roots      ...    0.003 sec
Total time needed                          ...    0.016 sec

-------------------
DFT GRID GENERATION
-------------------

General Integration Accuracy     IntAcc      ...  4.340
Radial Grid Type                 RadialGrid  ... Gauss-Chebyshev
Angular Grid (max. acc.)         AngularGrid ... Lebedev-194
Angular grid pruning method      GridPruning ... 3 (G Style)
Weight generation scheme         WeightScheme... Becke
Basis function cutoff            BFCut       ...    1.0000e-11
Integration weight cutoff        WCut        ...    1.0000e-14
Grids for H and He will be reduced by one unit

# of grid points (after initial pruning)     ...  56346 (   0.0 sec)
# of grid points (after weights+screening)   ...  50802 (   0.2 sec)
nearest neighbour list constructed           ...    0.0 sec
Grid point re-assignment to atoms done       ...    0.0 sec
Grid point division into batches done        ...    0.1 sec
Reduced shell lists constructed in    0.4 sec

Total number of grid points                  ...    50802
Total number of batches                      ...      805
Average number of points per batch           ...       63
Average number of grid points per atom       ...     2209
Average number of shells per batch           ...    57.85 (61.54%)
Average number of basis functions per batch  ...   117.70 (61.95%)
Average number of large shells per batch     ...    41.37 (71.51%)
Average number of large basis fcns per batch ...    84.55 (71.84%)
Maximum spatial batch extension              ...  21.21, 20.38, 20.12 au
Average spatial batch extension              ...   2.93,  2.84,  2.94 au

Time for grid setup =    0.615 sec

------------------------------
INITIAL GUESS: MODEL POTENTIAL
------------------------------
Loading Hartree-Fock densities                     ... done
Calculating cut-offs                               ... done
Setting up the integral package                    ... done
Initializing the effective Hamiltonian             ... done
Starting the Coulomb interaction                   ... done (   0.2 sec)
Reading the grid                                   ... done
Mapping shells                                     ... done
Starting the XC term evaluation                    ... done (   0.5 sec)
  promolecular density results
     # of electrons  =     87.993778392
     EX              =    -72.496655359
     EC              =     -2.982681192
     EX+EC           =    -75.479336551
Transforming the Hamiltonian                       ... done (   0.0 sec)
Diagonalizing the Hamiltonian                      ... done (   0.0 sec)
Back transforming the eigenvectors                 ... done (   0.0 sec)
Now organizing SCF variables                       ... done
                      ------------------
                      INITIAL GUESS DONE (   1.4 sec)
                      ------------------
--------------
SCF ITERATIONS
--------------
               ***  Starting incremental Fock matrix formation  ***

                         ----------------------------
                         !        ITERATION     0   !
                         ----------------------------
   Total Energy        :    -554.072477549518 Eh
   Energy Change       :    -554.072477549518 Eh
   MAX-DP              :       0.088285099728
   RMS-DP              :       0.002406486234
   Actual Damping      :       0.7000
   Actual Level Shift  :       0.2500 Eh
   Int. Num. El.       :    87.99946096 (UP=   43.99973048 DN=   43.99973048)
   Exchange            :   -59.50989498
   Correlation         :    -3.55624396


                         ----------------------------
                         !        ITERATION     1   !
                         ----------------------------
   Total Energy        :    -554.248094106872 Eh
   Energy Change       :      -0.175616557354 Eh
   MAX-DP              :       0.051476282778
   RMS-DP              :       0.001622678974
   Actual Damping      :       0.7000
   Actual Level Shift  :       0.2500 Eh
   Int. Num. El.       :    87.99939191 (UP=   43.99969596 DN=   43.99969596)
   Exchange            :   -59.03357578
   Correlation         :    -3.53908942

                               ***Turning on DIIS***

                         ----------------------------
                         !        ITERATION     2   !
                         ----------------------------
   Total Energy        :    -554.315587647234 Eh
   Energy Change       :      -0.067493540362 Eh
   MAX-DP              :       0.069049793786
   RMS-DP              :       0.002560976961
   Actual Damping      :       0.0000
   Actual Level Shift  :       0.2500 Eh
   Int. Num. El.       :    87.99934215 (UP=   43.99967108 DN=   43.99967108)
   Exchange            :   -58.73515008
   Correlation         :    -3.52752131
   DIIS-Error          :       0.035488367507


                         ----------------------------
                         !        ITERATION     3   !
                         ----------------------------
   Total Energy        :    -554.422410851738 Eh
   Energy Change       :      -0.106823204504 Eh
   MAX-DP              :       0.036136645965
   RMS-DP              :       0.001115638808
   Actual Damping      :       0.0000
   Actual Level Shift  :       0.2500 Eh
   Int. Num. El.       :    87.99925934 (UP=   43.99962967 DN=   43.99962967)
   Exchange            :   -58.31804684
   Correlation         :    -3.50996870
   DIIS-Error          :       0.064495747013
   DIIS coefficients:
      0.59061   0.40939


                         ----------------------------
                         !        ITERATION     4   !
                         ----------------------------
   Total Energy        :    -554.445351986050 Eh
   Energy Change       :      -0.022941134312 Eh
   MAX-DP              :       0.011177989996
   RMS-DP              :       0.000380907489
   Actual Damping      :       0.0000
   Actual Level Shift  :       0.2500 Eh
   Int. Num. El.       :    87.99928383 (UP=   43.99964192 DN=   43.99964192)
   Exchange            :   -58.50238886
   Correlation         :    -3.51756465
   DIIS-Error          :       0.013583468395
   DIIS coefficients:
      0.25394   0.07482   0.67124


                         ----------------------------
                         !        ITERATION     5   !
                         ----------------------------
   Total Energy        :    -554.446824121165 Eh
   Energy Change       :      -0.001472135115 Eh
   MAX-DP              :       0.004295264297
   RMS-DP              :       0.000113464323
   Actual Damping      :       0.0000
   Actual Level Shift  :       0.2500 Eh
   Int. Num. El.       :    87.99928744 (UP=   43.99964372 DN=   43.99964372)
   Exchange            :   -58.53443459
   Correlation         :    -3.51939555
   DIIS-Error          :       0.006495864446
   DIIS coefficients:
      0.07206  -0.00222   0.21266   0.71750

                      *** Initiating the SOSCF procedure ***
                           *** Shutting down DIIS ***
                      *** Re-Reading the Fockian *** 
                      *** Removing any level shift *** 

                         ----------------------------
                         !        ITERATION     6   !
                         ----------------------------
   Total Energy        :    -554.446920691765 Eh
   Energy Change       :      -0.000096570600 Eh
   MAX-DP              :       0.001081900784
   RMS-DP              :       0.000037656182
   Orbital gradient    :       0.000258760930
   Orbital Rotation    :       0.000258760930
   Actual Damping      :       0.0000
   Int. Num. El.       :    87.99929127 (UP=   43.99964563 DN=   43.99964563)
   Exchange            :   -58.54394173
   Correlation         :    -3.51970834

               *** Restarting incremental Fock matrix formation ***

                         ----------------------------
                         !        ITERATION     7   !
                         ----------------------------
   Total Energy        :    -554.446927038222 Eh
   Energy Change       :      -0.000006346457 Eh
   MAX-DP              :       0.001175227004
   RMS-DP              :       0.000025926454
   Orbital gradient    :       0.000227808468
   Orbital Rotation    :       0.000691843034
   Actual Damping      :       0.0000
   Int. Num. El.       :    87.99929063 (UP=   43.99964532 DN=   43.99964532)
   Exchange            :   -58.54509058
   Correlation         :    -3.51973913


                         ----------------------------
                         !        ITERATION     8   !
                         ----------------------------
   Total Energy        :    -554.446924906854 Eh
   Energy Change       :       0.000002131368 Eh
   MAX-DP              :       0.000742790219
   RMS-DP              :       0.000013995575
   Orbital gradient    :       0.000560431781
   Orbital Rotation    :       0.000602909466
   Actual Damping      :       0.0000
   Int. Num. El.       :    87.99929112 (UP=   43.99964556 DN=   43.99964556)
   Exchange            :   -58.54433555
   Correlation         :    -3.51972520


                         ----------------------------
                         !        ITERATION     9   !
                         ----------------------------
   Total Energy        :    -554.446928652874 Eh
   Energy Change       :      -0.000003746021 Eh
   MAX-DP              :       0.000250368734
   RMS-DP              :       0.000005880623
   Orbital gradient    :       0.000076411521
   Orbital Rotation    :       0.000165589919
   Actual Damping      :       0.0000
   Int. Num. El.       :    87.99929092 (UP=   43.99964546 DN=   43.99964546)
   Exchange            :   -58.54478881
   Correlation         :    -3.51973782


                         ----------------------------
                         !        ITERATION    10   !
                         ----------------------------
   Total Energy        :    -554.446928473312 Eh
   Energy Change       :       0.000000179562 Eh
   MAX-DP              :       0.000165520699
   RMS-DP              :       0.000003663661
   Orbital gradient    :       0.000104528378
   Orbital Rotation    :       0.000096155546
   Actual Damping      :       0.0000
   Int. Num. El.       :    87.99929103 (UP=   43.99964551 DN=   43.99964551)
   Exchange            :   -58.54504060
   Correlation         :    -3.51973728


                         ----------------------------
                         !        ITERATION    11   !
                         ----------------------------
   Total Energy        :    -554.446928737250 Eh
   Energy Change       :      -0.000000263938 Eh
   MAX-DP              :       0.000016378466
   RMS-DP              :       0.000000721908
   Orbital gradient    :       0.000004521698
   Orbital Rotation    :       0.000018633530
   Actual Damping      :       0.0000
   Int. Num. El.       :    87.99929097 (UP=   43.99964549 DN=   43.99964549)
   Exchange            :   -58.54482188
   Correlation         :    -3.51973532


                         ----------------------------
                         !        ITERATION    12   !
                         ----------------------------
   Total Energy        :    -554.446928738014 Eh
   Energy Change       :      -0.000000000764 Eh
   MAX-DP              :       0.000011478234
   RMS-DP              :       0.000000408099
   Orbital gradient    :       0.000007894441
   Orbital Rotation    :       0.000013413983
   Actual Damping      :       0.0000
   Int. Num. El.       :    87.99929097 (UP=   43.99964548 DN=   43.99964548)
   Exchange            :   -58.54487544
   Correlation         :    -3.51973774

                  ***Gradient check signals convergence***
              ***Rediagonalizing the Fockian in SOSCF/NRSCF***

               *****************************************************
               *                     SUCCESS                       *
               *           SCF CONVERGED AFTER  13 CYCLES          *
               *****************************************************

Setting up the final grid:

General Integration Accuracy     IntAcc      ...  5.010
Radial Grid Type                 RadialGrid  ... Gauss-Chebyshev
Angular Grid (max. acc.)         AngularGrid ... Lebedev-434
Angular grid pruning method      GridPruning ... 3 (G Style)
Weight generation scheme         WeightScheme... Becke
Basis function cutoff            BFCut       ...    1.0000e-11
Integration weight cutoff        WCut        ...    1.0000e-14
Grids for H and He will be reduced by one unit

# of grid points (after initial pruning)     ... 202168 (   0.1 sec)
# of grid points (after weights+screening)   ... 180200 (   0.6 sec)
nearest neighbour list constructed           ...    0.0 sec
Grid point re-assignment to atoms done       ...    0.0 sec
Grid point division into batches done        ...    0.9 sec
Reduced shell lists constructed in    2.0 sec

Total number of grid points                  ...   180200
Total number of batches                      ...     2824
Average number of points per batch           ...       63
Average number of grid points per atom       ...     7835
Average number of shells per batch           ...    53.59 (57.02%)
Average number of basis functions per batch  ...   108.60 (57.16%)
Average number of large shells per batch     ...    37.62 (70.19%)
Average number of large basis fcns per batch ...    76.49 (70.43%)
Maximum spatial batch extension              ...  18.71, 20.03, 20.57 au
Average spatial batch extension              ...   1.95,  1.89,  1.96 au

Final grid set up in    2.8 sec
Final integration                            ... done (   1.8 sec)
Change in XC energy                          ...    -0.000244376
Integrated number of electrons               ...    87.999981032
Previous integrated no of electrons          ...    87.999290972

----------------
TOTAL SCF ENERGY
----------------

Total Energy       :         -554.44717312 Eh          -15087.27460 eV

Components:
Nuclear Repulsion  :          684.65186466 Eh           18630.32438 eV
Electronic Energy  :        -1239.09903777 Eh          -33717.59899 eV
One Electron Energy:        -2111.53258720 Eh          -57457.72279 eV
Two Electron Energy:          872.43354943 Eh           23740.12380 eV

Virial components:
Potential Energy   :        -1105.63630252 Eh          -30085.89333 eV
Kinetic Energy     :          551.18912940 Eh           14998.61873 eV
Virial Ratio       :            2.00591094


DFT components:
N(Alpha)           :       43.999990516171 electrons
N(Beta)            :       43.999990516171 electrons
N(Total)           :       87.999981032342 electrons
E(X)               :      -58.545107219777 Eh       
E(C)               :       -3.519726680881 Eh       
E(XC)              :      -62.064833900658 Eh       
DFET-embed. en.    :        0.000000000000 Eh       

---------------
SCF CONVERGENCE
---------------

  Last Energy change         ...   -8.4867e-10  Tolerance :   1.0000e-08
  Last MAX-Density change    ...    3.9310e-06  Tolerance :   1.0000e-07
  Last RMS-Density change    ...    1.8796e-07  Tolerance :   5.0000e-09
  Last Orbital Gradient      ...    1.5636e-06  Tolerance :   1.0000e-05
  Last Orbital Rotation      ...    4.9839e-06  Tolerance :   1.0000e-05

             **** THE GBW FILE WAS UPDATED (/Users/lailaal-madhagi/Desktop/Testing_XAS_Analysis_code/PhenylAlanine//Results_dir_PhenylAlanine_geom_element_O_2019-11-18_00-35-02//GTE1_PhenylAlanine_geom_2019-11-18_00-35-14//TDDFT_O-edge.gbw) ****
             **** DENSITY FILE WAS UPDATED (/Users/lailaal-madhagi/Desktop/Testing_XAS_Analysis_code/PhenylAlanine//Results_dir_PhenylAlanine_geom_element_O_2019-11-18_00-35-02//GTE1_PhenylAlanine_geom_2019-11-18_00-35-14//TDDFT_O-edge.scfp.tmp) ****
             **** ENERGY FILE WAS UPDATED (/Users/lailaal-madhagi/Desktop/Testing_XAS_Analysis_code/PhenylAlanine//Results_dir_PhenylAlanine_geom_element_O_2019-11-18_00-35-02//GTE1_PhenylAlanine_geom_2019-11-18_00-35-14//TDDFT_O-edge.en.tmp) ****
----------------
ORBITAL ENERGIES
----------------

  NO   OCC          E(Eh)            E(eV) 
   0   2.0000     -19.189236      -522.1657 
   1   2.0000     -19.131200      -520.5864 
   2   2.0000     -14.306847      -389.3091 
   3   2.0000     -10.311884      -280.6006 
   4   2.0000     -10.223981      -278.2087 
   5   2.0000     -10.192497      -277.3519 
   6   2.0000     -10.187141      -277.2062 
   7   2.0000     -10.184434      -277.1325 
   8   2.0000     -10.184031      -277.1216 
   9   2.0000     -10.183689      -277.1123 
  10   2.0000     -10.183119      -277.0967 
  11   2.0000     -10.182545      -277.0811 
  12   2.0000      -1.102716       -30.0064 
  13   2.0000      -1.010397       -27.4943 
  14   2.0000      -0.891847       -24.2684 
  15   2.0000      -0.852473       -23.1970 
  16   2.0000      -0.775921       -21.1139 
  17   2.0000      -0.743271       -20.2254 
  18   2.0000      -0.723113       -19.6769 
  19   2.0000      -0.666826       -18.1453 
  20   2.0000      -0.605361       -16.4727 
  21   2.0000      -0.603658       -16.4264 
  22   2.0000      -0.572722       -15.5846 
  23   2.0000      -0.511465       -13.9177 
  24   2.0000      -0.503656       -13.7052 
  25   2.0000      -0.482924       -13.1410 
  26   2.0000      -0.463717       -12.6184 
  27   2.0000      -0.459836       -12.5128 
  28   2.0000      -0.454915       -12.3789 
  29   2.0000      -0.445640       -12.1265 
  30   2.0000      -0.420307       -11.4371 
  31   2.0000      -0.418528       -11.3887 
  32   2.0000      -0.408639       -11.1196 
  33   2.0000      -0.399397       -10.8682 
  34   2.0000      -0.381628       -10.3846 
  35   2.0000      -0.365482        -9.9453 
  36   2.0000      -0.355460        -9.6726 
  37   2.0000      -0.338120        -9.2007 
  38   2.0000      -0.335090        -9.1183 
  39   2.0000      -0.313602        -8.5336 
  40   2.0000      -0.273765        -7.4495 
  41   2.0000      -0.250311        -6.8113 
  42   2.0000      -0.246981        -6.7207 
  43   2.0000      -0.232344        -6.3224 
  44   0.0000      -0.006682        -0.1818 
  45   0.0000      -0.001169        -0.0318 
  46   0.0000       0.015535         0.4227 
  47   0.0000       0.066668         1.8141 
  48   0.0000       0.088718         2.4141 
  49   0.0000       0.102541         2.7903 
  50   0.0000       0.126944         3.4543 
  51   0.0000       0.135490         3.6869 
  52   0.0000       0.151891         4.1332 
  53   0.0000       0.156604         4.2614 
  54   0.0000       0.167995         4.5714 
  55   0.0000       0.170364         4.6358 
  56   0.0000       0.173962         4.7337 
  57   0.0000       0.187113         5.0916 
  58   0.0000       0.200425         5.4538 
  59   0.0000       0.215991         5.8774 
  60   0.0000       0.224594         6.1115 
  61   0.0000       0.249157         6.7799 
  62   0.0000       0.291050         7.9199 
  63   0.0000       0.305411         8.3107 
  64   0.0000       0.316053         8.6003 
  65   0.0000       0.326037         8.8719 
  66   0.0000       0.338585         9.2134 
  67   0.0000       0.346124         9.4185 
  68   0.0000       0.392251        10.6737 
  69   0.0000       0.455745        12.4014 
  70   0.0000       0.519725        14.1424 
  71   0.0000       0.521842        14.2000 
  72   0.0000       0.540133        14.6978 
  73   0.0000       0.549661        14.9570 
  74   0.0000       0.560537        15.2530 
  75   0.0000       0.562964        15.3190 
  76   0.0000       0.577027        15.7017 
  77   0.0000       0.590663        16.0727 
  78   0.0000       0.598450        16.2846 
  79   0.0000       0.604170        16.4403 
  80   0.0000       0.609795        16.5934 
  81   0.0000       0.618425        16.8282 
  82   0.0000       0.625704        17.0263 
  83   0.0000       0.639842        17.4110 
  84   0.0000       0.647831        17.6284 
  85   0.0000       0.659495        17.9458 
  86   0.0000       0.664066        18.0702 
  87   0.0000       0.677376        18.4323 
  88   0.0000       0.717780        19.5318 
  89   0.0000       0.730114        19.8674 
  90   0.0000       0.744701        20.2643 
  91   0.0000       0.756540        20.5865 
  92   0.0000       0.793054        21.5801 
  93   0.0000       0.802713        21.8429 
  94   0.0000       0.810997        22.0683 
  95   0.0000       0.831642        22.6301 
  96   0.0000       0.842193        22.9172 
  97   0.0000       0.846064        23.0226 
  98   0.0000       0.848862        23.0987 
  99   0.0000       0.859206        23.3802 
 100   0.0000       0.886594        24.1254 
 101   0.0000       0.897634        24.4259 
 102   0.0000       0.911395        24.8003 
 103   0.0000       0.918472        24.9929 
 104   0.0000       0.930222        25.3126 
 105   0.0000       0.933952        25.4141 
 106   0.0000       0.948431        25.8081 
 107   0.0000       0.951677        25.8965 
 108   0.0000       0.961830        26.1727 
 109   0.0000       0.977857        26.6088 
 110   0.0000       1.007209        27.4075 
 111   0.0000       1.013633        27.5823 
 112   0.0000       1.056444        28.7473 
 113   0.0000       1.066687        29.0260 
 114   0.0000       1.084784        29.5185 
 115   0.0000       1.117966        30.4214 
 116   0.0000       1.134221        30.8637 
 117   0.0000       1.140212        31.0268 
 118   0.0000       1.169373        31.8203 
 119   0.0000       1.203167        32.7398 
 120   0.0000       1.230431        33.4817 
 121   0.0000       1.257773        34.2257 
 122   0.0000       1.261488        34.3268 
 123   0.0000       1.360347        37.0169 
 124   0.0000       1.399936        38.0942 
 125   0.0000       1.414927        38.5021 
 126   0.0000       1.431185        38.9445 
 127   0.0000       1.447763        39.3956 
 128   0.0000       1.469767        39.9944 
 129   0.0000       1.484771        40.4027 
 130   0.0000       1.491099        40.5749 
 131   0.0000       1.498942        40.7883 
 132   0.0000       1.514055        41.1995 
 133   0.0000       1.536263        41.8038 
 134   0.0000       1.570502        42.7355 
 135   0.0000       1.599683        43.5296 
 136   0.0000       1.713396        46.6239 
 137   0.0000       1.725182        46.9446 
 138   0.0000       1.770285        48.1719 
 139   0.0000       1.771825        48.2138 
 140   0.0000       1.788739        48.6741 
 141   0.0000       1.801502        49.0213 
 142   0.0000       1.812278        49.3146 
 143   0.0000       1.843285        50.1583 
 144   0.0000       1.868864        50.8544 
 145   0.0000       1.889571        51.4178 
 146   0.0000       1.898802        51.6690 
 147   0.0000       1.921723        52.2927 
 148   0.0000       1.939580        52.7787 
 149   0.0000       1.943746        52.8920 
 150   0.0000       1.972773        53.6819 
 151   0.0000       1.980656        53.8964 
 152   0.0000       2.021194        54.9995 
 153   0.0000       2.047449        55.7139 
 154   0.0000       2.056871        55.9703 
 155   0.0000       2.080570        56.6152 
 156   0.0000       2.112055        57.4719 
 157   0.0000       2.140361        58.2422 
 158   0.0000       2.143032        58.3149 
 159   0.0000       2.159744        58.7696 
 160   0.0000       2.166738        58.9599 
 161   0.0000       2.204075        59.9759 
 162   0.0000       2.217969        60.3540 
 163   0.0000       2.270584        61.7857 
 164   0.0000       2.282312        62.1049 
 165   0.0000       2.309627        62.8482 
 166   0.0000       2.336550        63.5808 
 167   0.0000       2.367107        64.4122 
 168   0.0000       2.383251        64.8515 
 169   0.0000       2.397283        65.2334 
 170   0.0000       2.458926        66.9108 
 171   0.0000       2.491111        67.7866 
 172   0.0000       2.542758        69.1920 
 173   0.0000       2.579390        70.1888 
 174   0.0000       2.583468        70.2997 
 175   0.0000       2.613021        71.1039 
 176   0.0000       2.658563        72.3432 
 177   0.0000       2.681316        72.9623 
 178   0.0000       2.710925        73.7680 
 179   0.0000       2.730812        74.3092 
 180   0.0000       2.740561        74.5745 
 181   0.0000       2.746725        74.7422 
 182   0.0000       2.773808        75.4791 
 183   0.0000       2.782716        75.7215 
 184   0.0000       2.874221        78.2115 
 185   0.0000       2.895594        78.7931 
 186   0.0000       3.004727        81.7628 
 187   0.0000       3.056201        83.1635 
 188   0.0000       3.109155        84.6044 
 189   0.0000       3.409555        92.7787 
------------------
MOLECULAR ORBITALS
------------------
                      0         1         2         3         4         5   
                 -19.18924 -19.13120 -14.30685 -10.31188 -10.22398 -10.19250
                   2.00000   2.00000   2.00000   2.00000   2.00000   2.00000
                  --------  --------  --------  --------  --------  --------
  0C   1s         0.000012  0.000012  0.000015 -0.000037  0.000057  0.020837
  0C   2s         0.000129  0.000233 -0.000037 -0.000098 -0.000065 -0.001108
  0C   1pz       -0.000078  0.000026  0.000144  0.000168 -0.000046  0.000812
  0C   1px        0.000014 -0.000070  0.000007  0.000109 -0.000020 -0.000835
  0C   1py        0.000037  0.000110 -0.000072 -0.000138 -0.000032 -0.000569
  0C   3s        -0.000753  0.000275 -0.002370 -0.000306  0.000606  0.009543
  0C   2pz        0.001223 -0.000887  0.000897 -0.001212 -0.000978 -0.003751
  0C   2px       -0.000919  0.001076 -0.001328  0.000049  0.000477  0.003410
  0C   2py       -0.000032  0.000516 -0.001019  0.002526  0.002799  0.001797
  0C   1dz2      -0.000028 -0.000004  0.000024  0.000081  0.000047 -0.000116
  0C   1dxz       0.000042  0.000006  0.000060 -0.000053 -0.000022  0.000884
  0C   1dyz       0.000014 -0.000037  0.000036 -0.000023 -0.000093  0.000575
  0C   1dx2y2    -0.000052  0.000003 -0.000006  0.000070 -0.000065 -0.000273
  0C   1dxy       0.000019  0.000065 -0.000025  0.000035  0.000033 -0.000597
  1C   1s        -0.000014  0.000010  0.000004  0.000013  0.001117  0.994556
  1C   2s        -0.000011  0.000015  0.000123  0.000170  0.001627  0.037367
  1C   1pz        0.000024  0.000117 -0.000305 -0.000009 -0.000167 -0.000182
  1C   1px       -0.000048 -0.000067  0.000137  0.000061 -0.000266 -0.000254
  1C   1py        0.000066  0.000010  0.000133  0.000052  0.000623 -0.000125
  1C   3s         0.001050 -0.001228 -0.001160 -0.002201 -0.005142 -0.033033
  1C   2pz        0.000284 -0.001846  0.003263 -0.000818 -0.000509 -0.000210
  1C   2px       -0.000321  0.002007 -0.003128  0.001782  0.001957  0.001115
  1C   2py       -0.001991 -0.002468 -0.000680 -0.002436 -0.003452  0.002340
  1C   1dz2       0.000011  0.000036  0.000061  0.000038  0.000057 -0.000034
  1C   1dxz      -0.000019  0.000047  0.000039  0.000050 -0.000034 -0.000634
  1C   1dyz       0.000035  0.000086 -0.000177  0.000019  0.000055  0.000009
  1C   1dx2y2     0.000012  0.000078  0.000092  0.000027 -0.000034 -0.000072
  1C   1dxy      -0.000039 -0.000038  0.000082  0.000081 -0.000043 -0.000127
  2C   1s         0.000003  0.000006  0.000004 -0.000011 -0.000009  0.000364
  2C   2s         0.000019  0.000048  0.000033 -0.000061 -0.000041 -0.000198
  2C   1pz        0.000011 -0.000027 -0.000001 -0.000058 -0.000023  0.000072
  2C   1px        0.000005  0.000039 -0.000012 -0.000014  0.000034 -0.000065
  2C   1py        0.000004 -0.000005  0.000038  0.000048  0.000013 -0.000181
  2C   3s         0.000128  0.000126 -0.000307  0.001967  0.001726 -0.001444
  2C   2pz       -0.000451  0.000487 -0.000092  0.000291  0.000286  0.001155
  2C   2px        0.000331 -0.000622  0.000332  0.000127 -0.000283 -0.001117
  2C   2py       -0.000258  0.000397 -0.000501  0.001286  0.001156  0.000466
  2C   1dz2       0.000018  0.000004 -0.000008 -0.000043 -0.000009 -0.000012
  2C   1dxz       0.000003  0.000019  0.000009 -0.000006  0.000001 -0.000085
  2C   1dyz      -0.000011  0.000008  0.000017  0.000020 -0.000001  0.000039
  2C   1dx2y2     0.000021  0.000000  0.000005 -0.000041 -0.000014 -0.000013
  2C   1dxy      -0.000003 -0.000017  0.000018  0.000034 -0.000000 -0.000044
  3C   1s         0.000004  0.000006 -0.000002  0.000010  0.000010 -0.000812
  3C   2s         0.000029  0.000061 -0.000004  0.000051  0.000019 -0.000448
  3C   1pz        0.000000  0.000014 -0.000018  0.000003  0.000007  0.000022
  3C   1px       -0.000003 -0.000019  0.000028  0.000015  0.000013  0.000001
  3C   1py       -0.000008  0.000035  0.000015  0.000021  0.000033 -0.000128
  3C   3s        -0.000697 -0.000091  0.000424 -0.000356  0.000311  0.003043
  3C   2pz       -0.000012  0.000401 -0.000383  0.000296  0.000139 -0.000164
  3C   2px        0.000084 -0.000361  0.000307 -0.000469 -0.000297 -0.000049
  3C   2py       -0.000224 -0.000118  0.000191 -0.000431 -0.000247  0.001686
  3C   1dz2       0.000004  0.000000 -0.000004 -0.000013  0.000010 -0.000012
  3C   1dxz       0.000008  0.000020 -0.000001  0.000012  0.000002 -0.000068
  3C   1dyz       0.000001  0.000014 -0.000014 -0.000003 -0.000002 -0.000005
  3C   1dx2y2    -0.000001 -0.000002  0.000005  0.000007 -0.000006 -0.000023
  3C   1dxy       0.000003 -0.000010  0.000012 -0.000014 -0.000008 -0.000011
  4C   1s        -0.000000 -0.000001  0.000018 -0.000004  0.000001  0.000478
  4C   2s         0.000002  0.000012  0.000112 -0.000018 -0.000013 -0.000178
  4C   1pz       -0.000005 -0.000004  0.000042  0.000006 -0.000001 -0.000039
  4C   1px        0.000006  0.000007 -0.000019 -0.000007 -0.000035  0.000037
  4C   1py        0.000014  0.000044 -0.000014  0.000019  0.000034 -0.000202
  4C   3s         0.000310  0.000411 -0.000491  0.000862  0.001258 -0.001712
  4C   2pz        0.000215  0.000445 -0.000657  0.000389  0.000111 -0.000915
  4C   2px       -0.000263 -0.000489  0.000705 -0.000347  0.000253  0.001109
  4C   2py        0.000072 -0.000205 -0.000063  0.000039  0.000445 -0.000225
  4C   1dz2       0.000001  0.000002  0.000017  0.000004 -0.000005  0.000006
  4C   1dxz       0.000003  0.000002  0.000023 -0.000005 -0.000000 -0.000095
  4C   1dyz      -0.000000 -0.000002  0.000007 -0.000004  0.000019 -0.000025
  4C   1dx2y2     0.000006  0.000007  0.000025 -0.000000 -0.000013  0.000012
  4C   1dxy      -0.000001  0.000000  0.000006 -0.000002  0.000030  0.000030
  5C   1s         0.000017  0.000029 -0.000041  0.000007 -0.000085  0.023917
  5C   2s         0.000128  0.000198 -0.000237  0.000047 -0.000154 -0.000987
  5C   1pz       -0.000011 -0.000013  0.000029 -0.000014  0.000053 -0.000687
  5C   1px        0.000008  0.000007 -0.000021 -0.000032  0.000114  0.000750
  5C   1py        0.000011 -0.000023  0.000087 -0.000010 -0.000107 -0.000841
  5C   3s        -0.001110 -0.002521  0.003144 -0.001541 -0.001294  0.008956
  5C   2pz       -0.000581 -0.000999  0.000685 -0.000793 -0.000992  0.002590
  5C   2px        0.000672  0.001164 -0.000997  0.000741 -0.000039 -0.003198
  5C   2py       -0.000131 -0.000873  0.001483 -0.000068  0.001160  0.002162
  5C   1dz2       0.000001  0.000015 -0.000061 -0.000018 -0.000063  0.000078
  5C   1dxz       0.000053  0.000068 -0.000029  0.000019  0.000020  0.000672
  5C   1dyz      -0.000014 -0.000015  0.000029  0.000002 -0.000026 -0.000754
  5C   1dx2y2    -0.000016  0.000006 -0.000072  0.000002  0.000015  0.000091
  5C   1dxy       0.000021  0.000035 -0.000079 -0.000014 -0.000040  0.000781
  6C   1s        -0.000011  0.000064  0.000049  0.000770 -0.995576  0.000807
  6C   2s        -0.000466  0.000813  0.001247 -0.001093 -0.039759 -0.001686
  6C   1pz       -0.000202  0.000042 -0.000023 -0.000253 -0.000052 -0.000160
  6C   1px        0.000280 -0.000091 -0.000012  0.000473  0.000292 -0.000021
  6C   1py       -0.000091 -0.000052 -0.000113  0.000092  0.000479  0.000639
  6C   3s         0.001235 -0.004926 -0.009721  0.007371  0.042755  0.005310
  6C   2pz        0.003936  0.000690  0.004792  0.001902  0.003079  0.001682
  6C   2px        0.000440  0.001614  0.001233 -0.004561 -0.002303 -0.000092
  6C   2py        0.003942  0.004000  0.003768  0.000705 -0.001615 -0.003816
  6C   1dz2       0.000050  0.000145  0.000431  0.000022 -0.000100  0.000015
  6C   1dxz      -0.000020 -0.000215  0.000244  0.000605 -0.000002  0.000089
  6C   1dyz       0.000065  0.000227  0.000297 -0.000118 -0.000109  0.000031
  6C   1dx2y2    -0.000244 -0.000226 -0.000075 -0.000569  0.000166  0.000017
  6C   1dxy      -0.000221 -0.000325  0.000140  0.000239 -0.000117 -0.000061
  7H   1s         0.000058 -0.000066  0.000053 -0.000300 -0.000213 -0.000377
  7H   2s        -0.000980  0.000971 -0.000276  0.000217 -0.000112  0.000598
  8H   1s         0.000032 -0.000045  0.000027 -0.000042 -0.000069 -0.000089
  8H   2s         0.000149 -0.000308  0.000011 -0.000015 -0.000097 -0.000145
  9H   1s         0.000023  0.000031 -0.000050  0.000005 -0.000039 -0.000077
  9H   2s         0.000071  0.000075 -0.000280  0.000086 -0.000051 -0.000128
 10H   1s         0.000014  0.000024 -0.000121  0.000004 -0.000115 -0.000317
 10H   2s        -0.000286 -0.000305  0.000086 -0.000434 -0.000343  0.000465
 11C   1s         0.000033 -0.000273 -0.000007  0.995176  0.000833  0.000049
 11C   2s        -0.000010 -0.000585  0.000411  0.037148  0.001743  0.000080
 11C   1pz       -0.000092  0.000087 -0.000211  0.001116 -0.000189  0.000059
 11C   1px       -0.000572  0.000130  0.000062 -0.001170  0.000212 -0.000158
 11C   1py       -0.000354 -0.000085 -0.000030  0.000111 -0.000083  0.000016
 11C   3s         0.006663 -0.009996  0.001881 -0.012556 -0.011033 -0.001519
 11C   2pz       -0.001675 -0.010097 -0.000477  0.006529  0.004359  0.000211
 11C   2px       -0.008578  0.000650 -0.000572 -0.008421 -0.006529 -0.000732
 11C   2py       -0.007996 -0.010447 -0.001126  0.003622  0.001875  0.001041
 11C   1dz2       0.000047  0.000159 -0.000022 -0.000248  0.000080  0.000069
 11C   1dxz      -0.000378  0.000093 -0.000102 -0.000271 -0.000739  0.000032
 11C   1dyz       0.000053  0.000679  0.000092  0.001911  0.000015 -0.000090
 11C   1dx2y2     0.000231 -0.000534 -0.000053 -0.000591  0.000494 -0.000047
 11C   1dxy      -0.000126 -0.000128 -0.000020  0.000754 -0.000205  0.000139
 12O   1s         0.995163 -0.000504  0.000010  0.000125  0.000005  0.000002
 12O   2s         0.030284  0.000496  0.000297  0.000985  0.000394  0.000100
 12O   1pz        0.001020 -0.000100 -0.000099  0.000002 -0.000010 -0.000067
 12O   1px        0.000318  0.000187  0.000098 -0.000475  0.000303  0.000092
 12O   1py        0.001445  0.000077  0.000070 -0.000243  0.000103 -0.000030
 12O   3s        -0.022999 -0.002619 -0.001199 -0.003470 -0.000009  0.000139
 12O   2pz       -0.002382  0.001596  0.000088 -0.001840 -0.000186  0.000318
 12O   2px       -0.003402 -0.001818 -0.000615 -0.001093 -0.000484 -0.000319
 12O   2py       -0.005132  0.000294 -0.000583 -0.003375 -0.000387  0.000089
 12O   1dz2       0.000268  0.000120 -0.000006  0.000951  0.000063  0.000066
 12O   1dxz       0.000037  0.000295 -0.000018 -0.000345  0.000110  0.000026
 12O   1dyz      -0.000273  0.000307  0.000012 -0.000745 -0.000220 -0.000027
 12O   1dx2y2    -0.000087 -0.000378 -0.000012  0.000100 -0.000001 -0.000013
 12O   1dxy      -0.000480 -0.000068 -0.000135 -0.001814  0.000030 -0.000005
 13O   1s        -0.000536 -0.995190  0.000012 -0.000021  0.000023  0.000001
 13O   2s        -0.000506 -0.030780  0.000182  0.000883  0.000549  0.000059
 13O   1pz        0.000151  0.001571  0.000007  0.000752 -0.000100 -0.000028
 13O   1px       -0.000142 -0.000212  0.000052 -0.000299  0.000038 -0.000018
 13O   1py        0.000030  0.001671 -0.000009  0.000724 -0.000066  0.000003
 13O   3s         0.002209  0.026319 -0.000428 -0.008083 -0.001515 -0.000257
 13O   2pz       -0.000973 -0.005327  0.000233  0.003294  0.000176  0.000127
 13O   2px        0.002251  0.000924 -0.000146  0.001285  0.000849  0.000135
 13O   2py        0.000609 -0.005698  0.000327  0.004119  0.000565 -0.000096
 13O   1dz2       0.000146  0.000053 -0.000010 -0.000339  0.000134 -0.000013
 13O   1dxz      -0.000433 -0.000031  0.000034  0.000065 -0.000059 -0.000009
 13O   1dyz       0.000017  0.000279 -0.000110 -0.001732 -0.000204  0.000007
 13O   1dx2y2     0.000236 -0.000197  0.000028  0.000871 -0.000008 -0.000025
 13O   1dxy      -0.000280 -0.000070  0.000002 -0.000020 -0.000244 -0.000003
 14N   1s        -0.000033  0.000002 -0.995290 -0.000028  0.000001  0.000019
 14N   2s        -0.000376  0.000110 -0.032298 -0.000550  0.000678  0.000015
 14N   1pz       -0.000059  0.000169 -0.001162 -0.000298  0.000393 -0.000224
 14N   1px        0.000012 -0.000147 -0.001260  0.000190  0.000106 -0.000177
 14N   1py        0.000011  0.000084  0.000711 -0.000089  0.000310 -0.000046
 14N   3s         0.002921  0.001771  0.024556  0.000401 -0.006377 -0.001921
 14N   2pz        0.001275  0.000193  0.004463  0.001083 -0.002663 -0.000632
 14N   2px        0.000694  0.001270  0.002780 -0.000912 -0.000462  0.000527
 14N   2py        0.000393 -0.000146 -0.000026 -0.000010 -0.001115  0.000595
 14N   1dz2       0.000062  0.000057  0.000215  0.000028  0.000628 -0.000143
 14N   1dxz       0.000109  0.000109  0.000019 -0.000151  0.000414  0.000014
 14N   1dyz      -0.000010 -0.000119  0.000186  0.000059  0.000979  0.000041
 14N   1dx2y2    -0.000036  0.000036 -0.000034  0.000076 -0.000187 -0.000073
 14N   1dxy       0.000093  0.000009  0.000147  0.000051  0.000189 -0.000033
 15H   1s        -0.000138 -0.000221 -0.000156  0.000125  0.000359 -0.000050
 15H   2s         0.000146 -0.000529 -0.003660  0.000943 -0.000489 -0.000328
 16H   1s        -0.000267  0.000009 -0.000134 -0.000249  0.000379 -0.000321
 16H   2s         0.000321  0.000218 -0.003605 -0.000212 -0.000689  0.001775
 17H   1s         0.000802 -0.000108 -0.000009  0.000470 -0.000006 -0.000105
 17H   2s         0.001531 -0.000188 -0.000285 -0.000045 -0.000941 -0.000230
 18C   1s         0.000005 -0.000104  0.000001 -0.000252 -0.001326  0.016438
 18C   2s         0.000126 -0.000886  0.000419 -0.001136  0.000879  0.000404
 18C   1pz        0.000060 -0.000142 -0.000351  0.000030 -0.000089 -0.000059
 18C   1px       -0.000058  0.000151 -0.000239  0.000456  0.000013  0.000023
 18C   1py        0.000030  0.000066 -0.000003 -0.000116 -0.000295  0.000527
 18C   3s        -0.000251  0.003859  0.001071  0.003907 -0.006118  0.001237
 18C   2pz       -0.000709  0.000494 -0.000775  0.000290  0.003349  0.001486
 18C   2px        0.000469 -0.002440  0.000645 -0.002561  0.002925  0.001801
 18C   2py       -0.002095 -0.001770 -0.001450 -0.000793 -0.002662 -0.002198
 18C   1dz2       0.000065 -0.000002  0.000023 -0.000006  0.000044  0.000617
 18C   1dxz       0.000018  0.000150  0.000109 -0.000016  0.000486 -0.000118
 18C   1dyz       0.000042  0.000017 -0.000001 -0.000008 -0.000386  0.000270
 18C   1dx2y2     0.000007 -0.000005  0.000056  0.000020  0.000084  0.000863
 18C   1dxy       0.000088  0.000028  0.000033 -0.000024 -0.000324 -0.000050
 19H   1s        -0.000418 -0.000196  0.000405 -0.000418  0.000076  0.000100
 19H   2s        -0.000411 -0.000561  0.000026  0.000784 -0.005712  0.001504
 20H   1s         0.000002  0.000085 -0.000172  0.000021  0.000452 -0.000210
 20H   2s        -0.000059  0.000769  0.000236  0.001075  0.000174 -0.000186
 21H   1s         0.000092 -0.000268  0.000156 -0.000377  0.000296 -0.000340
 21H   2s         0.001226  0.000198 -0.000012 -0.000021 -0.000375  0.000301
 22H   1s         0.000011 -0.000011  0.000010 -0.000034 -0.000045  0.000018
 22H   2s        -0.000035 -0.000087  0.000042 -0.000144 -0.000109  0.000504
                      6         7         8         9        10        11   
                 -10.18714 -10.18443 -10.18403 -10.18369 -10.18312 -10.18255
                   2.00000   2.00000   2.00000   2.00000   2.00000   2.00000
                  --------  --------  --------  --------  --------  --------
  0C   1s         0.002061 -0.004297  0.144609  0.016535  0.089047 -0.980181
  0C   2s         0.000348  0.000444  0.003295  0.000612  0.002648 -0.036479
  0C   1pz       -0.000068 -0.000118 -0.000214  0.000075 -0.000116  0.000463
  0C   1px        0.000025  0.000141  0.000125 -0.000102  0.000108 -0.000454
  0C   1py        0.000306 -0.000225  0.001260  0.000091  0.000073  0.000689
  0C   3s         0.001743 -0.001700  0.007292 -0.005813  0.007211  0.036216
  0C   2pz        0.000417  0.000569 -0.001179  0.001988 -0.002249 -0.004852
  0C   2px       -0.000286 -0.000664  0.001493 -0.002156  0.002534  0.005224
  0C   2py       -0.002382  0.001353 -0.003895  0.001869 -0.003389 -0.005292
  0C   1dz2      -0.000050 -0.000008  0.000549  0.000023  0.000104  0.000304
  0C   1dxz       0.000212  0.000078 -0.000077 -0.000001  0.000001  0.000418
  0C   1dyz      -0.000108 -0.000005  0.000257  0.000019  0.000065  0.000423
  0C   1dx2y2    -0.000140 -0.000015  0.000982  0.000027  0.000186  0.000580
  0C   1dxy       0.000134  0.000008 -0.000131 -0.000017 -0.000041 -0.000325
  1C   1s         0.016203  0.007619 -0.000752 -0.023131 -0.001300  0.020643
  1C   2s         0.001484  0.000884 -0.000162 -0.002724  0.000394  0.002691
  1C   1pz       -0.000065 -0.000206 -0.000271  0.000575 -0.000103  0.000848
  1C   1px        0.000088  0.000255  0.000272 -0.000699  0.000110 -0.000784
  1C   1py        0.000636 -0.000506  0.000206  0.000790 -0.000130 -0.000627
  1C   3s        -0.008934  0.001179 -0.003503  0.013747 -0.006503 -0.014340
  1C   2pz        0.001052 -0.000289 -0.000348 -0.000834 -0.000395 -0.003082
  1C   2px        0.000052  0.000141  0.000318  0.001591  0.000070  0.002407
  1C   2py       -0.006362  0.000882  0.000629 -0.007972  0.005239  0.008145
  1C   1dz2      -0.000456 -0.000056 -0.000031  0.000054 -0.000010  0.000202
  1C   1dxz       0.000060 -0.000147  0.000008  0.000750  0.000116 -0.000958
  1C   1dyz      -0.000147  0.000240  0.000230 -0.000647  0.000099 -0.000553
  1C   1dx2y2    -0.000786 -0.000057 -0.000020 -0.000035 -0.000008  0.000315
  1C   1dxy       0.000224 -0.000280 -0.000233  0.000723 -0.000091  0.000523
  2C   1s         0.001216 -0.076399  0.948628  0.092140  0.223063  0.162298
  2C   2s         0.000514 -0.002249  0.034079  0.003017  0.010068  0.008198
  2C   1pz       -0.000019 -0.000267 -0.000379 -0.000074 -0.000777 -0.000323
  2C   1px        0.000040  0.000288  0.000371  0.000088  0.000849  0.000227
  2C   1py        0.000025 -0.000211  0.000313 -0.000123 -0.000763  0.001309
  2C   3s        -0.004170  0.003596 -0.026401  0.002446 -0.020724 -0.019675
  2C   2pz        0.001199 -0.000579  0.003206 -0.001908  0.005679  0.004573
  2C   2px       -0.001152  0.000534 -0.003150  0.001830 -0.005758 -0.004261
  2C   2py       -0.002052  0.000815 -0.002112  0.001373 -0.000792 -0.004898
  2C   1dz2       0.000079  0.000038 -0.000164 -0.000047 -0.000131 -0.000697
  2C   1dxz       0.000078 -0.000045 -0.000198 -0.000165 -0.000689 -0.000056
  2C   1dyz       0.000019  0.000150  0.000034  0.000102  0.000779 -0.000118
  2C   1dx2y2     0.000117  0.000089 -0.000272 -0.000062 -0.000084 -0.001204
  2C   1dxy       0.000004 -0.000146 -0.000090 -0.000127 -0.000862 -0.000044
  3C   1s         0.000301 -0.180311  0.225888 -0.091902 -0.946294 -0.053458
  3C   2s        -0.000031 -0.004467  0.006453 -0.002910 -0.035592 -0.002356
  3C   1pz        0.000001 -0.000761 -0.000776 -0.000195  0.000092 -0.000033
  3C   1px        0.000001  0.000745  0.000835  0.000209 -0.000022  0.000033
  3C   1py        0.000043  0.000486 -0.000552 -0.000163 -0.001131  0.000018
  3C   3s         0.001980 -0.005673  0.003723 -0.005404  0.036903  0.009898
  3C   2pz       -0.000217  0.001845  0.001312  0.001157 -0.001083 -0.000206
  3C   2px        0.000156 -0.001653 -0.001599 -0.000925  0.000461 -0.000127
  3C   2py        0.001760 -0.003473  0.003608 -0.003383  0.009513  0.004550
  3C   1dz2      -0.000003  0.000217  0.000057  0.000052 -0.000046 -0.000001
  3C   1dxz       0.000001 -0.000819  0.000449 -0.000184  0.001048  0.000216
  3C   1dyz       0.000002 -0.000465 -0.000742 -0.000188 -0.000114 -0.000077
  3C   1dx2y2     0.000002  0.000353 -0.000028  0.000079 -0.000153 -0.000018
  3C   1dxy       0.000001  0.000470  0.000792  0.000190  0.000175  0.000092
  4C   1s         0.001391 -0.929504 -0.090292 -0.290515  0.183802  0.002677
  4C   2s         0.000494 -0.033094 -0.003657 -0.012503  0.008873  0.000758
  4C   1pz        0.000039 -0.000305 -0.000431  0.000050  0.000872  0.000095
  4C   1px       -0.000004  0.000326  0.000427  0.000061 -0.000877 -0.000101
  4C   1py        0.000038 -0.000189  0.000195 -0.001446 -0.000305  0.000053
  4C   3s        -0.003919  0.024685  0.000172  0.020894 -0.020897 -0.006909
  4C   2pz       -0.000815  0.002412 -0.000058  0.002883 -0.005222 -0.002332
  4C   2px        0.000823 -0.002618  0.000148 -0.003469  0.005592  0.002575
  4C   2py       -0.002183  0.002349 -0.001093  0.006182 -0.003074 -0.002416
  4C   1dz2       0.000059  0.000032 -0.000125  0.000651  0.000080  0.000027
  4C   1dxz       0.000080  0.000277  0.000221  0.000038 -0.000944  0.000032
  4C   1dyz       0.000022  0.000108  0.000143  0.000366 -0.000699 -0.000019
  4C   1dx2y2     0.000118  0.000049 -0.000210  0.001169  0.000096  0.000038
  4C   1dxy      -0.000017 -0.000079 -0.000159 -0.000217  0.000668  0.000028
  5C   1s         0.003440 -0.296238 -0.101177  0.942466 -0.059145 -0.002617
  5C   2s         0.000467 -0.008852 -0.003996  0.035287 -0.002724 -0.000246
  5C   1pz       -0.000054  0.000036 -0.000178  0.000550 -0.000009  0.000131
  5C   1px       -0.000055  0.000071  0.000188 -0.000580  0.000006 -0.000127
  5C   1py        0.000320 -0.001199 -0.000001 -0.000695  0.000094  0.000033
  5C   3s         0.001320 -0.002213  0.003828 -0.035273  0.010867  0.007103
  5C   2pz        0.000203 -0.001328  0.001157 -0.005573  0.003277  0.002731
  5C   2px        0.000123  0.001117 -0.001145  0.005571 -0.003203 -0.002672
  5C   2py       -0.002198  0.002984 -0.000836  0.003595 -0.002597 -0.001638
  5C   1dz2      -0.000109 -0.000479 -0.000058 -0.000514  0.000130  0.000048
  5C   1dxz       0.000227  0.000142 -0.000040 -0.000300  0.000040  0.000008
  5C   1dyz       0.000048 -0.000244 -0.000039  0.000117 -0.000011  0.000026
  5C   1dx2y2    -0.000163 -0.000869 -0.000105 -0.000829  0.000219  0.000071
  5C   1dxy      -0.000031  0.000138  0.000023 -0.000265  0.000045 -0.000012
  6C   1s         0.001344  0.000007  0.000017 -0.000060  0.000005 -0.000055
  6C   2s         0.000741 -0.000149 -0.000002  0.000343  0.000019  0.000029
  6C   1pz        0.000064  0.000029 -0.000034  0.000001 -0.000000  0.000148
  6C   1px       -0.000015  0.000012 -0.000021 -0.000006  0.000018 -0.000025
  6C   1py       -0.000090  0.000004  0.000023 -0.000035  0.000006 -0.000052
  6C   3s        -0.005248  0.001006 -0.000237 -0.001929 -0.000075  0.000458
  6C   2pz       -0.000748 -0.000437 -0.000008  0.000230 -0.000064 -0.001039
  6C   2px       -0.004363  0.000101  0.000120  0.000046  0.000046 -0.000191
  6C   2py        0.002988 -0.000625  0.000132  0.000788 -0.000035 -0.000346
  6C   1dz2       0.000018  0.000010 -0.000014 -0.000030  0.000005  0.000001
  6C   1dxz       0.000491  0.000014 -0.000007 -0.000002  0.000007 -0.000005
  6C   1dyz      -0.000241  0.000016  0.000019 -0.000042  0.000009 -0.000036
  6C   1dx2y2     0.000392 -0.000007 -0.000002  0.000004  0.000007  0.000000
  6C   1dxy      -0.000321 -0.000028  0.000004  0.000028 -0.000006  0.000041
  7H   1s         0.000185 -0.000047 -0.000345 -0.000121 -0.000039  0.001275
  7H   2s         0.000271 -0.000577  0.001303 -0.000689  0.001256 -0.002360
  8H   1s        -0.000010  0.000148 -0.001336  0.000002 -0.000204 -0.000090
  8H   2s        -0.000715 -0.000339  0.002917  0.001178 -0.000635 -0.000878
  9H   1s        -0.000012  0.001322  0.000068  0.000286 -0.000121 -0.000106
  9H   2s        -0.000697 -0.003040 -0.000339  0.000308 -0.000800 -0.001062
 10H   1s         0.000193  0.000529  0.000218 -0.001185  0.000152  0.000098
 10H   2s         0.000345 -0.001718  0.000209  0.002179  0.000764  0.000836
 11C   1s        -0.000017  0.000002  0.000002 -0.000010  0.000003 -0.000030
 11C   2s         0.001234  0.000001 -0.000006 -0.000054 -0.000039  0.000149
 11C   1pz       -0.000189  0.000007 -0.000001 -0.000008  0.000004 -0.000012
 11C   1px        0.000478 -0.000010  0.000008  0.000017 -0.000012  0.000033
 11C   1py       -0.000122 -0.000001  0.000001  0.000006  0.000012 -0.000019
 11C   3s        -0.005662  0.000097 -0.000049  0.000434  0.000177  0.000512
 11C   2pz        0.000338  0.000179 -0.000264 -0.000319 -0.000047  0.001234
 11C   2px       -0.003060  0.000103 -0.000096  0.000131  0.000073  0.000546
 11C   2py       -0.000233  0.000319 -0.000302 -0.000433 -0.000078  0.001395
 11C   1dz2       0.000004  0.000000 -0.000006 -0.000010 -0.000002  0.000021
 11C   1dxz      -0.000108 -0.000000 -0.000005 -0.000011  0.000000 -0.000014
 11C   1dyz      -0.000134 -0.000003 -0.000012  0.000026  0.000005  0.000054
 11C   1dx2y2    -0.000011  0.000001  0.000008 -0.000009  0.000006 -0.000076
 11C   1dxy      -0.000035  0.000002  0.000018 -0.000004  0.000009 -0.000085
 12O   1s        -0.000007 -0.000001  0.000002  0.000002  0.000001 -0.000014
 12O   2s        -0.000156 -0.000022  0.000024  0.000044  0.000007 -0.000140
 12O   1pz       -0.000004  0.000007 -0.000004 -0.000019 -0.000003  0.000037
 12O   1px       -0.000119 -0.000001 -0.000006  0.000007 -0.000000  0.000033
 12O   1py        0.000058  0.000007  0.000004 -0.000022  0.000002 -0.000058
 12O   3s         0.000262  0.000159 -0.000180 -0.000254 -0.000053  0.000958
 12O   2pz       -0.000039 -0.000027  0.000021  0.000079  0.000009 -0.000161
 12O   2px        0.000824  0.000054 -0.000042 -0.000129 -0.000035  0.000248
 12O   2py       -0.000185  0.000002 -0.000047  0.000035 -0.000014  0.000308
 12O   1dz2      -0.000087  0.000004 -0.000001 -0.000002  0.000001 -0.000011
 12O   1dxz       0.000035  0.000001  0.000005 -0.000006  0.000002 -0.000033
 12O   1dyz      -0.000047 -0.000004  0.000006  0.000009  0.000001 -0.000026
 12O   1dx2y2     0.000158 -0.000001 -0.000001 -0.000004 -0.000005  0.000020
 12O   1dxy       0.000069  0.000000 -0.000006 -0.000003 -0.000005  0.000028
 13O   1s        -0.000026  0.000002 -0.000004 -0.000001 -0.000000  0.000020
 13O   2s        -0.000438  0.000037 -0.000058 -0.000026  0.000003  0.000282
 13O   1pz       -0.000007 -0.000000  0.000004  0.000001  0.000005 -0.000006
 13O   1px       -0.000107 -0.000002  0.000002  0.000009  0.000004 -0.000001
 13O   1py       -0.000011  0.000002 -0.000008 -0.000001 -0.000005  0.000030
 13O   3s         0.002012 -0.000258  0.000349  0.000217  0.000007 -0.001675
 13O   2pz       -0.000511  0.000052 -0.000088 -0.000016 -0.000016  0.000392
 13O   2px        0.001044 -0.000013  0.000034 -0.000045 -0.000023 -0.000164
 13O   2py       -0.000528  0.000033 -0.000054 -0.000003  0.000021  0.000308
 13O   1dz2      -0.000007 -0.000002  0.000004 -0.000001  0.000003 -0.000020
 13O   1dxz      -0.000135 -0.000003 -0.000007  0.000009  0.000002  0.000017
 13O   1dyz       0.000029  0.000002  0.000006 -0.000012  0.000000 -0.000036
 13O   1dx2y2     0.000009 -0.000001 -0.000000  0.000004  0.000003  0.000016
 13O   1dxy      -0.000184  0.000004 -0.000003  0.000005  0.000005  0.000018
 14N   1s         0.000017  0.000008  0.000001 -0.000011  0.000002 -0.000006
 14N   2s         0.000501  0.000059  0.000021 -0.000048  0.000027 -0.000166
 14N   1pz        0.000207 -0.000005  0.000010 -0.000012  0.000002 -0.000057
 14N   1px        0.000096  0.000024  0.000002 -0.000075 -0.000000  0.000054
 14N   1py        0.000011  0.000011 -0.000000 -0.000004 -0.000007  0.000072
 14N   3s        -0.000239 -0.000527  0.000034  0.000455 -0.000098 -0.000024
 14N   2pz       -0.000002 -0.000286 -0.000001  0.000441 -0.000032  0.000043
 14N   2px        0.000231 -0.000215  0.000003  0.000404 -0.000002 -0.000415
 14N   2py        0.000165 -0.000217  0.000010  0.000308  0.000035 -0.000576
 14N   1dz2       0.000075 -0.000021  0.000003  0.000032 -0.000001  0.000017
 14N   1dxz      -0.000015 -0.000006  0.000002 -0.000003  0.000003 -0.000032
 14N   1dyz      -0.000006 -0.000013 -0.000001  0.000017  0.000001 -0.000026
 14N   1dx2y2     0.000043  0.000000 -0.000003  0.000002  0.000001 -0.000012
 14N   1dxy       0.000155 -0.000015 -0.000001  0.000024 -0.000002  0.000002
 15H   1s         0.000156  0.000050  0.000019 -0.000151  0.000014  0.000011
 15H   2s         0.000037  0.000001 -0.000035  0.000077 -0.000013  0.000147
 16H   1s         0.000132  0.000086  0.000015 -0.000264  0.000012  0.000025
 16H   2s         0.000427 -0.000331 -0.000001  0.000854  0.000047 -0.000748
 17H   1s         0.000080  0.000002  0.000016 -0.000024  0.000004 -0.000056
 17H   2s        -0.000005  0.000025 -0.000020 -0.000017 -0.000013  0.000058
 18C   1s        -0.995343 -0.002235  0.000952  0.002543  0.000168 -0.001487
 18C   2s        -0.039233  0.000399 -0.000240 -0.000379  0.000027  0.000273
 18C   1pz        0.000106 -0.000030 -0.000022  0.000008 -0.000010 -0.000001
 18C   1px        0.000403  0.000017  0.000049 -0.000057  0.000017 -0.000090
 18C   1py        0.000323 -0.000036 -0.000003  0.000069  0.000079 -0.000056
 18C   3s         0.039196 -0.002039  0.000897  0.003237 -0.001884 -0.002363
 18C   2pz       -0.001015  0.000435  0.000331 -0.000075 -0.000109  0.000201
 18C   2px       -0.002555 -0.000007 -0.000448 -0.000367 -0.000041 -0.000026
 18C   2py       -0.003049  0.001106 -0.000523 -0.001120  0.000663  0.001685
 18C   1dz2      -0.000021  0.000049 -0.000011 -0.000012  0.000001 -0.000001
 18C   1dxz       0.000142  0.000010  0.000009 -0.000059 -0.000000  0.000068
 18C   1dyz      -0.000033  0.000007 -0.000019 -0.000026  0.000004 -0.000035
 18C   1dx2y2     0.000027  0.000050 -0.000051  0.000013 -0.000000  0.000042
 18C   1dxy      -0.000007 -0.000004  0.000024  0.000036 -0.000003  0.000009
 19H   1s         0.000189  0.000005 -0.000019  0.000018  0.000011  0.000016
 19H   2s        -0.000082 -0.000019  0.000050 -0.000001 -0.000030 -0.000251
 20H   1s         0.000207  0.000142  0.000009 -0.000130  0.000030  0.000042
 20H   2s        -0.005091  0.000069  0.000190 -0.000108  0.000117 -0.000110
 21H   1s         0.000143  0.000026 -0.000101 -0.000047  0.000016  0.000099
 21H   2s        -0.005416 -0.000187 -0.000038  0.000015  0.000072 -0.000444
 22H   1s         0.000114  0.000394 -0.000420  0.000088  0.001230  0.000117
 22H   2s         0.000398 -0.001583  0.001650 -0.000959 -0.002008  0.000555
                     12        13        14        15        16        17   
                  -1.10272  -1.01040  -0.89185  -0.85247  -0.77592  -0.74327
                   2.00000   2.00000   2.00000   2.00000   2.00000   2.00000
                  --------  --------  --------  --------  --------  --------
  0C   1s         0.000703 -0.000163  0.017597  0.091728  0.020189 -0.110363
  0C   2s        -0.000552 -0.001145 -0.032705 -0.173176 -0.039550  0.215177
  0C   1pz       -0.000032  0.000371  0.009472  0.033260  0.030336  0.017735
  0C   1px        0.000225  0.000181 -0.008359 -0.036102 -0.025721 -0.014148
  0C   1py       -0.000646 -0.000579 -0.002452  0.028660 -0.070029 -0.057878
  0C   3s        -0.004828  0.000460 -0.017469 -0.111919 -0.034112  0.161195
  0C   2pz        0.006551 -0.001127 -0.000782  0.004085  0.005090  0.008348
  0C   2px       -0.004253 -0.002357  0.001936 -0.005304 -0.005322 -0.008718
  0C   2py        0.000681 -0.000194  0.002283  0.003103 -0.013926  0.000418
  0C   1dz2      -0.000014  0.000075  0.000194  0.002271 -0.001923 -0.004425
  0C   1dxz       0.000087 -0.000069  0.001646  0.007823  0.004096 -0.004402
  0C   1dyz       0.000170  0.000101  0.000612  0.000751  0.002288 -0.000123
  0C   1dx2y2    -0.000001  0.000171  0.000563  0.003609 -0.003180 -0.007581
  0C   1dxy       0.000047 -0.000166 -0.000244  0.000249 -0.002409 -0.001268
  1C   1s         0.000902  0.000366  0.033007  0.099572  0.094900  0.004972
  1C   2s        -0.002544 -0.000900 -0.062331 -0.189335 -0.186076 -0.009890
  1C   1pz        0.000329 -0.000439  0.006384 -0.006483  0.005614  0.079837
  1C   1px        0.000671  0.000459  0.002948  0.001698 -0.000915 -0.083235
  1C   1py       -0.001049 -0.000896 -0.010343  0.049322 -0.057614  0.015027
  1C   3s         0.006037 -0.000331 -0.032593 -0.109904 -0.117027 -0.005536
  1C   2pz        0.001718  0.004643 -0.004991 -0.000382  0.003254  0.012232
  1C   2px       -0.003083 -0.005483  0.008600  0.001127 -0.001402 -0.013105
  1C   2py       -0.004486  0.009398  0.000206  0.011769 -0.019870  0.001831
  1C   1dz2       0.000053  0.000073  0.001076  0.002237  0.003219  0.001328
  1C   1dxz      -0.000079  0.000036  0.001319  0.007765  0.004357 -0.000876
  1C   1dyz       0.000058 -0.000314  0.001416  0.000267  0.001159 -0.006698
  1C   1dx2y2     0.000101 -0.000073  0.002210  0.003276  0.005131  0.001582
  1C   1dxy       0.000074  0.000168  0.000414  0.000446 -0.000044  0.006966
  2C   1s         0.000070 -0.000066  0.010193  0.086533 -0.063381 -0.114322
  2C   2s        -0.000342 -0.000116 -0.019461 -0.163955  0.122120  0.223260
  2C   1pz        0.000103 -0.000000  0.004630  0.036596 -0.027501  0.000418
  2C   1px       -0.000045 -0.000177 -0.004160 -0.035888  0.030788 -0.004251
  2C   1py       -0.000083  0.000073 -0.005323 -0.023975 -0.037544  0.056686
  2C   3s         0.002204  0.000707 -0.009661 -0.101880  0.086828  0.168009
  2C   2pz       -0.003021 -0.000281  0.000272  0.003536 -0.002388  0.008027
  2C   2px        0.002305  0.001863 -0.000907 -0.003068  0.003510 -0.008627
  2C   2py       -0.000224 -0.000292  0.001559 -0.002417 -0.007172  0.006362
[...]
Angular grid pruning method      GridPruning ... 3 (G Style)
Weight generation scheme         WeightScheme... Becke
Basis function cutoff            BFCut       ...    1.0000e-11
Integration weight cutoff        WCut        ...    1.0000e-14
Grids for H and He will be reduced by one unit

# of grid points (after initial pruning)     ...  13316 (   0.0 sec)
# of grid points (after weights+screening)   ...  12136 (   0.0 sec)
nearest neighbour list constructed           ...    0.0 sec
Grid point re-assignment to atoms done       ...    0.0 sec
Grid point division into batches done        ...    0.0 sec
Reduced shell lists constructed in    0.1 sec

Total number of grid points                  ...    12136
Total number of batches                      ...      201
Average number of points per batch           ...       60
Average number of grid points per atom       ...      528
Average number of shells per batch           ...    64.26 (68.36%)
Average number of basis functions per batch  ...   131.38 (69.15%)
Average number of large shells per batch     ...    46.88 (72.96%)
Average number of large basis fcns per batch ...    96.22 (73.24%)
Maximum spatial batch extension              ...  24.76, 20.15, 19.00 au
Average spatial batch extension              ...   4.61,  4.09,  4.70 au


---------------
TD-DFT XC SETUP
---------------

DFT calculation                         ... on
Name of the grid file                   ... /Users/lailaal-madhagi/Desktop/Testing_XAS_Analysis_code/PhenylAlanine//Results_dir_PhenylAlanine_geom_element_O_2019-11-18_00-35-02//GTE1_PhenylAlanine_geom_2019-11-18_00-35-14//TDDFT_O-edge.grid_cis.tmp
Exchange functional (SCF)               ... B88
Exchange functional (TD-DFT)            ... B88
   X-Alpha parameter    XAlpha (SCF)    ...  0.666667
   X-Alpha parameter    XAlpha (TD-DFT) ...  0.666667
   Becke's b parameter  XBeta (SCF)     ...  0.004200
   Becke's b parameter  XBeta (TD-DFT)  ...  0.004200
Correlation functional (SCF)            ... LYP
Correlation functional (TD-DFT)         ... LYP
 LDA part of GGA corr.  LDAOpt (SCF)    ... VWN-5
 LDA part of GGA corr.  LDAOpt (TD-DFT) ... VWN-5
Hybrid DFT                              ... on
   Exchange mixing (SCF)                ...  0.200
   Exchange mixing (TD-DFT)             ...  0.200
   GGA exch. scaling(SCF)               ...  0.720
   GGA exch. scaling (TD-DFT)           ...  0.720
   GGA corr. scaling (SCF)              ...  0.810
   GGA corr. scaling (TD-DFT)           ...  0.810

Building densities             ... done
Calculating rho(r) on the grid ... done
Building xc-kernel on the grid ... done
                    *** TD-DFT CALCULATION INITIALIZED ***


------------------------
DAVIDSON-DIAGONALIZATION
------------------------

Dimension of the eigenvalue problem            ...    292
Number of roots to be determined               ...     20
Maximum size of the expansion space            ...    292
Maximum number of iterations                   ...    100
Convergence tolerance for the residual         ...    2.500e-07
Convergence tolerance for the energies         ...    2.500e-07
Orthogonality tolerance                        ...    1.000e-14
Level Shift                                    ...    0.000e+00
Constructing the preconditioner                ... o.k.
Building the initial guess                     ... o.k.
Number of trial vectors determined             ...    292


                       ****Iteration    0****

   Memory handling for direct AO based CIS:
   Memory per vector needed      ...     1 MB
   Memory needed                 ...    66 MB
   Memory available              ...   512 MB
   Number of vectors per batch   ...   464
   Number of batches             ...     1
   Time for densities:     0.022
   Using LibInt in JK Direct
   Time for J+K (Direct):   406.371
   Time for XC-Integration:     5.711
   Time for Sigma-Completion:     0.423
   Size of expansion space: 60
   Lowest Energy          :    19.048167278012
   Maximum Energy change  :    19.283760764646 (vector 19)
   Maximum residual norm  :     0.001170221140

                       ****Iteration    1****
   Time for densities:     0.007
   Using LibInt in JK Direct
   Time for J+K (Direct):    97.282
   Time for XC-Integration:     2.093
   Time for Sigma-Completion:     0.179
   Size of expansion space: 80
   Lowest Energy          :    19.047052585817
   Maximum Energy change  :     0.001357448828 (vector 7)
   Maximum residual norm  :     0.000000747723

                       ****Iteration    2****
   Time for densities:     0.007
   Using LibInt in JK Direct
   Time for J+K (Direct):    99.316
   Time for XC-Integration:     1.950
   Time for Sigma-Completion:     0.142
   Size of expansion space: 100
   Lowest Energy          :    19.047052188895
   Maximum Energy change  :     0.000000674390 (vector 19)
   Maximum residual norm  :     0.000000000717

      *** CONVERGENCE OF RESIDUAL NORM REACHED ***

Storing the converged CI vectors               ... /Users/lailaal-madhagi/Desktop/Testing_XAS_Analysis_code/PhenylAlanine//Results_dir_PhenylAlanine_geom_element_O_2019-11-18_00-35-02//GTE1_PhenylAlanine_geom_2019-11-18_00-35-14//TDDFT_O-edge.cis1

                 *** DAVIDSON DONE ***

Total time for solving the CIS problem:   613.989sec

------------------------------------
TD-DFT/TDA EXCITED STATES (SINGLETS)
------------------------------------

the weight of the individual excitations are printed if larger than 1.0e-02

STATE  1:  E=  19.047052 au    518.297 eV  4180344.8 cm**-1
     1a ->  44a  :     0.290284 (c=  0.53878004)
     1a ->  46a  :     0.697247 (c=  0.83501303)

STATE  2:  E=  19.107249 au    519.935 eV  4193556.4 cm**-1
     1a ->  44a  :     0.629662 (c=  0.79351271)
     1a ->  45a  :     0.120280 (c= -0.34681451)
     1a ->  46a  :     0.248087 (c= -0.49808295)

STATE  3:  E=  19.109502 au    519.996 eV  4194050.9 cm**-1
     1a ->  44a  :     0.077225 (c= -0.27789346)
     1a ->  45a  :     0.877756 (c= -0.93688626)
     1a ->  46a  :     0.043932 (c=  0.20960013)

STATE  4:  E=  19.126476 au    520.458 eV  4197776.2 cm**-1
     0a ->  44a  :     0.410975 (c= -0.64107317)
     0a ->  46a  :     0.579170 (c= -0.76103194)

STATE  5:  E=  19.156412 au    521.272 eV  4204346.4 cm**-1
     1a ->  47a  :     0.919542 (c=  0.95892764)
     1a ->  48a  :     0.074058 (c=  0.27213642)

STATE  6:  E=  19.162770 au    521.445 eV  4205741.8 cm**-1
     0a ->  44a  :     0.332034 (c= -0.57622361)
     0a ->  45a  :     0.483391 (c=  0.69526352)
     0a ->  46a  :     0.180634 (c=  0.42501030)

STATE  7:  E=  19.164006 au    521.479 eV  4206013.2 cm**-1
     0a ->  44a  :     0.255069 (c=  0.50504404)
     0a ->  45a  :     0.506774 (c=  0.71188095)
     0a ->  46a  :     0.234849 (c= -0.48461262)

STATE  8:  E=  19.186007 au    522.078 eV  4210841.8 cm**-1
     0a ->  47a  :     0.708019 (c=  0.84143870)
     0a ->  48a  :     0.250006 (c=  0.50000618)
     0a ->  49a  :     0.010029 (c= -0.10014444)
     0a ->  51a  :     0.015587 (c=  0.12484831)

STATE  9:  E=  19.190960 au    522.213 eV  4211928.8 cm**-1
     1a ->  47a  :     0.071475 (c= -0.26734824)
     1a ->  48a  :     0.870232 (c=  0.93286236)
     1a ->  49a  :     0.038578 (c= -0.19641312)

STATE 10:  E=  19.210249 au    522.737 eV  4216162.4 cm**-1
     1a ->  48a  :     0.032335 (c=  0.17982070)
     1a ->  49a  :     0.918246 (c=  0.95825159)
     1a ->  51a  :     0.017516 (c=  0.13234683)
     1a ->  52a  :     0.019201 (c= -0.13856845)

STATE 11:  E=  19.227465 au    523.206 eV  4219940.9 cm**-1
     1a ->  48a  :     0.010395 (c=  0.10195752)
     1a ->  50a  :     0.943069 (c=  0.97111746)
     1a ->  51a  :     0.010400 (c= -0.10198221)

STATE 12:  E=  19.236112 au    523.441 eV  4221838.5 cm**-1
     1a ->  49a  :     0.020096 (c= -0.14176116)
     1a ->  50a  :     0.015670 (c=  0.12517814)
     1a ->  51a  :     0.829138 (c=  0.91057016)
     1a ->  52a  :     0.080395 (c= -0.28354074)
     1a ->  53a  :     0.016902 (c=  0.13000828)

STATE 13:  E=  19.241246 au    523.581 eV  4222965.4 cm**-1
     0a ->  47a  :     0.284232 (c= -0.53313371)
     0a ->  48a  :     0.624389 (c=  0.79018307)
     0a ->  49a  :     0.047921 (c= -0.21890896)
     0a ->  51a  :     0.024843 (c=  0.15761554)

STATE 14:  E=  19.254313 au    523.936 eV  4225833.2 cm**-1
     1a ->  51a  :     0.095145 (c=  0.30845568)
     1a ->  52a  :     0.768241 (c=  0.87649374)
     1a ->  53a  :     0.027129 (c= -0.16471019)
     1a ->  54a  :     0.057099 (c= -0.23895389)
     1a ->  56a  :     0.023277 (c= -0.15256905)
     1a ->  58a  :     0.010599 (c=  0.10295078)

STATE 15:  E=  19.264793 au    524.222 eV  4228133.4 cm**-1
     0a ->  48a  :     0.053498 (c= -0.23129534)
     0a ->  49a  :     0.891785 (c= -0.94434373)
     0a ->  50a  :     0.034233 (c=  0.18502296)

STATE 16:  E=  19.264973 au    524.227 eV  4228172.9 cm**-1
     1a ->  52a  :     0.063288 (c=  0.25157087)
     1a ->  53a  :     0.789718 (c=  0.88866065)
     1a ->  54a  :     0.080592 (c=  0.28388746)
     1a ->  55a  :     0.031087 (c= -0.17631474)
     1a ->  57a  :     0.022587 (c=  0.15028904)

STATE 17:  E=  19.265790 au    524.249 eV  4228352.1 cm**-1
     1a ->  53a  :     0.146351 (c=  0.38255909)
     1a ->  54a  :     0.493416 (c= -0.70243607)
     1a ->  55a  :     0.278506 (c=  0.52773659)
     1a ->  56a  :     0.016188 (c=  0.12723217)
     1a ->  57a  :     0.017708 (c= -0.13307099)
     1a ->  60a  :     0.019404 (c=  0.13929825)

STATE 18:  E=  19.274800 au    524.494 eV  4230329.6 cm**-1
     1a ->  50a  :     0.014696 (c= -0.12122521)
     1a ->  51a  :     0.014155 (c=  0.11897428)
     1a ->  54a  :     0.229715 (c= -0.47928543)
     1a ->  55a  :     0.579823 (c= -0.76146086)
     1a ->  56a  :     0.108922 (c=  0.33003268)
     1a ->  57a  :     0.026637 (c= -0.16320783)

STATE 19:  E=  19.281185 au    524.668 eV  4231730.9 cm**-1
     1a ->  51a  :     0.014422 (c= -0.12009030)
     1a ->  52a  :     0.032486 (c= -0.18023764)
     1a ->  54a  :     0.053425 (c= -0.23113790)
     1a ->  55a  :     0.054979 (c= -0.23447647)
     1a ->  56a  :     0.793291 (c= -0.89066879)
     1a ->  57a  :     0.011280 (c= -0.10620931)
     1a ->  58a  :     0.025886 (c=  0.16089012)

STATE 20:  E=  19.283603 au    524.734 eV  4232261.6 cm**-1
     0a ->  49a  :     0.031266 (c= -0.17682132)
     0a ->  50a  :     0.901647 (c= -0.94955100)
     0a ->  51a  :     0.038075 (c= -0.19512913)
     0a ->  53a  :     0.012548 (c= -0.11201829)


-----------------------------
TD-DFT/TDA-EXCITATION SPECTRA
-----------------------------

Center of mass = ( -4.5851,  3.8960,  0.0114)
Calculating the Dipole integrals                  ... done
Transforming integrals                            ... done
Calculating the Linear Momentum integrals         ... done
Transforming integrals                            ... done
Calculating angular momentum integrals            ... done
Transforming integrals                            ... done

-----------------------------------------------------------------------------
         ABSORPTION SPECTRUM VIA TRANSITION ELECTRIC DIPOLE MOMENTS
-----------------------------------------------------------------------------
State   Energy    Wavelength  fosc         T2        TX        TY        TZ  
        (cm-1)      (nm)                 (au**2)    (au)      (au)      (au) 
-----------------------------------------------------------------------------
   1 4180344.8      2.4   0.031267286   0.00246  -0.01970   0.02947  -0.03473
   2 4193556.4      2.4   0.000627673   0.00005   0.00366  -0.00375   0.00467
   3 4194050.9      2.4   0.000152250   0.00001  -0.00264   0.00120  -0.00188
   4 4197776.2      2.4   0.013300932   0.00104  -0.01164   0.02020  -0.02235
   5 4204346.4      2.4   0.002843530   0.00022  -0.01380  -0.00337   0.00456
   6 4205741.8      2.4   0.000476608   0.00004   0.00150  -0.00180   0.00564
   7 4206013.2      2.4   0.000213820   0.00002  -0.00324   0.00196  -0.00155
   8 4210841.8      2.4   0.019825142   0.00155   0.03041  -0.00806  -0.02367
   9 4211928.8      2.4   0.000154272   0.00001  -0.00225  -0.00226   0.00138
  10 4216162.4      2.4   0.000660095   0.00005  -0.00397   0.00581   0.00142
  11 4219940.9      2.4   0.000938514   0.00007   0.00700  -0.00033  -0.00491
  12 4221838.5      2.4   0.001476231   0.00012  -0.00571   0.00907  -0.00046
  13 4222965.4      2.4   0.003975970   0.00031   0.01540   0.00098  -0.00848
  14 4225833.2      2.4   0.000596617   0.00005   0.00461  -0.00502   0.00020
  15 4228133.4      2.4   0.000403705   0.00003   0.00009  -0.00176  -0.00532
  16 4228172.9      2.4   0.000270691   0.00002  -0.00355  -0.00243  -0.00161
  17 4228352.2      2.4   0.002182824   0.00017   0.00532   0.00821   0.00862
  18 4230329.6      2.4   0.000686552   0.00005   0.00210  -0.00188  -0.00674
  19 4231730.9      2.4   0.000067691   0.00001   0.00005   0.00146  -0.00177
  20 4232261.6      2.4   0.001442878   0.00011   0.00229   0.01010   0.00223

-----------------------------------------------------------------------------
         ABSORPTION SPECTRUM VIA TRANSITION VELOCITY DIPOLE MOMENTS
-----------------------------------------------------------------------------
State   Energy    Wavelength   fosc        P2         PX        PY        PZ  
        (cm-1)      (nm)                 (au**2)     (au)      (au)      (au) 
-----------------------------------------------------------------------------
   1 4180344.8      2.4   0.030290954   0.86543   0.36627  -0.55453   0.65098
   2 4193556.4      2.4   0.000584099   0.01674  -0.06738   0.06935  -0.08598
   3 4194050.9      2.4   0.000145570   0.00417   0.04984  -0.02311   0.03398
   4 4197776.2      2.4   0.013032335   0.37389   0.22264  -0.38012   0.42407
   5 4204346.4      2.4   0.002784561   0.08001   0.26263   0.05911  -0.08686
   6 4205741.8      2.4   0.000474012   0.01363  -0.02740   0.03401  -0.10825
   7 4206013.2      2.4   0.000217739   0.00626   0.06173  -0.03992   0.02923
   8 4210841.8      2.4   0.020104909   0.57860  -0.58621   0.15944   0.45776
   9 4211928.8      2.4   0.000165199   0.00476   0.04463   0.04201  -0.03161
  10 4216162.4      2.4   0.000617580   0.01780   0.07177  -0.10860  -0.02916
  11 4219940.9      2.4   0.000879586   0.02537  -0.12738   0.00598   0.09543
  12 4221838.5      2.4   0.001431211   0.04130   0.10934  -0.17118   0.00607
  13 4222965.4      2.4   0.003973120   0.11467  -0.29682  -0.01687   0.16213
  14 4225833.2      2.4   0.000587113   0.01696  -0.08795   0.09596  -0.00364
  15 4228133.4      2.4   0.000385506   0.01114  -0.00433   0.03415   0.09978
  16 4228172.9      2.4   0.000265808   0.00768   0.06772   0.04401   0.03403
  17 4228352.2      2.4   0.002050845   0.05927  -0.10541  -0.15072  -0.15949
  18 4230329.6      2.4   0.000650934   0.01882  -0.03913   0.03906   0.12555
  19 4231730.9      2.4   0.000050528   0.00146  -0.00105  -0.02348   0.03015
  20 4232261.6      2.4   0.001430346   0.04137  -0.04427  -0.19331  -0.04522

-------------------------------------------------------------------
                             CD SPECTRUM
-------------------------------------------------------------------
State  Energy     Wavelength     R         MX        MY        MZ   
       (cm-1)       (nm)     (1e40*cgs)   (au)      (au)      (au)  
-------------------------------------------------------------------
   1 4180344.8      2.4      0.21868  -2.15692  -1.18604   0.20340
   2 4193556.4      2.4      0.00214   0.28218   0.17152  -0.08267
   3 4194050.9      2.4     -0.00278  -0.10828  -0.08586   0.10021
   4 4197776.2      2.4     -0.08131  -0.31582  -0.86874  -0.61295
   5 4204346.4      2.4      0.01049   0.27580  -0.08382   0.77684
   6 4205741.8      2.4      0.00048   0.09510   0.22852   0.04764
   7 4206013.2      2.4      0.00342  -0.01858  -0.04910  -0.02784
   8 4210841.8      2.4     -0.12406  -0.47258  -1.12905  -0.21175
   9 4211928.8      2.4     -0.01761   0.11693   0.00794   0.17740
  10 4216162.4      2.4     -0.00263  -0.00744  -0.01579   0.04004
  11 4219940.9      2.4     -0.05253  -0.24827  -0.03259  -0.32937
  12 4221838.5      2.4     -0.00788  -0.14962  -0.09343   0.05272
  13 4222965.4      2.4     -0.01002  -0.15052  -0.42061  -0.31919
  14 4225833.2      2.4     -0.00052   0.08441   0.07365  -0.10056
  15 4228133.4      2.4      0.00066  -0.10307  -0.21742   0.06976
  16 4228172.9      2.4      0.02534  -0.05553  -0.10013   0.24044
  17 4228352.2      2.4     -0.04458   0.30529   0.30266  -0.48781
  18 4230329.6      2.4     -0.01450  -0.30234  -0.14317  -0.04976
  19 4231730.9      2.4     -0.00062  -0.09843  -0.04102  -0.03566
  20 4232261.6      2.4      0.02690   0.08781   0.08761  -0.46182

Total run time:      614.519 sec

           *** ORCA-CIS/TD-DFT FINISHED WITHOUT ERROR ***

-----------------------
CIS/TD-DFT TOTAL ENERGY
-----------------------

    E(SCF)  =   -554.447173115 Eh
    DE(CIS) =     19.047052189 Eh (Root  1)
    ----------------------------- ---------
    E(tot)  =   -535.400120926 Eh


-------------------------   --------------------
FINAL SINGLE POINT ENERGY      -535.400120926464
-------------------------   --------------------


                            ***************************************
                            *     ORCA property calculations      *
                            ***************************************

                                    ---------------------
                                    Active property flags
                                    ---------------------
   (+) Dipole Moment


------------------------------------------------------------------------------
                       ORCA ELECTRIC PROPERTIES CALCULATION
------------------------------------------------------------------------------

Dipole Moment Calculation                       ... on
Quadrupole Moment Calculation                   ... off
Polarizability Calculation                      ... off
GBWName                                         ... /Users/lailaal-madhagi/Desktop/Testing_XAS_Analysis_code/PhenylAlanine//Results_dir_PhenylAlanine_geom_element_O_2019-11-18_00-35-02//GTE1_PhenylAlanine_geom_2019-11-18_00-35-14//TDDFT_O-edge.gbw
Electron density file                           ... /Users/lailaal-madhagi/Desktop/Testing_XAS_Analysis_code/PhenylAlanine//Results_dir_PhenylAlanine_geom_element_O_2019-11-18_00-35-02//GTE1_PhenylAlanine_geom_2019-11-18_00-35-14//TDDFT_O-edge.scfp.tmp
The origin for moment calculation is the CENTER OF MASS  = (-4.585110,  3.896013  0.011367)

-------------
DIPOLE MOMENT
-------------
                                X             Y             Z
Electronic contribution:     -3.77646       2.37078       1.88110
Nuclear contribution   :      4.12300      -3.20361      -1.97509
                        -----------------------------------------
Total Dipole Moment    :      0.34655      -0.83283      -0.09399
                        -----------------------------------------
Magnitude (a.u.)       :      0.90694
Magnitude (Debye)      :      2.30526



--------------------
Rotational spectrum 
--------------------
 
Rotational constants in cm-1:     0.059280     0.019964     0.017865 
Rotational constants in MHz :  1777.173973   598.493986   535.593405 

 Dipole components along the rotational axes: 
x,y,z [a.u.] :     0.882406    -0.077783     0.194551 
x,y,z [Debye]:     2.242899    -0.197708     0.494508 

 

Timings for individual modules:

Sum of individual times         ...      711.897 sec (=  11.865 min)
GTO integral calculation        ...        0.966 sec (=   0.016 min)   0.1 %
SCF iterations                  ...       95.502 sec (=   1.592 min)  13.4 %
CIS module                      ...      615.429 sec (=  10.257 min)  86.4 %
                             ****ORCA TERMINATED NORMALLY****
TOTAL RUN TIME: 0 days 0 hours 11 minutes 52 seconds 117 msec
