
                                 *****************
                                 * O   R   C   A *
                                 *****************

           --- An Ab Initio, DFT and Semiempirical electronic structure package ---

                  #######################################################
                  #                        -***-                        #
                  #          Department of theory and spectroscopy      #
                  #               Directorship: Frank Neese             #
                  #        Max Planck Institute fuer Kohlenforschung    #
                  #                Kaiser Wilhelm Platz 1               #
                  #                 D-45470 Muelheim/Ruhr               #
                  #                      Germany                        #
                  #                                                     #
                  #                  All rights reserved                #
                  #                        -***-                        #
                  #######################################################


                         Program Version 4.1.0  - RELEASE  -


 With contributions from (in alphabetic order):
   Daniel Aravena         : Magnetic Properties
   Michael Atanasov       : Ab Initio Ligand Field Theory
   Alexander A. Auer      : GIAO ZORA
   Ute Becker             : Parallelization
   Giovanni Bistoni       : ED, Open-shell LED
   Martin Brehm           : Molecular dynamics
   Dmytro Bykov           : SCF Hessian
   Vijay G. Chilkuri      : MRCI spin determinant printing
   Dipayan Datta          : RHF DLPNO-CCSD density
   Achintya Kumar Dutta   : EOM-CC, STEOM-CC
   Dmitry Ganyushin       : Spin-Orbit,Spin-Spin,Magnetic field MRCI
   Miquel Garcia          : C-PCM Hessian
   Yang Guo               : DLPNO-NEVPT2, CIM, IAO-localization
   Andreas Hansen         : Spin unrestricted coupled pair/coupled cluster methods
   Benjamin Helmich-Paris : CASSCF linear response (MC-RPA)
   Lee Huntington         : MR-EOM, pCC
   Robert Izsak           : Overlap fitted RIJCOSX, COSX-SCS-MP3, EOM
   Christian Kollmar      : KDIIS, OOCD, Brueckner-CCSD(T), CCSD density
   Simone Kossmann        : Meta GGA functionals, TD-DFT gradient, OOMP2, MP2 Hessian
   Martin Krupicka        : AUTO-CI
   Lucas Lang             : DCDCAS
   Dagmar Lenk            : GEPOL surface, SMD
   Dimitrios Liakos       : Extrapolation schemes; parallel MDCI
   Dimitrios Manganas     : ROCIS; embedding schemes
   Dimitrios Pantazis     : SARC Basis sets
   Taras Petrenko         : DFT Hessian,TD-DFT gradient, ASA, ECA, R-Raman, ABS, FL, XAS/XES, NRVS
   Peter Pinski           : DLPNO-MP2, DLPNO-MP2 Gradient
   Christoph Reimann      : Effective Core Potentials
   Marius Retegan         : Local ZFS, SOC
   Christoph Riplinger    : Optimizer, TS searches, QM/MM, DLPNO-CCSD(T), (RO)-DLPNO pert. Triples
   Tobias Risthaus        : Range-separated hybrids, TD-DFT gradient, RPA, STAB
   Michael Roemelt        : Restricted open shell CIS
   Masaaki Saitow         : Open-shell DLPNO
   Barbara Sandhoefer     : DKH picture change effects
   Avijit Sen             : IP-ROCIS
   Kantharuban Sivalingam : CASSCF convergence, NEVPT2, FIC-MRCI
   Bernardo de Souza      : ESD, SOC TD-DFT
   Georgi Stoychev        : AutoAux, RI-MP2 NMR
   Willem Van den Heuvel  : Paramagnetic NMR
   Boris Wezisla          : Elementary symmetry handling
   Frank Wennmohs         : Technical directorship


 We gratefully acknowledge several colleagues who have allowed us to
 interface, adapt or use parts of their codes:
   Stefan Grimme, W. Hujo, H. Kruse,             : VdW corrections, initial TS optimization,
                  C. Bannwarth                     DFT functionals, gCP, sTDA/sTD-DF
   Ed Valeev                                     : LibInt (2-el integral package), F12 methods
   Garnet Chan, S. Sharma, J. Yang, R. Olivares  : DMRG
   Ulf Ekstrom                                   : XCFun DFT Library
   Mihaly Kallay                                 : mrcc  (arbitrary order and MRCC methods)
   Andreas Klamt, Michael Diedenhofen            : otool_cosmo (COSMO solvation model)
   Jiri Pittner, Ondrej Demel                    : Mk-CCSD
   Frank Weinhold                                : gennbo (NPA and NBO analysis)
   Christopher J. Cramer and Donald G. Truhlar   : smd solvation model
   Lars Goerigk                                  : TD-DFT with DH, B97 family of functionals
   V. Asgeirsson, H. Jonsson                     : NEB implementation
   FAccTs GmbH                                   : IRC, NEB, NEB-TS, Multilevel


 Your calculation uses the libint2 library for the computation of 2-el integrals
 For citations please refer to: http://libint.valeyev.net

 This ORCA versions uses:
   CBLAS   interface :  Fast vector & matrix operations
   LAPACKE interface :  Fast linear algebra routines
   SCALAPACK package :  Parallel linear algebra routines




***************************************
The coordinates will be read from file: /Users/lailaal-madhagi/Desktop/Testing_XAS_Analysis_code/ParaNitroAniline/ParaNitroAniline_geom.xyz
***************************************


----- Orbital basis set information -----
Your calculation utilizes the basis: 6-31G*
   H-He, Li-Ne : W. J. Hehre, R. Ditchfield and J.A. Pople, J. Chem. Phys. 56, 2257 (1972).
                 Note: He and Ne are unpublished basis sets taken from the Gaussian program.
                 Note: Li and B from J. D. Dill and J. A. Pople, J. Chem. Phys. 62, 2921 (1975).
   Na - Ar     : M. M. Francl, W. J. Pietro, W. J. Hehre, J. S. Binkley, M. S. Gordon, 
                 D. J. DeFrees and J. A. Pople, J. Chem. Phys. 77, 3654 (1982).
   K - Zn      : V. A. Rassolov, J. A. Pople, M. A. Ratner, and T. L. Windus, J. Chem. Phys. 109, 1223 (1998).

================================================================================
                                        WARNINGS
                       Please study these warnings very carefully!
================================================================================


WARNING: Geometry Optimization
  ===> : Switching off AutoStart
         For restart on a previous wavefunction, please use MOREAD

INFO   : the flag for use of LIBINT has been found!

================================================================================
                                       INPUT FILE
================================================================================
NAME = /Users/lailaal-madhagi/Desktop/Testing_XAS_Analysis_code/ParaNitroAniline//Results_dir_ParaNitroAniline_geom_element_N_2019-11-16_12-39-08//GTE1_ParaNitroAniline_geom_2019-11-16_12-39-32//opt.inp
|  1> ! B3LYP 6-31G* TIGHTSCF Grid3 FinalGrid5 Opt 
|  2> !NormalPrint 
|  3> %output 
|  4> Print[P_Basis] 2 
|  5> Print[P_MOS] 1 
|  6> end 
|  7> *xyzfile 0 1 /Users/lailaal-madhagi/Desktop/Testing_XAS_Analysis_code/ParaNitroAniline/ParaNitroAniline_geom.xyz                           ****END OF INPUT****
================================================================================

                       *****************************
                       * Geometry Optimization Run *
                       *****************************

Geometry optimization settings:
Update method            Update   .... BFGS
Choice of coordinates    CoordSys .... Z-matrix Internals
Initial Hessian          InHess   .... Almoef's Model

Convergence Tolerances:
Energy Change            TolE     ....  5.0000e-06 Eh
Max. Gradient            TolMAXG  ....  3.0000e-04 Eh/bohr
RMS Gradient             TolRMSG  ....  1.0000e-04 Eh/bohr
Max. Displacement        TolMAXD  ....  4.0000e-03 bohr
RMS Displacement         TolRMSD  ....  2.0000e-03 bohr

------------------------------------------------------------------------------
                        ORCA OPTIMIZATION COORDINATE SETUP
------------------------------------------------------------------------------

The optimization will be done in new redundant internal coordinates
Making redundant internal coordinates   ...  (new redundants) done
Evaluating the initial hessian          ...  (Almloef) done
Evaluating the coordinates              ...  done
Calculating the B-matrix                .... done
Calculating the G-matrix                .... done
Diagonalizing the G-matrix              .... done
The first mode is                       ....   30
The number of degrees of freedom        ....   42

    -----------------------------------------------------------------
                    Redundant Internal Coordinates


    -----------------------------------------------------------------
         Definition                    Initial Value    Approx d2E/dq
    -----------------------------------------------------------------
      1. B(C   1,C   0)                  1.4008         0.600386   
      2. B(C   2,C   0)                  1.3980         0.606692   
      3. B(C   3,C   2)                  1.4091         0.582406   
      4. B(C   4,C   3)                  1.4091         0.582427   
      5. B(C   5,C   4)                  1.3980         0.606682   
      6. B(C   5,C   1)                  1.4009         0.600378   
      7. B(N   6,C   1)                  1.4166         0.507455   
      8. B(H   7,C   0)                  1.0829         0.369603   
      9. B(H   8,C   2)                  1.0826         0.370064   
     10. B(H   9,C   4)                  1.0826         0.370068   
     11. B(H  10,C   5)                  1.0829         0.369609   
     12. B(H  11,N   6)                  1.0306         0.401213   
     13. B(H  12,N   6)                  1.0306         0.401211   
     14. B(N  13,C   3)                  1.4294         0.484183   
     15. B(O  14,N  13)                  1.1944         1.028276   
     16. B(O  15,N  13)                  1.1944         1.028296   
     17. A(C   1,C   0,H   7)          120.2735         0.352545   
     18. A(C   1,C   0,C   2)          120.3414         0.429886   
     19. A(C   2,C   0,H   7)          119.3851         0.353169   
     20. A(C   0,C   1,N   6)          120.2677         0.413686   
     21. A(C   0,C   1,C   5)          119.4642         0.429080   
     22. A(C   5,C   1,N   6)          120.2681         0.413685   
     23. A(C   0,C   2,C   3)          120.6231         0.427548   
     24. A(C   0,C   2,H   8)          118.6717         0.353243   
     25. A(C   3,C   2,H   8)          120.7052         0.350811   
     26. A(C   2,C   3,C   4)          118.6068         0.424435   
     27. A(C   2,C   3,N  13)          120.6966         0.408051   
     28. A(C   4,C   3,N  13)          120.6966         0.408054   
     29. A(C   5,C   4,H   9)          118.6714         0.353243   
     30. A(C   3,C   4,H   9)          120.7055         0.350814   
     31. A(C   3,C   4,C   5)          120.6230         0.427550   
     32. A(C   1,C   5,H  10)          120.2732         0.352545   
     33. A(C   1,C   5,C   4)          120.3414         0.429884   
     34. A(C   4,C   5,H  10)          119.3854         0.353169   
     35. A(H  11,N   6,H  12)          118.5766         0.296051   
     36. A(C   1,N   6,H  12)          120.7115         0.342344   
     37. A(C   1,N   6,H  11)          120.7119         0.342345   
     38. A(O  14,N  13,O  15)          119.0424         0.508631   
     39. A(C   3,N  13,O  15)          120.4789         0.445856   
     40. A(C   3,N  13,O  14)          120.4787         0.445854   
     41. D(C   5,C   1,C   0,H   7)    179.9999         0.024851   
     42. D(N   6,C   1,C   0,C   2)    179.9997         0.024851   
     43. D(C   5,C   1,C   0,C   2)     -0.0004         0.024851   
     44. D(N   6,C   1,C   0,H   7)      0.0000         0.024851   
     45. D(C   3,C   2,C   0,C   1)      0.0002         0.025405   
     46. D(H   8,C   2,C   0,H   7)     -0.0000         0.025405   
     47. D(C   3,C   2,C   0,H   7)    179.9999         0.025405   
     48. D(H   8,C   2,C   0,C   1)   -179.9997         0.025405   
     49. D(N  13,C   3,C   2,H   8)      0.0002         0.023313   
     50. D(N  13,C   3,C   2,C   0)   -179.9998         0.023313   
     51. D(C   4,C   3,C   2,H   8)   -179.9997         0.023313   
     52. D(C   4,C   3,C   2,C   0)      0.0003         0.023313   
     53. D(H   9,C   4,C   3,C   2)    179.9998         0.023315   
     54. D(C   5,C   4,C   3,N  13)    179.9995         0.023315   
     55. D(C   5,C   4,C   3,C   2)     -0.0006         0.023315   
     56. D(H   9,C   4,C   3,N  13)     -0.0001         0.023315   
     57. D(H  10,C   5,C   4,H   9)     -0.0007         0.025404   
     58. D(C   1,C   5,C   4,H   9)   -180.0000         0.025404   
     59. D(C   1,C   5,C   4,C   3)      0.0004         0.025404   
     60. D(H  10,C   5,C   1,N   6)      0.0006         0.024851   
     61. D(H  10,C   5,C   1,C   0)   -179.9992         0.024851   
     62. D(H  10,C   5,C   4,C   3)    179.9997         0.025404   
     63. D(C   4,C   5,C   1,N   6)    179.9999         0.024851   
     64. D(C   4,C   5,C   1,C   0)      0.0001         0.024851   
     65. D(H  12,N   6,C   1,C   5)     -0.0003         0.020378   
     66. D(H  12,N   6,C   1,C   0)    179.9996         0.020378   
     67. D(H  11,N   6,C   1,C   5)   -179.9997         0.020378   
     68. D(H  11,N   6,C   1,C   0)      0.0001         0.020378   
     69. D(O  15,N  13,C   3,C   2)   -180.0000         0.018501   
     70. D(O  14,N  13,C   3,C   4)    179.9996         0.018501   
     71. D(O  14,N  13,C   3,C   2)     -0.0003         0.018501   
     72. D(O  15,N  13,C   3,C   4)     -0.0001         0.018501   
    -----------------------------------------------------------------

Number of atoms                         .... 16
Number of degrees of freedom            .... 72

         *************************************************************
         *                GEOMETRY OPTIMIZATION CYCLE   1            *
         *************************************************************
---------------------------------
CARTESIAN COORDINATES (ANGSTROEM)
---------------------------------
  C     -3.031890    1.053230   -0.052140
  C     -1.934740    1.922240    0.006680
  C     -2.836180   -0.330850   -0.073030
  C     -1.535890   -0.872570   -0.035360
  C     -0.438840    0.009810    0.023740
  C     -0.638100    1.393390    0.044480
  N     -2.134860    3.324500    0.027770
  H     -4.039900    1.447850   -0.081860
  H     -3.703270   -0.977400   -0.118700
  H      0.574650   -0.369500    0.053980
  H      0.219440    2.053110    0.090070
  H     -3.085730    3.720940    0.000230
  H     -1.332690    3.970050    0.070990
  N     -1.333970   -2.287480   -0.056650
  O     -2.266680   -3.031850   -0.106770
  O     -0.230110   -2.742450   -0.024570

----------------------------
CARTESIAN COORDINATES (A.U.)
----------------------------
  NO LB      ZA    FRAG     MASS         X           Y           Z
   0 C     6.0000    0    12.011   -5.729442    1.990316   -0.098530
   1 C     6.0000    0    12.011   -3.656129    3.632507    0.012623
   2 C     6.0000    0    12.011   -5.359603   -0.625216   -0.138007
   3 C     6.0000    0    12.011   -2.902411   -1.648918   -0.066821
   4 C     6.0000    0    12.011   -0.829287    0.018538    0.044862
   5 C     6.0000    0    12.011   -1.205834    2.633125    0.084055
   6 N     7.0000    0    14.007   -4.034301    6.282395    0.052478
   7 H     1.0000    0     1.008   -7.634305    2.736040   -0.154693
   8 H     1.0000    0     1.008   -6.998166   -1.847018   -0.224310
   9 H     1.0000    0     1.008    1.085931   -0.698254    0.102007
  10 H     1.0000    0     1.008    0.414682    3.879816    0.170208
  11 H     1.0000    0     1.008   -5.831185    7.031558    0.000435
  12 H     1.0000    0     1.008   -2.518419    7.502307    0.134152
  13 N     7.0000    0    14.007   -2.520838   -4.322711   -0.107053
  14 O     8.0000    0    15.999   -4.283404   -5.729366   -0.201766
  15 O     8.0000    0    15.999   -0.434845   -5.182479   -0.046431

--------------------------------
INTERNAL COORDINATES (ANGSTROEM)
--------------------------------
 C      0   0   0     0.000000000000     0.00000000     0.00000000
 C      1   0   0     1.400848419709     0.00000000     0.00000000
 C      1   2   0     1.398004378605   120.34141366     0.00000000
 C      3   1   2     1.409125143981   120.62310958     0.00000000
 C      4   3   1     1.409115317105   118.60678712     0.00000000
 C      5   4   3     1.398008695109   120.62304617     0.00000000
 N      2   1   3     1.416624830398   120.26768643   179.99974324
 H      1   2   3     1.082909221911   120.27346657   180.00029921
 H      3   1   2     1.082569960557   118.67171280   180.00026262
 H      5   4   3     1.082567556229   120.70553643   179.99979926
 H      6   5   4     1.082905248902   119.38535907   179.99970986
 H      7   2   1     1.030571143638   120.71191124     0.00000000
 H      7   2   1     1.030572403958   120.71145660   179.99956213
 N      4   3   1     1.429403812294   120.69661055   180.00018701
 O     14   4   3     1.194381285604   120.47874874     0.00000000
 O     14   4   3     1.194375873375   120.47887126   180.00002477

---------------------------
INTERNAL COORDINATES (A.U.)
---------------------------
 C      0   0   0     0.000000000000     0.00000000     0.00000000
 C      1   0   0     2.647219868386     0.00000000     0.00000000
 C      1   2   0     2.641845409587   120.34141366     0.00000000
 C      3   1   2     2.662860610547   120.62310958     0.00000000
 C      4   3   1     2.662842040442   118.60678712     0.00000000
 C      5   4   3     2.641853566596   120.62304617     0.00000000
 N      2   1   3     2.677032963965   120.26768643   179.99974324
 H      1   2   3     2.046401857310   120.27346657   180.00029921
 H      3   1   2     2.045760746262   118.67171280   180.00026262
 H      5   4   3     2.045756202742   120.70553643   179.99979926
 H      6   5   4     2.046394349411   119.38535907   179.99970986
 H      7   2   1     1.947497222998   120.71191124     0.00000000
 H      7   2   1     1.947499604658   120.71145660   179.99956213
 N      4   3   1     2.701181740018   120.69661055   180.00018701
 O     14   4   3     2.257053529271   120.47874874     0.00000000
 O     14   4   3     2.257043301642   120.47887126   180.00002477

---------------------
BASIS SET INFORMATION
---------------------
There are 4 groups of distinct atoms

 Group   1 Type C   : 10s4p1d contracted to 3s2p1d pattern {631/31/1}
 Group   2 Type N   : 10s4p1d contracted to 3s2p1d pattern {631/31/1}
 Group   3 Type H   : 4s contracted to 2s pattern {31}
 Group   4 Type O   : 10s4p1d contracted to 3s2p1d pattern {631/31/1}

Atom   0C    basis set group =>   1
Atom   1C    basis set group =>   1
Atom   2C    basis set group =>   1
Atom   3C    basis set group =>   1
Atom   4C    basis set group =>   1
Atom   5C    basis set group =>   1
Atom   6N    basis set group =>   2
Atom   7H    basis set group =>   3
Atom   8H    basis set group =>   3
Atom   9H    basis set group =>   3
Atom  10H    basis set group =>   3
Atom  11H    basis set group =>   3
Atom  12H    basis set group =>   3
Atom  13N    basis set group =>   2
Atom  14O    basis set group =>   4
Atom  15O    basis set group =>   4

-------------------------
BASIS SET IN INPUT FORMAT
-------------------------

 # Basis set for element : H 
 NewGTO H 
 S 3 
   1      18.7311370000      0.0334945995
   2       2.8253937000      0.2347269467
   3       0.6401217000      0.8137573184
 S 1 
   1       0.1612778000      1.0000000000
  end;

 # Basis set for element : C 
 NewGTO C 
 S 6 
   1    3047.5249000000      0.0018347002
   2     457.3695100000      0.0140373012
   3     103.9486900000      0.0688426061
   4      29.2101550000      0.2321844206
   5       9.2866630000      0.4679413416
   6       3.1639270000      0.3623120322
 S 3 
   1       7.8682724000     -0.1193324086
   2       1.8812885000     -0.1608542116
   3       0.5442493000      1.1434564826
 P 3 
   1       7.8682724000      0.0689990956
   2       1.8812885000      0.3164239798
   3       0.5442493000      0.7443082524
 S 1 
   1       0.1687144000      1.0000000000
 P 1 
   1       0.1687144000      1.0000000000
 D 1 
   1       0.8000000000      1.0000000000
  end;

 # Basis set for element : N 
 NewGTO N 
 S 6 
   1    4173.5110000000      0.0018347994
   2     627.4579000000      0.0139949958
   3     142.9021000000      0.0685869792
   4      40.2343300000      0.2322409295
   5      12.8202100000      0.4690698576
   6       4.3904370000      0.3604548906
 S 3 
   1      11.6263580000     -0.1149610229
   2       2.7162800000     -0.1691180337
   3       0.7722180000      1.1458522281
 P 3 
   1      11.6263580000      0.0675800232
   2       2.7162800000      0.3239071114
   3       0.7722180000      0.7408952549
 S 1 
   1       0.2120313000      1.0000000000
 P 1 
   1       0.2120313000      1.0000000000
 D 1 
   1       0.8000000000      1.0000000000
  end;

 # Basis set for element : O 
 NewGTO O 
 S 6 
   1    5484.6717000000      0.0018310998
   2     825.2349500000      0.0139500985
   3     188.0469600000      0.0684450927
   4      52.9645000000      0.2327142753
   5      16.8975700000      0.4701929501
   6       5.7996353000      0.3585208619
 S 3 
   1      15.5396160000     -0.1107775038
   2       3.5999336000     -0.1480263051
   3       1.0137618000      1.1307670390
 P 3 
   1      15.5396160000      0.0708742995
   2       3.5999336000      0.3397527978
   3       1.0137618000      0.7271585953
 S 1 
   1       0.2700058000      1.0000000000
 P 1 
   1       0.2700058000      1.0000000000
 D 1 
   1       0.8000000000      1.0000000000
  end;

------------------------------------------------------------------------------
                           ORCA GTO INTEGRAL CALCULATION
------------------------------------------------------------------------------

                         BASIS SET STATISTICS AND STARTUP INFO

 # of primitive gaussian shells          ...  174
 # of primitive gaussian functions       ...  294
 # of contracted shells                  ...   72
 # of contracted basis functions         ...  152
 Highest angular momentum                ...    2
 Maximum contraction depth               ...    6
 Integral package used                   ... LIBINT
 Integral threshhold            Thresh   ...  2.500e-11
 Primitive cut-off              TCut     ...  2.500e-12


------------------------------ INTEGRAL EVALUATION ----------------------------


 * One electron integrals 
 Pre-screening matrix                    ... done
 Shell pair data                         ... done (   0.002 sec)

-------------------------------------------------------------------------------
                                 ORCA SCF
-------------------------------------------------------------------------------

------------
SCF SETTINGS
------------
Hamiltonian:
 Density Functional     Method          .... DFT(GTOs)
 Exchange Functional    Exchange        .... B88
   X-Alpha parameter    XAlpha          ....  0.666667
   Becke's b parameter  XBeta           ....  0.004200
 Correlation Functional Correlation     .... LYP
 LDA part of GGA corr.  LDAOpt          .... VWN-5
 Gradients option       PostSCFGGA      .... off
 Hybrid DFT is turned on
   Fraction HF Exchange ScalHFX         ....  0.200000
   Scaling of DF-GGA-X  ScalDFX         ....  0.720000
   Scaling of DF-GGA-C  ScalDFC         ....  0.810000
   Scaling of DF-LDA-C  ScalLDAC        ....  1.000000
   Perturbative correction              ....  0.000000
   Density functional embedding theory  .... OFF
   NL short-range parameter             ....  4.800000


General Settings:
 Integral files         IntName         .... /Users/lailaal-madhagi/Desktop/Testing_XAS_Analysis_code/ParaNitroAniline//Results_dir_ParaNitroAniline_geom_element_N_2019-11-16_12-39-08//GTE1_ParaNitroAniline_geom_2019-11-16_12-39-32//opt
 Hartree-Fock type      HFTyp           .... RHF
 Total Charge           Charge          ....    0
 Multiplicity           Mult            ....    1
 Number of Electrons    NEL             ....   72
 Basis Dimension        Dim             ....  152
 Nuclear Repulsion      ENuc            ....    495.2113952474 Eh

Convergence Acceleration:
 DIIS                   CNVDIIS         .... on
   Start iteration      DIISMaxIt       ....    12
   Startup error        DIISStart       ....  0.200000
   # of expansion vecs  DIISMaxEq       ....     5
   Bias factor          DIISBfac        ....   1.050
   Max. coefficient     DIISMaxC        ....  10.000
 Newton-Raphson         CNVNR           .... off
 SOSCF                  CNVSOSCF        .... on
   Start iteration      SOSCFMaxIt      ....   150
   Startup grad/error   SOSCFStart      ....  0.003300
 Level Shifting         CNVShift        .... on
   Level shift para.    LevelShift      ....    0.2500
   Turn off err/grad.   ShiftErr        ....    0.0010
 Zerner damping         CNVZerner       .... off
 Static damping         CNVDamp         .... on
   Fraction old density DampFac         ....    0.7000
   Max. Damping (<1)    DampMax         ....    0.9800
   Min. Damping (>=0)   DampMin         ....    0.0000
   Turn off err/grad.   DampErr         ....    0.1000
 Fernandez-Rico         CNVRico         .... off

SCF Procedure:
 Maximum # iterations   MaxIter         ....   125
 SCF integral mode      SCFMode         .... Direct
   Integral package                     .... LIBINT
 Reset frequency        DirectResetFreq ....    20
 Integral Threshold     Thresh          ....  2.500e-11 Eh
 Primitive CutOff       TCut            ....  2.500e-12 Eh

Convergence Tolerance:
 Convergence Check Mode ConvCheckMode   .... Total+1el-Energy
 Convergence forced     ConvForced      .... 0
 Energy Change          TolE            ....  1.000e-08 Eh
 1-El. energy change                    ....  1.000e-05 Eh
 Orbital Gradient       TolG            ....  1.000e-05
 Orbital Rotation angle TolX            ....  1.000e-05
 DIIS Error             TolErr          ....  5.000e-07


Diagonalization of the overlap matrix:
Smallest eigenvalue                        ... 4.366e-04
Time for diagonalization                   ...    0.005 sec
Threshold for overlap eigenvalues          ... 1.000e-08
Number of eigenvalues below threshold      ... 0
Time for construction of square roots      ...    0.002 sec
Total time needed                          ...    0.007 sec

-------------------
DFT GRID GENERATION
-------------------

General Integration Accuracy     IntAcc      ...  4.340
Radial Grid Type                 RadialGrid  ... Gauss-Chebyshev
Angular Grid (max. acc.)         AngularGrid ... Lebedev-194
Angular grid pruning method      GridPruning ... 3 (G Style)
Weight generation scheme         WeightScheme... Becke
Basis function cutoff            BFCut       ...    1.0000e-11
Integration weight cutoff        WCut        ...    1.0000e-14
Grids for H and He will be reduced by one unit

# of grid points (after initial pruning)     ...  42208 (   0.0 sec)
# of grid points (after weights+screening)   ...  39024 (   0.1 sec)
nearest neighbour list constructed           ...    0.0 sec
Grid point re-assignment to atoms done       ...    0.0 sec
Grid point division into batches done        ...    0.1 sec
Reduced shell lists constructed in    0.3 sec

Total number of grid points                  ...    39024
Total number of batches                      ...      618
Average number of points per batch           ...       63
Average number of grid points per atom       ...     2439
Average number of shells per batch           ...    45.75 (63.54%)
Average number of basis functions per batch  ...    98.83 (65.02%)
Average number of large shells per batch     ...    34.85 (76.17%)
Average number of large basis fcns per batch ...    75.75 (76.64%)
Maximum spatial batch extension              ...  17.29, 17.90, 22.17 au
Average spatial batch extension              ...   2.90,  2.84,  3.66 au

Time for grid setup =    0.385 sec

------------------------------
INITIAL GUESS: MODEL POTENTIAL
------------------------------
Loading Hartree-Fock densities                     ... done
Calculating cut-offs                               ... done
Setting up the integral package                    ... done
Initializing the effective Hamiltonian             ... done
Starting the Coulomb interaction                   ... done (   0.1 sec)
Reading the grid                                   ... done
Mapping shells                                     ... done
Starting the XC term evaluation                    ... done (   0.3 sec)
  promolecular density results
     # of electrons  =     71.995358609
     EX              =    -62.195972952
     EC              =     -2.492372553
     EX+EC           =    -64.688345505
Transforming the Hamiltonian                       ... done (   0.0 sec)
Diagonalizing the Hamiltonian                      ... done (   0.0 sec)
Back transforming the eigenvectors                 ... done (   0.0 sec)
Now organizing SCF variables                       ... done
                      ------------------
                      INITIAL GUESS DONE (   0.9 sec)
                      ------------------
--------------
SCF ITERATIONS
--------------
               ***  Starting incremental Fock matrix formation  ***

                         ----------------------------
                         !        ITERATION     0   !
                         ----------------------------
   Total Energy        :    -491.534044120780 Eh
   Energy Change       :    -491.534044120780 Eh
   MAX-DP              :       0.080502774006
   RMS-DP              :       0.002659229657
   Actual Damping      :       0.7000
   Actual Level Shift  :       0.2500 Eh
   Int. Num. El.       :    71.99868220 (UP=   35.99934110 DN=   35.99934110)
   Exchange            :   -50.70863993
   Correlation         :    -2.95907712


                         ----------------------------
                         !        ITERATION     1   !
                         ----------------------------
   Total Energy        :    -491.668705705746 Eh
   Energy Change       :      -0.134661584966 Eh
   MAX-DP              :       0.049045194217
   RMS-DP              :       0.001690952151
   Actual Damping      :       0.7000
   Actual Level Shift  :       0.2500 Eh
   Int. Num. El.       :    71.99852203 (UP=   35.99926101 DN=   35.99926101)
   Exchange            :   -50.39595120
   Correlation         :    -2.94829473

                               ***Turning on DIIS***

                         ----------------------------
                         !        ITERATION     2   !
                         ----------------------------
   Total Energy        :    -491.717697774261 Eh
   Energy Change       :      -0.048992068514 Eh
   MAX-DP              :       0.060997006227
   RMS-DP              :       0.002639969377
   Actual Damping      :       0.0000
   Actual Level Shift  :       0.2500 Eh
   Int. Num. El.       :    71.99841687 (UP=   35.99920844 DN=   35.99920844)
   Exchange            :   -50.19855866
   Correlation         :    -2.94095029
   DIIS-Error          :       0.036167514170


                         ----------------------------
                         !        ITERATION     3   !
                         ----------------------------
   Total Energy        :    -491.802991395507 Eh
   Energy Change       :      -0.085293621246 Eh
   MAX-DP              :       0.035522745943
   RMS-DP              :       0.001089077352
   Actual Damping      :       0.0000
   Actual Level Shift  :       0.2500 Eh
   Int. Num. El.       :    71.99826042 (UP=   35.99913021 DN=   35.99913021)
   Exchange            :   -49.90367428
   Correlation         :    -2.92911633
   DIIS-Error          :       0.052809247085
   DIIS coefficients:
      0.59303   0.40697


                         ----------------------------
                         !        ITERATION     4   !
                         ----------------------------
   Total Energy        :    -491.816864268408 Eh
   Energy Change       :      -0.013872872901 Eh
   MAX-DP              :       0.010182632132
   RMS-DP              :       0.000400961756
   Actual Damping      :       0.0000
   Actual Level Shift  :       0.2500 Eh
   Int. Num. El.       :    71.99832361 (UP=   35.99916181 DN=   35.99916181)
   Exchange            :   -50.01447187
   Correlation         :    -2.93346646
   DIIS-Error          :       0.014833204961
   DIIS coefficients:
      0.28123   0.13061   0.58816

                      *** Initiating the SOSCF procedure ***
                           *** Shutting down DIIS ***
                      *** Re-Reading the Fockian *** 
                      *** Removing any level shift *** 

                         ----------------------------
                         !        ITERATION     5   !
                         ----------------------------
   Total Energy        :    -491.818150785540 Eh
   Energy Change       :      -0.001286517133 Eh
   MAX-DP              :       0.002614053437
   RMS-DP              :       0.000137369327
   Orbital gradient    :       0.001074834090
   Orbital Rotation    :       0.001074834090
   Actual Damping      :       0.0000
   Int. Num. El.       :    71.99833954 (UP=   35.99916977 DN=   35.99916977)
   Exchange            :   -50.04340451
   Correlation         :    -2.93483416

               *** Restarting incremental Fock matrix formation ***

                         ----------------------------
                         !        ITERATION     6   !
                         ----------------------------
   Total Energy        :    -491.818195974980 Eh
   Energy Change       :      -0.000045189440 Eh
   MAX-DP              :       0.002071387012
   RMS-DP              :       0.000062732114
   Orbital gradient    :       0.000690514834
   Orbital Rotation    :       0.002663578341
   Actual Damping      :       0.0000
   Int. Num. El.       :    71.99834163 (UP=   35.99917081 DN=   35.99917081)
   Exchange            :   -50.05074476
   Correlation         :    -2.93505983


                         ----------------------------
                         !        ITERATION     7   !
                         ----------------------------
   Total Energy        :    -491.818193159251 Eh
   Energy Change       :       0.000002815729 Eh
   MAX-DP              :       0.001030289734
   RMS-DP              :       0.000034053862
   Orbital gradient    :       0.000826585756
   Orbital Rotation    :       0.000917074820
   Actual Damping      :       0.0000
   Int. Num. El.       :    71.99834269 (UP=   35.99917134 DN=   35.99917134)
   Exchange            :   -50.05000389
   Correlation         :    -2.93507039


                         ----------------------------
                         !        ITERATION     8   !
                         ----------------------------
   Total Energy        :    -491.818202763763 Eh
   Energy Change       :      -0.000009604512 Eh
   MAX-DP              :       0.000284133100
   RMS-DP              :       0.000009069937
   Orbital gradient    :       0.000089603102
   Orbital Rotation    :       0.000150251451
   Actual Damping      :       0.0000
   Int. Num. El.       :    71.99834220 (UP=   35.99917110 DN=   35.99917110)
   Exchange            :   -50.05045444
   Correlation         :    -2.93506035


                         ----------------------------
                         !        ITERATION     9   !
                         ----------------------------
   Total Energy        :    -491.818202710284 Eh
   Energy Change       :       0.000000053479 Eh
   MAX-DP              :       0.000158912474
   RMS-DP              :       0.000004428148
   Orbital gradient    :       0.000089816136
   Orbital Rotation    :       0.000130417342
   Actual Damping      :       0.0000
   Int. Num. El.       :    71.99834216 (UP=   35.99917108 DN=   35.99917108)
   Exchange            :   -50.05059051
   Correlation         :    -2.93506477


                         ----------------------------
                         !        ITERATION    10   !
                         ----------------------------
   Total Energy        :    -491.818202901747 Eh
   Energy Change       :      -0.000000191463 Eh
   MAX-DP              :       0.000045959664
   RMS-DP              :       0.000001982873
   Orbital gradient    :       0.000012548504
   Orbital Rotation    :       0.000061730366
   Actual Damping      :       0.0000
   Int. Num. El.       :    71.99834221 (UP=   35.99917111 DN=   35.99917111)
   Exchange            :   -50.05053868
   Correlation         :    -2.93506384


                         ----------------------------
                         !        ITERATION    11   !
                         ----------------------------
   Total Energy        :    -491.818202898999 Eh
   Energy Change       :       0.000000002748 Eh
   MAX-DP              :       0.000029660343
   RMS-DP              :       0.000000960244
   Orbital gradient    :       0.000021375704
   Orbital Rotation    :       0.000031828250
   Actual Damping      :       0.0000
   Int. Num. El.       :    71.99834218 (UP=   35.99917109 DN=   35.99917109)
   Exchange            :   -50.05046885
   Correlation         :    -2.93506130


                         ----------------------------
                         !        ITERATION    12   !
                         ----------------------------
   Total Energy        :    -491.818202905107 Eh
   Energy Change       :      -0.000000006108 Eh
   MAX-DP              :       0.000011229489
   RMS-DP              :       0.000000502142
   Orbital gradient    :       0.000003397209
   Orbital Rotation    :       0.000006338058
   Actual Damping      :       0.0000
   Int. Num. El.       :    71.99834220 (UP=   35.99917110 DN=   35.99917110)
   Exchange            :   -50.05050648
   Correlation         :    -2.93506249


                         ----------------------------
                         !        ITERATION    13   !
                         ----------------------------
   Total Energy        :    -491.818202905424 Eh
   Energy Change       :      -0.000000000317 Eh
   MAX-DP              :       0.000006458511
   RMS-DP              :       0.000000219171
   Orbital gradient    :       0.000003611789
   Orbital Rotation    :       0.000005737999
   Actual Damping      :       0.0000
   Int. Num. El.       :    71.99834221 (UP=   35.99917110 DN=   35.99917110)
   Exchange            :   -50.05052480
   Correlation         :    -2.93506329

                  ***Gradient check signals convergence***
              ***Rediagonalizing the Fockian in SOSCF/NRSCF***

               *****************************************************
               *                     SUCCESS                       *
               *           SCF CONVERGED AFTER  14 CYCLES          *
               *****************************************************

Setting up the final grid:

General Integration Accuracy     IntAcc      ...  5.010
Radial Grid Type                 RadialGrid  ... Gauss-Chebyshev
Angular Grid (max. acc.)         AngularGrid ... Lebedev-434
Angular grid pruning method      GridPruning ... 3 (G Style)
Weight generation scheme         WeightScheme... Becke
Basis function cutoff            BFCut       ...    1.0000e-11
Integration weight cutoff        WCut        ...    1.0000e-14
Grids for H and He will be reduced by one unit

# of grid points (after initial pruning)     ... 147204 (   0.1 sec)
# of grid points (after weights+screening)   ... 134859 (   0.3 sec)
nearest neighbour list constructed           ...    0.0 sec
Grid point re-assignment to atoms done       ...    0.0 sec
Grid point division into batches done        ...    0.8 sec
Reduced shell lists constructed in    1.4 sec

Total number of grid points                  ...   134859
Total number of batches                      ...     2117
Average number of points per batch           ...       63
Average number of grid points per atom       ...     8429
Average number of shells per batch           ...    41.99 (58.32%)
Average number of basis functions per batch  ...    90.33 (59.43%)
Average number of large shells per batch     ...    31.50 (75.01%)
Average number of large basis fcns per batch ...    68.16 (75.45%)
Maximum spatial batch extension              ...  18.61, 17.66, 22.66 au
Average spatial batch extension              ...   2.02,  1.99,  2.24 au

Final grid set up in    1.8 sec
Final integration                            ... done (   1.3 sec)
Change in XC energy                          ...    -0.000330792
Integrated number of electrons               ...    71.999996627
Previous integrated no of electrons          ...    71.998342201

----------------
TOTAL SCF ENERGY
----------------

Total Energy       :         -491.81853370 Eh          -13383.06268 eV

Components:
Nuclear Repulsion  :          495.21139525 Eh           13475.38714 eV
Electronic Energy  :         -987.02992894 Eh          -26858.44982 eV
One Electron Energy:        -1650.41766575 Eh          -44910.14787 eV
Two Electron Energy:          663.38773681 Eh           18051.69805 eV

Virial components:
Potential Energy   :         -980.88042106 Eh          -26691.11321 eV
Kinetic Energy     :          489.06188736 Eh           13308.05052 eV
Virial Ratio       :            2.00563660


DFT components:
N(Alpha)           :       35.999998313424 electrons
N(Beta)            :       35.999998313424 electrons
N(Total)           :       71.999996626847 electrons
E(X)               :      -50.050819220159 Eh       
E(C)               :       -2.935085108438 Eh       
E(XC)              :      -52.985904328597 Eh       
DFET-embed. en.    :        0.000000000000 Eh       

---------------
SCF CONVERGENCE
---------------

  Last Energy change         ...   -5.8668e-10  Tolerance :   1.0000e-08
  Last MAX-Density change    ...    2.5322e-06  Tolerance :   1.0000e-07
  Last RMS-Density change    ...    1.2739e-07  Tolerance :   5.0000e-09
  Last Orbital Gradient      ...    1.1072e-06  Tolerance :   1.0000e-05
  Last Orbital Rotation      ...    3.6722e-06  Tolerance :   1.0000e-05

             **** THE GBW FILE WAS UPDATED (/Users/lailaal-madhagi/Desktop/Testing_XAS_Analysis_code/ParaNitroAniline//Results_dir_ParaNitroAniline_geom_element_N_2019-11-16_12-39-08//GTE1_ParaNitroAniline_geom_2019-11-16_12-39-32//opt.gbw) ****
             **** DENSITY FILE WAS UPDATED (/Users/lailaal-madhagi/Desktop/Testing_XAS_Analysis_code/ParaNitroAniline//Results_dir_ParaNitroAniline_geom_element_N_2019-11-16_12-39-08//GTE1_ParaNitroAniline_geom_2019-11-16_12-39-32//opt.scfp.tmp) ****
             **** ENERGY FILE WAS UPDATED (/Users/lailaal-madhagi/Desktop/Testing_XAS_Analysis_code/ParaNitroAniline//Results_dir_ParaNitroAniline_geom_element_N_2019-11-16_12-39-08//GTE1_ParaNitroAniline_geom_2019-11-16_12-39-32//opt.en.tmp) ****
----------------
ORBITAL ENERGIES
----------------

  NO   OCC          E(Eh)            E(eV) 
   0   2.0000     -19.143615      -520.9242 
   1   2.0000     -19.143519      -520.9216 
   2   2.0000     -14.547384      -395.8545 
   3   2.0000     -14.361118      -390.7859 
   4   2.0000     -10.254248      -279.0323 
   5   2.0000     -10.228750      -278.3384 
   6   2.0000     -10.208008      -277.7740 
   7   2.0000     -10.207948      -277.7724 
   8   2.0000     -10.198146      -277.5057 
   9   2.0000     -10.198097      -277.5043 
  10   2.0000      -1.236864       -33.6568 
  11   2.0000      -1.040186       -28.3049 
  12   2.0000      -0.927435       -25.2368 
  13   2.0000      -0.867482       -23.6054 
  14   2.0000      -0.790982       -21.5237 
  15   2.0000      -0.763674       -20.7806 
  16   2.0000      -0.686422       -18.6785 
  17   2.0000      -0.633362       -17.2347 
  18   2.0000      -0.588205       -16.0059 
  19   2.0000      -0.544941       -14.8286 
  20   2.0000      -0.533576       -14.5193 
  21   2.0000      -0.529437       -14.4067 
  22   2.0000      -0.521643       -14.1946 
  23   2.0000      -0.488225       -13.2853 
  24   2.0000      -0.462452       -12.5840 
  25   2.0000      -0.448549       -12.2057 
  26   2.0000      -0.436457       -11.8766 
  27   2.0000      -0.410086       -11.1590 
  28   2.0000      -0.398062       -10.8318 
  29   2.0000      -0.364446        -9.9171 
  30   2.0000      -0.324739        -8.8366 
  31   2.0000      -0.294547        -8.0150 
  32   2.0000      -0.285699        -7.7743 
  33   2.0000      -0.266947        -7.2640 
  34   2.0000      -0.257812        -7.0154 
  35   2.0000      -0.224536        -6.1099 
  36   0.0000      -0.059153        -1.6096 
  37   0.0000      -0.017981        -0.4893 
  38   0.0000       0.034664         0.9432 
  39   0.0000       0.053873         1.4660 
  40   0.0000       0.091211         2.4820 
  41   0.0000       0.101470         2.7612 
  42   0.0000       0.152412         4.1473 
  43   0.0000       0.158066         4.3012 
  44   0.0000       0.162154         4.4124 
  45   0.0000       0.189423         5.1545 
  46   0.0000       0.212403         5.7798 
  47   0.0000       0.232696         6.3320 
  48   0.0000       0.275980         7.5098 
  49   0.0000       0.317181         8.6309 
  50   0.0000       0.318363         8.6631 
  51   0.0000       0.329696         8.9715 
  52   0.0000       0.356912         9.7121 
  53   0.0000       0.399272        10.8647 
  54   0.0000       0.499663        13.5965 
  55   0.0000       0.500867        13.6293 
  56   0.0000       0.505866        13.7653 
  57   0.0000       0.531326        14.4581 
  58   0.0000       0.548023        14.9125 
  59   0.0000       0.565146        15.3784 
  60   0.0000       0.573299        15.6003 
  61   0.0000       0.580834        15.8053 
  62   0.0000       0.583064        15.8660 
  63   0.0000       0.592807        16.1311 
  64   0.0000       0.614229        16.7140 
  65   0.0000       0.643940        17.5225 
  66   0.0000       0.646048        17.5799 
  67   0.0000       0.651209        17.7203 
  68   0.0000       0.657308        17.8863 
  69   0.0000       0.732945        19.9445 
  70   0.0000       0.735683        20.0189 
  71   0.0000       0.744060        20.2469 
  72   0.0000       0.802800        21.8453 
  73   0.0000       0.804025        21.8786 
  74   0.0000       0.815174        22.1820 
  75   0.0000       0.826536        22.4912 
  76   0.0000       0.849495        23.1159 
  77   0.0000       0.850897        23.1541 
  78   0.0000       0.854592        23.2546 
  79   0.0000       0.876633        23.8544 
  80   0.0000       0.899891        24.4873 
  81   0.0000       0.956551        26.0291 
  82   0.0000       0.957974        26.0678 
  83   0.0000       0.972677        26.4679 
  84   0.0000       0.979814        26.6621 
  85   0.0000       1.000897        27.2358 
  86   0.0000       1.015561        27.6348 
  87   0.0000       1.015579        27.6353 
  88   0.0000       1.076857        29.3028 
  89   0.0000       1.078626        29.3509 
  90   0.0000       1.132915        30.8282 
  91   0.0000       1.163434        31.6586 
  92   0.0000       1.195830        32.5402 
  93   0.0000       1.224670        33.3250 
  94   0.0000       1.268888        34.5282 
  95   0.0000       1.289606        35.0920 
  96   0.0000       1.328276        36.1442 
  97   0.0000       1.359074        36.9823 
  98   0.0000       1.409899        38.3653 
  99   0.0000       1.416012        38.5316 
 100   0.0000       1.433673        39.0122 
 101   0.0000       1.440534        39.1989 
 102   0.0000       1.465930        39.8900 
 103   0.0000       1.493054        40.6281 
 104   0.0000       1.494940        40.6794 
 105   0.0000       1.586451        43.1695 
 106   0.0000       1.602284        43.6004 
 107   0.0000       1.648491        44.8577 
 108   0.0000       1.715880        46.6915 
 109   0.0000       1.749252        47.5996 
 110   0.0000       1.769381        48.1473 
 111   0.0000       1.786881        48.6235 
 112   0.0000       1.819096        49.5001 
 113   0.0000       1.840079        50.0711 
 114   0.0000       1.854364        50.4598 
 115   0.0000       1.896392        51.6034 
 116   0.0000       1.902681        51.7746 
 117   0.0000       1.922720        52.3199 
 118   0.0000       1.961526        53.3758 
 119   0.0000       1.988965        54.1225 
 120   0.0000       1.989325        54.1323 
 121   0.0000       1.990727        54.1704 
 122   0.0000       2.035778        55.3963 
 123   0.0000       2.071920        56.3798 
 124   0.0000       2.108488        57.3749 
 125   0.0000       2.117470        57.6193 
 126   0.0000       2.142779        58.3080 
 127   0.0000       2.215112        60.2763 
 128   0.0000       2.230792        60.7029 
 129   0.0000       2.256691        61.4077 
 130   0.0000       2.258623        61.4602 
 131   0.0000       2.287064        62.2342 
 132   0.0000       2.336299        63.5739 
 133   0.0000       2.408208        65.5307 
 134   0.0000       2.408475        65.5379 
 135   0.0000       2.479091        67.4595 
 136   0.0000       2.498299        67.9822 
 137   0.0000       2.589130        70.4538 
 138   0.0000       2.611014        71.0493 
 139   0.0000       2.624133        71.4063 
 140   0.0000       2.681856        72.9770 
 141   0.0000       2.699363        73.4534 
 142   0.0000       2.738527        74.5191 
 143   0.0000       2.764980        75.2389 
 144   0.0000       2.835493        77.1577 
 145   0.0000       2.876446        78.2721 
 146   0.0000       2.937455        79.9322 
 147   0.0000       2.976201        80.9865 
 148   0.0000       3.018560        82.1392 
 149   0.0000       3.138253        85.3962 
 150   0.0000       3.252348        88.5009 
 151   0.0000       3.419555        93.0508 
------------------
MOLECULAR ORBITALS
------------------
                      0         1         2         3         4         5   
                 -19.14361 -19.14352 -14.54738 -14.36112 -10.25425 -10.22875
                   2.00000   2.00000   2.00000   2.00000   2.00000   2.00000
                  --------  --------  --------  --------  --------  --------
  0C   1s        -0.000018  0.000038 -0.000003  0.000071 -0.003554  0.000031
  0C   2s        -0.000093  0.000280 -0.000132  0.000660  0.002218  0.000057
  0C   1pz       -0.000003 -0.000001 -0.000002  0.000002  0.000052 -0.000002
  0C   1px       -0.000042  0.000011 -0.000167  0.000010  0.000996 -0.000225
  0C   1py       -0.000079 -0.000054  0.000196  0.000055  0.000717  0.000293
  0C   3s         0.001078 -0.001709 -0.005847 -0.007458 -0.017989 -0.010666
  0C   2pz        0.000142  0.000030 -0.000037 -0.000149 -0.000349 -0.000108
  0C   2px        0.002414  0.000087 -0.001845 -0.005799 -0.010294 -0.004570
  0C   2py        0.002519  0.001317  0.001583  0.003324  0.001777  0.003115
  0C   1dz2      -0.000019  0.000102 -0.000050  0.000185 -0.000487 -0.000020
  0C   1dxz       0.000002 -0.000003  0.000003 -0.000022  0.000055  0.000005
  0C   1dyz       0.000002 -0.000005  0.000003  0.000006  0.000056  0.000002
  0C   1dx2y2    -0.000001  0.000082 -0.000027 -0.000348  0.000045  0.000051
  0C   1dxy       0.000034  0.000014  0.000021  0.000134  0.001049  0.000064
  1C   1s         0.000000  0.000003 -0.000038 -0.000113 -0.995134  0.000419
  1C   2s         0.000005  0.000067 -0.000408  0.000093 -0.036578 -0.000834
  1C   1pz       -0.000001  0.000000  0.000002  0.000012  0.000000  0.000004
  1C   1px       -0.000019 -0.000002 -0.000022 -0.000117 -0.000003 -0.000038
  1C   1py       -0.000001  0.000025  0.000151  0.000818  0.000020  0.000266
  1C   3s        -0.000053 -0.000711  0.002619 -0.002789  0.032131  0.006583
  1C   2pz        0.000151 -0.000016 -0.000054 -0.000258 -0.000255 -0.000109
  1C   2px        0.003760 -0.000241  0.000511  0.002446  0.002418  0.001037
  1C   2py        0.000512 -0.000327 -0.003577 -0.017139 -0.016951 -0.007267
  1C   1dz2       0.000001  0.000008 -0.000038 -0.000239  0.000928 -0.000095
  1C   1dxz      -0.000001 -0.000002  0.000007 -0.000008 -0.000046  0.000012
  1C   1dyz      -0.000004  0.000000  0.000000  0.000014 -0.000036  0.000002
  1C   1dx2y2     0.000022 -0.000039  0.000100 -0.000539  0.000321  0.000128
  1C   1dxy      -0.000084 -0.000005  0.000029 -0.000157  0.000094  0.000037
  2C   1s         0.000028  0.000025 -0.000076 -0.000001 -0.000006  0.009260
  2C   2s         0.000238  0.000334 -0.000687  0.000081 -0.000023 -0.001920
  2C   1pz       -0.000001 -0.000001  0.000001  0.000007  0.000010 -0.000033
  2C   1px       -0.000052  0.000075  0.000005  0.000080  0.000096 -0.001072
  2C   1py        0.000070 -0.000190  0.000042  0.000195  0.000300  0.000355
  2C   3s        -0.008651 -0.000675  0.008156  0.005259  0.009168  0.018207
  2C   2pz       -0.000138 -0.000074  0.000302  0.000090  0.000214  0.000447
  2C   2px       -0.005810 -0.002532  0.005051  0.001369  0.003804  0.008613
  2C   2py        0.003883  0.001019  0.005529  0.001883  0.003515  0.006095
  2C   1dz2       0.000010  0.000073 -0.000206  0.000039  0.000048  0.000484
  2C   1dxz       0.000000 -0.000016  0.000028 -0.000001 -0.000004 -0.000038
  2C   1dyz       0.000004 -0.000000  0.000015 -0.000000  0.000001  0.000031
  2C   1dx2y2    -0.000031 -0.000269  0.000223  0.000008 -0.000051 -0.000675
  2C   1dxy       0.000108 -0.000079  0.000324  0.000039  0.000038  0.000917
  3C   1s        -0.000004 -0.000057  0.000080  0.000033  0.000581  0.994963
  3C   2s        -0.000018 -0.000239  0.000073  0.000359  0.000816  0.036828
  3C   1pz        0.000002 -0.000004  0.000008  0.000001  0.000003 -0.000007
  3C   1px        0.000051  0.000036 -0.000074 -0.000013 -0.000026  0.000066
  3C   1py       -0.000014 -0.000280  0.000516  0.000093  0.000184 -0.000461
  3C   3s         0.000186  0.002483  0.006507 -0.002357 -0.006458 -0.025998
  3C   2pz       -0.000661  0.000136 -0.000318 -0.000049 -0.000100 -0.000299
  3C   2px       -0.016585  0.000421  0.003013  0.000468  0.000952  0.002834
  3C   2py       -0.001918  0.005906 -0.021114 -0.003279 -0.006672 -0.019863
  3C   1dz2       0.000008  0.000093  0.000032  0.000025  0.000082 -0.001068
  3C   1dxz       0.000006 -0.000008  0.000009 -0.000005 -0.000011  0.000047
  3C   1dyz       0.000028 -0.000005 -0.000004 -0.000000 -0.000002  0.000043
  3C   1dx2y2    -0.000191 -0.000011  0.000264 -0.000083 -0.000122 -0.000516
  3C   1dxy       0.000650 -0.000056  0.000077 -0.000024 -0.000035 -0.000151
  4C   1s        -0.000024  0.000029 -0.000076 -0.000001 -0.000006  0.009234
  4C   2s        -0.000185  0.000366 -0.000687  0.000081 -0.000024 -0.001921
  4C   1pz       -0.000004 -0.000004  0.000000 -0.000002 -0.000001  0.000048
  4C   1px       -0.000033 -0.000014 -0.000016 -0.000132 -0.000176  0.000930
  4C   1py       -0.000111 -0.000189  0.000039  0.000165  0.000262  0.000639
  4C   3s         0.008453 -0.001957  0.008156  0.005259  0.009169  0.018208
  4C   2pz       -0.000257  0.000155 -0.000160 -0.000040 -0.000126 -0.000303
  4C   2px       -0.004123  0.002792 -0.006397 -0.001841 -0.004636 -0.009975
  4C   2py       -0.005036  0.002462  0.003902  0.001427  0.002316  0.003453
  4C   1dz2       0.000001  0.000073 -0.000207  0.000039  0.000048  0.000482
  4C   1dxz      -0.000001 -0.000016  0.000024 -0.000002 -0.000005 -0.000058
  4C   1dyz       0.000005 -0.000001 -0.000006 -0.000003 -0.000003 -0.000058
  4C   1dx2y2    -0.000071 -0.000261  0.000362  0.000028 -0.000023 -0.000079
  4C   1dxy       0.000095 -0.000093 -0.000154 -0.000029 -0.000060 -0.001135
  5C   1s         0.000024  0.000035 -0.000003  0.000071 -0.003557  0.000031
  5C   2s         0.000134  0.000263 -0.000132  0.000660  0.002218  0.000057
  5C   1pz       -0.000001 -0.000001  0.000009  0.000000 -0.000035  0.000012
  5C   1px       -0.000061  0.000014  0.000105 -0.000025 -0.001157  0.000134
  5C   1py        0.000055 -0.000064  0.000234  0.000050  0.000411  0.000344
  5C   3s        -0.001321 -0.001529 -0.005847 -0.007457 -0.017988 -0.010666
  5C   2pz        0.000078 -0.000003  0.000091  0.000272  0.000445  0.000219
  5C   2px        0.002921 -0.000898  0.001329  0.004638  0.009388  0.003517
  5C   2py       -0.001542  0.001487  0.002034  0.004808  0.004574  0.004264
  5C   1dz2       0.000034  0.000098 -0.000050  0.000184 -0.000489 -0.000020
  5C   1dxz      -0.000002 -0.000003  0.000002 -0.000026  0.000037  0.000004
  5C   1dyz       0.000000 -0.000004  0.000001 -0.000013 -0.000027 -0.000002
  5C   1dx2y2    -0.000006  0.000078 -0.000011 -0.000222  0.000600  0.000077
  5C   1dxy       0.000033  0.000027 -0.000032 -0.000299 -0.000862 -0.000027
  6N   1s         0.000000  0.000005 -0.000054 -0.995302 -0.000159 -0.000035
  6N   2s         0.000004  0.000056 -0.000249 -0.032488 -0.000645 -0.000363
  6N   1pz        0.000001 -0.000001  0.000000  0.000006 -0.000011 -0.000000
  6N   1px        0.000029  0.000005 -0.000001 -0.000051  0.000108  0.000002
  6N   1py        0.000001 -0.000047  0.000006  0.000358 -0.000759 -0.000012
  6N   3s         0.000011  0.000144  0.001907  0.028963  0.006373  0.003354
  6N   2pz       -0.000029  0.000005 -0.000012 -0.000094 -0.000064 -0.000020
  6N   2px       -0.000719  0.000030  0.000119  0.000889  0.000611  0.000188
  6N   2py       -0.000090  0.000171 -0.000831 -0.006231 -0.004284 -0.001316
  6N   1dz2       0.000003  0.000035 -0.000036 -0.000190 -0.001062 -0.000034
  6N   1dxz       0.000000 -0.000002  0.000000  0.000000  0.000000 -0.000000
  6N   1dyz       0.000002 -0.000001  0.000002  0.000009  0.000053  0.000002
  6N   1dx2y2    -0.000012  0.000013 -0.000051 -0.000279 -0.001587 -0.000056
  6N   1dxy       0.000043  0.000000 -0.000015 -0.000081 -0.000463 -0.000016
  7H   1s         0.000094  0.000060 -0.000012 -0.000217  0.000008 -0.000101
  7H   2s         0.000350 -0.000124 -0.000178 -0.001977 -0.002806 -0.000897
  8H   1s         0.000233  0.000117  0.000284  0.000037  0.000156  0.000128
  8H   2s        -0.000756 -0.000807  0.002217  0.000205  0.000897  0.002589
  9H   1s        -0.000213  0.000150  0.000284  0.000037  0.000156  0.000128
  9H   2s         0.000627 -0.000910  0.002217  0.000205  0.000897  0.002589
 10H   1s        -0.000084  0.000074 -0.000012 -0.000218  0.000008 -0.000101
 10H   2s        -0.000364 -0.000071 -0.000178 -0.001977 -0.002807 -0.000897
 11H   1s        -0.000075  0.000015 -0.000047  0.000113  0.000016 -0.000072
 11H   2s        -0.000227 -0.000099  0.000072 -0.002739  0.000474  0.000098
 12H   1s         0.000076  0.000004 -0.000047  0.000113  0.000016 -0.000072
 12H   2s         0.000209 -0.000132  0.000072 -0.002739  0.000474  0.000098
 13N   1s        -0.000015 -0.000206  0.995296 -0.000005  0.000038  0.000231
 13N   2s         0.000020  0.000263  0.034039  0.000248  0.000383  0.001266
 13N   1pz       -0.000019 -0.000007 -0.000013  0.000000  0.000001 -0.000005
 13N   1px       -0.000451  0.000110  0.000123 -0.000005 -0.000005  0.000049
 13N   1py       -0.000104 -0.000523 -0.000859  0.000032  0.000038 -0.000342
 13N   3s        -0.000953 -0.012701 -0.022949 -0.001857 -0.003383 -0.010285
 13N   2pz        0.000941  0.000079 -0.000217 -0.000014 -0.000021 -0.000140
 13N   2px        0.022929 -0.003139  0.002059  0.000134  0.000196  0.001328
 13N   2py        0.004015  0.009648 -0.014427 -0.000941 -0.001374 -0.009306
 13N   1dz2      -0.000023 -0.000321 -0.000926  0.000040  0.000064  0.001203
 13N   1dxz       0.000011  0.000050  0.000106 -0.000002 -0.000004 -0.000017
 13N   1dyz       0.000032  0.000002  0.000023 -0.000002 -0.000002 -0.000056
 13N   1dx2y2    -0.000159  0.000707  0.001065  0.000011  0.000007  0.001413
 13N   1dxy       0.000740  0.000146  0.000308  0.000003  0.000002  0.000412
 14O   1s        -0.754385 -0.649056  0.000119  0.000000  0.000000  0.000000
 14O   2s        -0.023627 -0.018995  0.000521  0.000023  0.000028  0.000037
 14O   1pz       -0.000080 -0.000058 -0.000040  0.000001  0.000001  0.000000
 14O   1px       -0.001483 -0.000967 -0.000726  0.000015  0.000023  0.000096
 14O   1py       -0.001201 -0.001062 -0.000606  0.000004  0.000008 -0.000156
 14O   3s         0.024776  0.013813 -0.004005 -0.000038  0.000038 -0.001173
 14O   2pz        0.000382  0.000216 -0.000128  0.000000  0.000003 -0.000011
 14O   2px        0.006308  0.004581 -0.003135 -0.000050 -0.000001 -0.000989
 14O   2py        0.007168  0.002195 -0.000522  0.000094  0.000142  0.001283
 14O   1dz2      -0.000513  0.000009  0.001219 -0.000004 -0.000010 -0.000178
 14O   1dxz       0.000035  0.000025 -0.000140 -0.000000  0.000001  0.000003
 14O   1dyz       0.000050 -0.000002 -0.000090  0.000001  0.000002  0.000017
 14O   1dx2y2    -0.000316  0.000542 -0.000726 -0.000021 -0.000018 -0.000305
 14O   1dxy       0.000667  0.000260 -0.001652  0.000019  0.000036  0.000131
 15O   1s         0.649138 -0.754314  0.000119  0.000000  0.000000  0.000000
 15O   2s         0.020529 -0.022307  0.000521  0.000023  0.000028  0.000037
 15O   1pz       -0.000046  0.000038  0.000025 -0.000001 -0.000001 -0.000005
 15O   1px       -0.001557  0.001475  0.000867 -0.000015 -0.000024 -0.000048
 15O   1py        0.000620 -0.000853 -0.000380 -0.000000  0.000002 -0.000177
 15O   3s        -0.022439  0.017354 -0.004006 -0.000038  0.000038 -0.001174
 15O   2pz        0.000170 -0.000198  0.000126  0.000003  0.000001  0.000053
 15O   2px        0.007224 -0.006159  0.003157  0.000022 -0.000039  0.000591
 15O   2py       -0.004945  0.001586  0.000372  0.000105  0.000137  0.001507
 15O   1dz2       0.000510 -0.000068  0.001222 -0.000005 -0.000010 -0.000178
 15O   1dxz      -0.000018  0.000026 -0.000115 -0.000001 -0.000000 -0.000001
 15O   1dyz       0.000010 -0.000011  0.000025 -0.000001 -0.000001 -0.000000
 15O   1dx2y2    -0.000002  0.000604 -0.001499 -0.000007  0.000004 -0.000188
 15O   1dxy       0.000736 -0.000039  0.001008 -0.000028 -0.000040 -0.000274
                      6         7         8         9        10        11   
                 -10.20801 -10.20795 -10.19815 -10.19810  -1.23686  -1.04019
                   2.00000   2.00000   2.00000   2.00000   2.00000   2.00000
                  --------  --------  --------  --------  --------  --------
  0C   1s        -0.021551  0.000573 -0.024850 -0.994592 -0.000203 -0.000614
  0C   2s         0.001359 -0.000552 -0.001009 -0.036696  0.001907  0.000705
  0C   1pz       -0.000019 -0.000004 -0.000011 -0.000029  0.000005 -0.000025
  0C   1px        0.000211 -0.000169 -0.000251 -0.000910  0.000817 -0.000064
  0C   1py       -0.001298  0.000131 -0.000063  0.000260 -0.001241 -0.001089
  0C   3s        -0.012792  0.003600 -0.003524  0.034026  0.013651  0.004246
  0C   2pz       -0.000107  0.000050 -0.000042  0.000242  0.000149  0.000505
  0C   2px       -0.004624  0.002189 -0.001920  0.007714  0.004650  0.008720
  0C   2py        0.003246 -0.001592  0.001461 -0.002315 -0.001301  0.008724
  0C   1dz2      -0.000593 -0.000024 -0.000067  0.000601  0.000213 -0.000212
  0C   1dxz      -0.000008  0.000004  0.000001 -0.000033 -0.000008  0.000008
  0C   1dyz       0.000034  0.000000  0.000003 -0.000040 -0.000013  0.000012
  0C   1dx2y2    -0.001104  0.000060 -0.000066  0.000335  0.000174 -0.000179
  0C   1dxy      -0.000242  0.000012 -0.000028 -0.000316 -0.000055  0.000023
  1C   1s         0.000042 -0.000049 -0.003665  0.003849 -0.000040 -0.000000
  1C   2s         0.000057 -0.000065 -0.002233  0.002348  0.001498 -0.000001
  1C   1pz       -0.000008 -0.000001 -0.000038 -0.000055 -0.000010 -0.000013
  1C   1px       -0.000088 -0.000133 -0.001266 -0.001019  0.000099 -0.000324
  1C   1py       -0.000209  0.000204  0.000482 -0.000841 -0.000691 -0.000046
  1C   3s         0.005207 -0.005918  0.013019 -0.013687 -0.007419 -0.000004
  1C   2pz       -0.000092 -0.000041  0.000062  0.000239  0.000137  0.000543
  1C   2px       -0.001597 -0.001787  0.004617  0.002687 -0.001290  0.013439
  1C   2py       -0.001583  0.001286 -0.005433  0.006785  0.009124  0.001906
  1C   1dz2      -0.000000  0.000001  0.000646 -0.000677  0.000045 -0.000000
  1C   1dxz      -0.000001  0.000004 -0.000060  0.000081 -0.000018 -0.000002
  1C   1dyz       0.000006  0.000004  0.000023  0.000056  0.000002 -0.000009
  1C   1dx2y2    -0.000099  0.000038 -0.000887  0.000398 -0.000341  0.000061
  1C   1dxy       0.000109  0.000133  0.000738  0.001061 -0.000099 -0.000207
  2C   1s        -0.992838  0.063659  0.001271  0.021710 -0.003488 -0.004380
  2C   2s        -0.036395  0.002228 -0.000322  0.003030  0.010166  0.009337
  2C   1pz       -0.000042 -0.000006 -0.000006  0.000023  0.000071 -0.000009
  2C   1px       -0.000829 -0.000185 -0.000129 -0.000125  0.004689  0.002481
  2C   1py       -0.000539  0.000022 -0.000033  0.001341 -0.005131 -0.005004
  2C   3s         0.032351 -0.006141  0.002618 -0.015483 -0.025411 -0.023563
  2C   2pz        0.000309 -0.000110  0.000093 -0.000261 -0.001185 -0.000433
  2C   2px        0.006261 -0.001954  0.001352 -0.004276 -0.023039 -0.018575
  2C   2py        0.003643 -0.001785  0.002080 -0.004921 -0.015740  0.012954
  2C   1dz2       0.000571 -0.000121 -0.000074 -0.000598 -0.000226 -0.000467
  2C   1dxz      -0.000026  0.000004  0.000004 -0.000009 -0.000055  0.000038
  2C   1dyz      -0.000007  0.000005  0.000003  0.000028 -0.000035  0.000022
  2C   1dx2y2     0.000085 -0.000085 -0.000028 -0.001058 -0.000957  0.000087
  2C   1dxy       0.000404 -0.000029 -0.000005 -0.000390 -0.001675  0.000207
  3C   1s         0.008826 -0.010008  0.000228 -0.000237 -0.026175 -0.000001
  3C   2s         0.002288 -0.002601  0.000088 -0.000092  0.048940 -0.000004
  3C   1pz       -0.000038 -0.000053 -0.000003  0.000001 -0.000668 -0.000979
  3C   1px       -0.001268 -0.000932 -0.000009 -0.000051  0.006340 -0.024270
  3C   1py        0.000471 -0.000873 -0.000151  0.000151 -0.044394 -0.003443
  3C   3s        -0.012582  0.014307 -0.006291  0.006612 -0.008651 -0.000025
  3C   2pz        0.000071  0.000217 -0.000133 -0.000064  0.001302 -0.002210
  3C   2px        0.004380  0.002388 -0.002232 -0.002716 -0.012369 -0.054711
  3C   2py       -0.004571  0.006245 -0.002434  0.001838  0.086558 -0.007800
  3C   1dz2      -0.000589  0.000667 -0.000014  0.000014 -0.003856  0.000008
  3C   1dxz       0.000055 -0.000080  0.000004 -0.000006 -0.000015  0.000064
  3C   1dyz      -0.000027 -0.000054 -0.000004 -0.000003  0.000194  0.000294
  3C   1dx2y2     0.000867 -0.000421  0.000109 -0.000066 -0.006120 -0.001973
  3C   1dxy      -0.000794 -0.001041 -0.000060 -0.000106 -0.001787  0.006780
  4C   1s         0.063718  0.992829 -0.021985 -0.000180 -0.003489  0.004377
  4C   2s         0.002440  0.036382 -0.003019  0.000473  0.010164 -0.009346
  4C   1pz       -0.000012 -0.000028 -0.000018 -0.000004 -0.000242  0.000148
  4C   1px       -0.000291 -0.000919  0.000248 -0.000146 -0.003064  0.000978
  4C   1py       -0.000035  0.000294 -0.001322  0.000062 -0.006237  0.005499
  4C   3s         0.001959 -0.032870  0.015338 -0.003388 -0.025373  0.023613
  4C   2pz       -0.000036  0.000234 -0.000131  0.000044  0.000814 -0.000890
  4C   2px       -0.001458  0.007279 -0.005382  0.002151  0.026470 -0.014209
  4C   2py        0.000936 -0.001889  0.003448 -0.001796 -0.008675 -0.017657
  4C   1dz2       0.000047 -0.000581  0.000601  0.000044 -0.000225  0.000466
  4C   1dxz       0.000000  0.000033  0.000007 -0.000004 -0.000031 -0.000035
  4C   1dyz      -0.000000  0.000037 -0.000035 -0.000001  0.000077 -0.000008
  4C   1dx2y2     0.000050 -0.000297  0.001102 -0.000029 -0.001707 -0.000181
  4C   1dxy       0.000059  0.000289  0.000239 -0.000001  0.000902  0.000130
  5C   1s         0.002200  0.021687  0.994587 -0.024866 -0.000203  0.000613
  5C   2s         0.000375 -0.001409  0.036700 -0.000826  0.001910 -0.000707
  5C   1pz       -0.000006  0.000021 -0.000041 -0.000008 -0.000045  0.000007
  5C   1px       -0.000145 -0.000143 -0.000812 -0.000219 -0.000439 -0.000366
  5C   1py       -0.000004  0.001317 -0.000503  0.000016 -0.001418  0.001028
  5C   3s        -0.001937  0.013142 -0.033806  0.005219  0.013601 -0.004221
  5C   2pz        0.000076 -0.000234  0.000337 -0.000110 -0.000204  0.000282
  5C   2px        0.001192 -0.003715  0.006678 -0.001770 -0.004070  0.010810
  5C   2py        0.001558 -0.004641  0.004269 -0.002154 -0.002526 -0.005967
  5C   1dz2       0.000100  0.000585 -0.000598  0.000097  0.000214  0.000211
  5C   1dxz      -0.000003  0.000010  0.000026 -0.000003 -0.000007 -0.000006
  5C   1dyz      -0.000004 -0.000028  0.000007 -0.000004 -0.000005 -0.000006
  5C   1dx2y2     0.000079  0.001060 -0.000109  0.000076  0.000118  0.000137
  5C   1dxy       0.000027  0.000388 -0.000446  0.000035  0.000140  0.000116
  6N   1s         0.000018 -0.000020 -0.000016  0.000017  0.000070 -0.000000
  6N   2s         0.000185 -0.000211 -0.000294  0.000309  0.000691 -0.000001
  6N   1pz       -0.000002 -0.000001  0.000000 -0.000003 -0.000002  0.000004
  6N   1px       -0.000041 -0.000042 -0.000052 -0.000018  0.000017  0.000094
  6N   1py       -0.000028  0.000019  0.000105 -0.000121 -0.000116  0.000014
  6N   3s        -0.000644  0.000733  0.001323 -0.001392 -0.004883  0.000005
  6N   2pz        0.000032  0.000011 -0.000016 -0.000002  0.000042 -0.000105
  6N   2px        0.000499  0.000605 -0.000169 -0.000284 -0.000400 -0.002590
  6N   2py        0.000662 -0.000587 -0.000461  0.000419  0.002779 -0.000372
  6N   1dz2       0.000048 -0.000055 -0.000100  0.000105  0.000120 -0.000000
  6N   1dxz      -0.000000  0.000000  0.000011 -0.000010 -0.000002  0.000001
  6N   1dyz      -0.000003  0.000002  0.000005 -0.000001 -0.000006  0.000006
  6N   1dx2y2     0.000068 -0.000070  0.000069 -0.000104  0.000140 -0.000038
  6N   1dxy       0.000006 -0.000032  0.000078  0.000025  0.000041  0.000129
  7H   1s         0.000174  0.000085 -0.000030  0.001369  0.000125  0.000446
  7H   2s        -0.001113  0.000739 -0.000471 -0.002545 -0.000474  0.001470
  8H   1s         0.001334 -0.000120  0.000090  0.000113  0.001320  0.004187
  8H   2s        -0.002685 -0.000143  0.000747 -0.001129 -0.009762 -0.000619
  9H   1s        -0.000052 -0.001338 -0.000117 -0.000084  0.001321 -0.004186
  9H   2s         0.000485  0.002644  0.001089 -0.000802 -0.009730  0.000588
 10H   1s        -0.000106 -0.000162 -0.001366  0.000098  0.000124 -0.000446
 10H   2s        -0.000591  0.001199  0.002566  0.000343 -0.000487 -0.001462
 11H   1s         0.000127  0.000047 -0.000062  0.000082  0.000109 -0.000224
 11H   2s         0.000000  0.000219  0.000150 -0.000047 -0.000500 -0.000861
 12H   1s        -0.000063 -0.000120 -0.000079  0.000066  0.000110  0.000224
 12H   2s        -0.000217  0.000028  0.000039 -0.000152 -0.000497  0.000863
 13N   1s         0.000004 -0.000005 -0.000015  0.000016 -0.164772  0.000003
 13N   2s         0.000211 -0.000240 -0.000178  0.000187  0.355759 -0.000010
 13N   1pz       -0.000002 -0.000003 -0.000002 -0.000001 -0.001565 -0.013668
 13N   1px       -0.000070 -0.000047 -0.000027 -0.000033  0.014848 -0.338623
 13N   1py        0.000040 -0.000063 -0.000029  0.000022 -0.104043 -0.048114
 13N   3s        -0.000117  0.000133  0.000244 -0.000257  0.205310 -0.000035
 13N   2pz       -0.000012 -0.000004  0.000062  0.000037  0.001061 -0.000079
 13N   2px       -0.000180 -0.000219  0.001157  0.001308 -0.010107 -0.001918
 13N   2py       -0.000239  0.000211  0.000903 -0.000591  0.070617 -0.000262
 13N   1dz2       0.000034 -0.000039 -0.000025  0.000026 -0.016800  0.000032
 13N   1dxz      -0.000004  0.000003 -0.000001  0.000000  0.001501  0.000278
 13N   1dyz      -0.000004 -0.000001 -0.000000 -0.000003  0.000505  0.001273
 13N   1dx2y2    -0.000011  0.000050 -0.000039  0.000062  0.009421 -0.008534
 13N   1dxy      -0.000073 -0.000047 -0.000052 -0.000020  0.002723  0.029354
 14O   1s         0.000005 -0.000009 -0.000007 -0.000000 -0.107349 -0.141168
 14O   2s         0.000156 -0.000151 -0.000086  0.000037  0.231719  0.311538
 14O   1pz        0.000003 -0.000000  0.000001  0.000001  0.005675  0.005128
 14O   1px        0.000035  0.000010  0.000005 -0.000000  0.108720  0.084028
 14O   1py        0.000069 -0.000033  0.000018  0.000034  0.078567  0.097108
 14O   3s        -0.000408  0.000501  0.000881  0.000343  0.196580  0.299150
 14O   2pz       -0.000013  0.000009  0.000015  0.000006  0.002265  0.002288
 14O   2px       -0.000230  0.000076  0.000321  0.000086  0.046452  0.035931
 14O   2py       -0.000237  0.000291  0.000124  0.000139  0.025775  0.046263
 14O   1dz2       0.000036 -0.000021 -0.000008  0.000023 -0.008003 -0.005374
 14O   1dxz      -0.000001  0.000001  0.000002 -0.000001  0.001081  0.000452
 14O   1dyz      -0.000004  0.000002  0.000000  0.000001  0.000713  0.000710
 14O   1dx2y2     0.000047 -0.000022  0.000031 -0.000017  0.006719 -0.003713
 14O   1dxy      -0.000038  0.000023  0.000021  0.000046  0.015095  0.011832
 15O   1s         0.000008 -0.000006  0.000001  0.000007 -0.107347  0.141171
 15O   2s         0.000129 -0.000174 -0.000033  0.000088  0.231713 -0.311555
 15O   1pz        0.000001  0.000001 -0.000000  0.000000 -0.003815  0.002618
 15O   1px        0.000008  0.000053  0.000010  0.000010 -0.126373  0.107854
 15O   1py        0.000027 -0.000061 -0.000033 -0.000014  0.045164 -0.069850
 15O   3s        -0.000445  0.000469 -0.000386 -0.000863  0.196614 -0.299117
 15O   2pz       -0.000000 -0.000007  0.000003  0.000012 -0.001701  0.001078
 15O   2px        0.000117 -0.000304  0.000139  0.000337 -0.051833  0.047431
 15O   2py       -0.000235  0.000196 -0.000111 -0.000024  0.011818 -0.034408
 15O   1dz2       0.000016 -0.000038 -0.000023  0.000009 -0.008030  0.005400
 15O   1dxz      -0.000000  0.000000  0.000002 -0.000002  0.000851 -0.000227
 15O   1dyz       0.000000 -0.000001  0.000003  0.000000 -0.000339  0.000323
 15O   1dx2y2     0.000004 -0.000020 -0.000012 -0.000037  0.013765 -0.003204
 15O   1dxy       0.000024 -0.000061  0.000048 -0.000002 -0.009156  0.011987
                     12        13        14        15        16        17   
                  -0.92744  -0.86748  -0.79098  -0.76367  -0.68642  -0.63336
                   2.00000   2.00000   2.00000   2.00000   2.00000   2.00000
                  --------  --------  --------  --------  --------  --------
  0C   1s         0.052051  0.055191 -0.082390 -0.114008 -0.021231  0.076245
  0C   2s        -0.100026 -0.103689  0.157580  0.222381  0.042114 -0.153068
  0C   1pz       -0.001900 -0.000269  0.001966 -0.001106  0.004425 -0.002368
  0C   1px       -0.037748 -0.031141  0.047387 -0.001122  0.048775  0.006973
  0C   1py       -0.023818  0.044114  0.009291 -0.052341  0.127500 -0.128907
  0C   3s        -0.030082 -0.079188  0.109165  0.164115  0.063242 -0.130162
  0C   2pz       -0.000016  0.000038 -0.000081 -0.000284  0.000898 -0.000792
  0C   2px        0.014664 -0.007657 -0.001658 -0.009436  0.015327  0.015838
  0C   2py       -0.027873  0.015621 -0.000972  0.003846  0.015395 -0.067683
  0C   1dz2       0.005472  0.005338 -0.006692 -0.008711 -0.001373  0.004113
  0C   1dxz      -0.000413 -0.000266  0.000593  0.000363  0.000485 -0.000500
  0C   1dyz      -0.000333 -0.000099  0.000226  0.000270  0.000177 -0.000083
  0C   1dx2y2     0.000380  0.000643  0.003366 -0.003730  0.006700 -0.005491
  0C   1dxy      -0.003498  0.002754  0.001557 -0.003040  0.007067 -0.001316
  1C   1s         0.117423  0.015012 -0.077141  0.000011 -0.103893  0.000004
  1C   2s        -0.231744 -0.027512  0.152618 -0.000012  0.218186  0.000012
  1C   1pz       -0.001084  0.001466 -0.001664 -0.005256 -0.000434  0.009111
  1C   1px        0.010284 -0.013897  0.015756 -0.130199  0.004108  0.225713
  1C   1py       -0.072065  0.097382 -0.110553 -0.018479 -0.028898  0.032063
  1C   3s        -0.092338 -0.026515  0.113635 -0.000262  0.145225 -0.000185
  1C   2pz        0.000906  0.000013 -0.000376 -0.000611  0.000313  0.000723
  1C   2px       -0.008638 -0.000234  0.003710 -0.015339 -0.003171  0.017757
  1C   2py        0.060559  0.001336 -0.025453 -0.001969  0.021553  0.002624
  1C   1dz2       0.012375  0.000793 -0.005067  0.000011 -0.004783  0.000000
  1C   1dxz      -0.000433 -0.000303  0.000678  0.000086  0.000558 -0.000030
  1C   1dyz      -0.000519  0.000027  0.000103  0.000399  0.000115 -0.000138
  1C   1dx2y2     0.008543 -0.005782  0.008033 -0.002677  0.005695  0.000925
  1C   1dxy       0.002500 -0.001678  0.002328  0.009206  0.001651 -0.003191
  2C   1s         0.027250  0.090487 -0.009642 -0.109906  0.082566 -0.088337
  2C   2s        -0.051347 -0.174108  0.016292  0.215892 -0.161570  0.179594
  2C   1pz       -0.000887 -0.002396  0.000390  0.000470 -0.000837 -0.001448
  2C   1px       -0.013440 -0.059122 -0.036289 -0.018296 -0.019904  0.013290
  2C   1py       -0.018823 -0.008925  0.085750  0.056814 -0.004590 -0.095231
  2C   3s        -0.056780 -0.090335  0.015861  0.163412 -0.159076  0.146497
  2C   2pz       -0.000381  0.000281  0.000567 -0.000362 -0.000599 -0.001367
  2C   2px       -0.002437  0.000915  0.006292 -0.014446 -0.008117 -0.005994
  2C   2py       -0.014008  0.012560  0.016322  0.008351 -0.013955 -0.056725
  2C   1dz2       0.003051  0.008656 -0.000954 -0.008517  0.005408 -0.004523
  2C   1dxz      -0.000162 -0.000615 -0.000059  0.000377 -0.000614  0.000518
  2C   1dyz      -0.000133 -0.000204  0.000308  0.000424 -0.000200  0.000148
  2C   1dx2y2     0.001018 -0.002231 -0.005571 -0.004988 -0.005304  0.004742
  2C   1dxy      -0.000099  0.001534  0.004281  0.000525 -0.003085  0.002242
  3C   1s         0.025247  0.128872  0.092938 -0.000009  0.016527  0.000016
  3C   2s        -0.049714 -0.251555 -0.188935  0.000009 -0.029267 -0.000029
  3C   1pz       -0.000212 -0.000126  0.001875 -0.004553 -0.003211 -0.008006
  3C   1px        0.002008  0.001181 -0.017799 -0.112740  0.030459 -0.198291
  3C   1py       -0.014059 -0.008283  0.124606 -0.016042 -0.213345 -0.028213
  3C   3s        -0.019847 -0.139260 -0.122155  0.000248 -0.038316 -0.000058
  3C   2pz        0.000111 -0.000637  0.000016 -0.000987  0.000022 -0.000716
  3C   2px       -0.000957  0.006064 -0.000465 -0.024745  0.000079 -0.017794
  3C   2py        0.006969 -0.042782  0.001794 -0.003311  0.000531 -0.002433
  3C   1dz2       0.002462  0.011473  0.007843 -0.000011 -0.000849 -0.000004
  3C   1dxz      -0.000144 -0.000667 -0.000172 -0.000085 -0.000615 -0.000066
  3C   1dyz      -0.000091 -0.000423 -0.000351 -0.000394  0.000176 -0.000303
  3C   1dx2y2     0.000371  0.001803  0.007780  0.002637 -0.015418  0.002028
  3C   1dxy       0.000113  0.000542  0.002270 -0.009082 -0.004480 -0.006989
  4C   1s         0.027254  0.090489 -0.009614  0.109921  0.082555  0.088341
  4C   2s        -0.051319 -0.174068  0.016225 -0.215843 -0.161508 -0.179592
  4C   1pz        0.000390  0.002383  0.002289 -0.001275  0.000788  0.001424
  4C   1px        0.018168  0.059262  0.010856 -0.001679  0.020398 -0.013820
  4C   1py       -0.014334  0.007906  0.092436 -0.059671  0.001128  0.095181
  4C   3s        -0.057065 -0.090453  0.016061 -0.164140 -0.159259 -0.146607
  4C   2pz       -0.000029  0.000074 -0.000116 -0.000681  0.000217  0.000269
  4C   2px        0.006385 -0.004285 -0.010730 -0.011122  0.011871 -0.021492
  4C   2py       -0.012877  0.011685  0.013739 -0.012325 -0.011056  0.052667
  4C   1dz2       0.003059  0.008659 -0.000966  0.008534  0.005416  0.004526
  4C   1dxz      -0.000155 -0.000653 -0.000162 -0.000342 -0.000586 -0.000502
  4C   1dyz      -0.000101 -0.000377 -0.000164 -0.000264 -0.000075 -0.000077
  4C   1dx2y2     0.000808 -0.001066 -0.002403  0.003929 -0.006135 -0.005209
  4C   1dxy       0.000639 -0.002470 -0.006601  0.003139 -0.000231 -0.000640
[...]
 0 C  dx2y2           0.0       0.0       6.2       0.0       0.0       4.1
 0 C  dxy             0.0       2.9       2.6       6.4       0.2       4.8
 1 C  s               0.0       7.8       1.8       0.0       0.0       0.6
 1 C  px              0.0       0.0       0.0       0.3       0.0       0.0
 1 C  py              0.0       0.9       0.2       0.0       0.0       1.8
 1 C  dz2             0.1      18.2       0.4       0.0       0.0       0.0
 1 C  dxz            13.4       0.1       0.0       0.1       2.6       0.0
 1 C  dyz             0.3       0.0       0.0       0.0       0.0       0.0
 1 C  dx2y2           0.0       2.8       9.3       0.4       0.0       0.8
 1 C  dxy             0.0       0.2       0.8       4.4       0.1       0.1
 2 C  s               0.0       0.5       0.3       1.8       0.0       0.2
 2 C  px              0.0       0.7       0.2       0.1       0.0       0.6
 2 C  py              0.0       0.4       1.3       1.6       0.0       1.6
 2 C  dz2             0.0       1.3       0.2       2.5       0.0       0.1
 2 C  dxz             3.2       0.0       0.0       0.0       3.0       0.0
 2 C  dyz             7.5       0.0       0.0       0.2       3.2       0.0
 2 C  dx2y2           0.0       1.0       0.9       7.3       0.3      16.0
 2 C  dxy             0.0       2.3       5.7       5.7       0.2       0.1
 3 C  s               0.0       3.5       1.1       0.0       0.0       7.9
 3 C  px              0.0       0.0       0.0       1.6       0.0       0.0
 3 C  py              0.0       0.1       0.6       0.0       0.0       0.5
 3 C  dz2             0.0      12.9       0.5       0.0       0.1       5.6
 3 C  dxz             5.8       0.1       0.0       0.3      10.7       0.0
 3 C  dyz             0.1       0.0       0.0       0.0       0.2       0.0
 3 C  dx2y2           0.0       3.7      10.5       0.0       0.0       1.8
 3 C  dxy             0.0       0.3       0.9       0.0       0.0       0.2
 4 C  s               0.0       0.5       0.3       1.8       0.0       0.2
 4 C  px              0.0       0.5       0.0       0.0       0.0       0.2
 4 C  py              0.0       0.6       1.6       1.7       0.0       2.1
 4 C  dz2             0.0       1.3       0.2       2.4       0.2       0.1
 4 C  dxz             0.9       0.0       0.0       0.0       1.3       0.0
 4 C  dyz             9.7       0.0       0.0       0.1       5.0       0.0
 4 C  dx2y2           0.0       2.8       0.3       1.0       0.0      10.4
 4 C  dxy             0.0       0.5       6.3      12.2       0.2       5.7
 5 C  s               0.0       1.2       0.5       3.4       0.1       0.4
 5 C  px              0.0       1.4       0.1       0.1       0.0       0.3
 5 C  py              0.0       1.0       0.3       1.2       0.0       2.0
 5 C  dz2             0.0       3.2       0.6       3.6       0.1       0.0
 5 C  dxz             4.9       0.0       0.0       0.1       1.2       0.0
 5 C  dyz             9.0       0.0       0.0       0.0       2.2       0.0
 5 C  dx2y2           0.0       1.1       8.9       1.9       0.0       8.2
 5 C  dxy             0.0       1.8       0.0       4.6       0.1       0.6
 6 N  s               0.0       0.4       0.5       0.0       0.0       0.8
 6 N  px              0.0       0.0       0.0       0.4       0.0       0.0
 6 N  py              0.0       0.1       1.1       0.0       0.0       0.5
 6 N  dz2             0.0       2.8       0.3       0.0       0.0       0.7
 6 N  dxz             0.5       0.0       0.0       0.0       0.1       0.0
 6 N  dx2y2           0.0       0.0       4.4       0.6       0.0       0.8
 6 N  dxy             0.0       0.0       0.4       6.9       0.2       0.1
 7 H  s               0.0       0.0       0.0       0.6       0.0       0.0
 8 H  s               0.0       0.1       0.5       0.5       0.0       0.1
 9 H  s               0.0       0.1       0.5       0.5       0.0       0.1
10 H  s               0.0       0.0       0.0       0.6       0.0       0.0
11 H  s               0.0       0.2       0.1       1.1       0.0       0.0
12 H  s               0.0       0.2       0.1       1.1       0.0       0.0
13 N  s               0.0       3.5       1.4       0.0       0.0       1.8
13 N  py              0.0       0.2       3.8       0.0       0.0       2.0
13 N  dz2             0.1       4.6       0.6       0.0       0.2       0.4
13 N  dxz            12.9       0.0       0.0       0.8      31.6       0.0
13 N  dyz             0.3       0.0       0.0       0.0       0.6       0.0
13 N  dx2y2           0.0       1.1       2.1       0.4       0.0       0.3
13 N  dxy             0.0       0.1       0.2       4.1       0.2       0.0
14 O  s               0.0       0.2       1.9       0.7       0.0       0.8
14 O  pz              0.3       0.0       0.0       0.0       0.7       0.0
14 O  px              0.0       0.1       0.6       0.1       0.0       0.5
14 O  py              0.0       0.2       0.0       0.3       0.0       0.1
14 O  dz2             0.0       0.0       0.4       0.4       0.1       0.2
14 O  dxz             3.6       0.0       0.0       0.2       7.1       0.0
14 O  dyz             4.5       0.0       0.0       0.2       8.1       0.0
14 O  dx2y2           0.0       0.0       6.4       1.5       0.0       2.0
14 O  dxy             0.0       1.6       0.5       0.0       0.0       2.8
15 O  s               0.0       0.2       1.9       0.7       0.0       0.8
15 O  pz              0.3       0.0       0.0       0.0       0.7       0.0
15 O  px              0.0       0.2       0.6       0.2       0.0       0.5
15 O  py              0.0       0.1       0.1       0.2       0.0       0.0
15 O  dz2             0.0       0.0       0.4       0.4       0.0       0.2
15 O  dxz             5.9       0.0       0.0       0.3      11.3       0.0
15 O  dyz             2.3       0.0       0.0       0.1       4.0       0.0
15 O  dx2y2           0.0       0.3       6.4       0.8       0.1       4.4
15 O  dxy             0.0       1.3       0.6       0.7       0.0       0.4

                    144       145       146       147       148       149   
                   2.83800   2.87455   2.92530   2.93175   3.03580   3.09288
                   0.00000   0.00000   0.00000   0.00000   0.00000   0.00000
                  --------  --------  --------  --------  --------  --------
 0 C  s               4.7       2.8       0.1       0.7       0.5       0.9
 0 C  px              0.7       0.1       0.1       0.1       1.0       0.1
 0 C  py              0.7       0.5       0.0       0.0       1.0       0.1
 0 C  dz2             5.5       3.7       0.0       1.3       0.1       0.5
 0 C  dx2y2           5.5       0.9       0.1       0.1       4.3       1.9
 0 C  dxy             5.5       1.2       0.0       0.0       4.8       0.3
 1 C  s               0.0       6.3       0.0       0.7       0.0       0.2
 1 C  px              3.0       0.0       0.0       0.0       1.9       0.0
 1 C  py              0.1       1.1       0.0       0.0       0.0       0.1
 1 C  dz2             0.0       8.0       0.0       1.0       0.0       0.3
 1 C  dx2y2           0.0      12.2       0.1       0.2       2.4       3.2
 1 C  dxy             0.0       1.0       1.2       0.0      28.7       0.3
 2 C  s               4.8       3.0       0.1       1.1       0.6       0.3
 2 C  px              0.7       0.2       0.2       0.0       0.1       0.0
 2 C  py              0.6       0.2       0.0       0.1       0.4       0.4
 2 C  dz2             5.5       3.8       0.1       2.5       0.0       0.3
 2 C  dx2y2           0.2       0.7       0.6       0.2       0.0       0.3
 2 C  dxy            10.7       0.0       0.0       0.1       0.2       0.1
 3 C  s               0.0       2.2       0.0       5.1       0.0       0.1
 3 C  px              3.2       0.0       0.3       0.0       0.0       0.0
 3 C  py              0.1       0.1       0.0       0.4       0.0       0.7
 3 C  dz2             0.0       2.7       0.0       6.6       0.0       0.2
 3 C  dx2y2           0.0       0.9       0.3       4.7       0.5       1.4
 3 C  dxy             0.3       0.1       3.0       0.4       5.3       0.1
 4 C  s               4.8       3.0       0.1       1.1       0.6       0.3
 4 C  px              0.7       0.2       0.2       0.1       0.2       0.0
 4 C  py              0.6       0.1       0.0       0.1       0.3       0.4
 4 C  dz2             5.4       3.8       0.1       2.5       0.0       0.3
 4 C  dx2y2           4.6       0.4       0.3       0.3       0.0       0.3
 4 C  dxy             6.3       0.4       0.3       0.0       0.2       0.0
 5 C  s               4.7       2.8       0.1       0.7       0.5       0.9
 5 C  px              0.7       0.0       0.1       0.0       1.6       0.0
 5 C  py              0.6       0.7       0.0       0.0       0.5       0.1
 5 C  dz2             5.5       3.7       0.0       1.3       0.1       0.5
 5 C  dx2y2           0.5       0.0       0.1       0.1       8.5       0.7
 5 C  dxy            10.6       2.0       0.0       0.1       0.5       1.5
 6 N  s               0.0       3.1       0.0       0.1       0.0       0.0
 6 N  px              0.0       0.1       0.0       0.0       0.1       0.0
 6 N  py              0.0       2.6       0.0       0.0       0.0       0.1
 6 N  dz2             0.0       3.3       0.0       0.1       0.0       0.0
 6 N  dx2y2           0.1       6.7       0.1       0.0       1.0       0.3
 6 N  dxy             1.0       0.6       0.7       0.0      11.7       0.0
 7 H  s               0.2       0.3       0.0       0.0       0.0       0.1
 8 H  s               0.3       0.1       0.0       0.2       0.0       0.0
 9 H  s               0.3       0.1       0.0       0.2       0.0       0.0
10 H  s               0.2       0.3       0.0       0.0       0.0       0.1
11 H  s               0.0       0.0       0.1       0.0       1.1       0.0
12 H  s               0.0       0.0       0.1       0.0       1.1       0.0
13 N  s               0.0       1.6       0.0      18.6       0.0       2.2
13 N  px              0.0       0.0       9.8       0.0       0.7       0.0
13 N  py              0.0       0.6       0.2       0.5       0.0       1.9
13 N  dz2             0.0       0.1       0.0      10.7       0.0       1.0
13 N  dxz             0.0       0.0       0.0       0.0       0.0       0.1
13 N  dx2y2           0.0       0.4       0.0       2.2       0.8      35.2
13 N  dxy             0.1       0.0       0.0       0.2       9.9       3.0
14 O  s               0.1       1.7      16.5       5.4       0.5       0.8
14 O  px              0.0       0.3       2.4       0.9       0.6       0.4
14 O  py              0.0       0.1       1.4       0.3       0.1       1.8
14 O  dz2             0.0       0.9       4.9       3.3       0.2       0.7
14 O  dx2y2           0.0       1.2       0.2       1.8       2.2       9.5
14 O  dxy             0.2       1.2      15.4       5.8       0.7       6.3
15 O  s               0.1       1.7      16.4       5.5       0.5       0.8
15 O  px              0.0       0.4       3.3       1.1       0.6       0.6
15 O  py              0.0       0.0       0.5       0.1       0.1       1.5
15 O  dz2             0.0       0.9       4.9       3.3       0.2       0.7
15 O  dx2y2           0.2       2.3       6.1       5.9       2.9       1.6
15 O  dxy             0.1       0.1       9.4       1.8       0.0      14.2

                    150       151   
                   3.21928   3.42204
                   0.00000   0.00000
                  --------  --------
 0 C  s               0.0       1.2
 0 C  px              0.2       0.1
 0 C  py              1.1       0.0
 0 C  dz2             0.0       0.8
 0 C  dx2y2           2.8       6.0
 0 C  dxy             1.1       5.7
 1 C  s               0.0       0.7
 1 C  px              0.5       0.0
 1 C  py              0.0       0.3
 1 C  dz2             0.0       0.6
 1 C  dx2y2           0.5      11.3
 1 C  dxy             6.1       1.0
 2 C  s               0.1       1.3
 2 C  px              1.5       0.1
 2 C  py              0.8       0.0
 2 C  dz2             0.0       0.8
 2 C  dx2y2           8.2       0.6
 2 C  dxy             0.0      12.2
 3 C  s               0.0       1.0
 3 C  px              1.1       0.0
 3 C  py              0.0       0.4
 3 C  dz2             0.0       0.6
 3 C  dx2y2           2.1      14.9
 3 C  dxy            25.4       1.3
 4 C  s               0.1       1.3
 4 C  px              0.9       0.1
 4 C  py              1.4       0.0
 4 C  dz2             0.0       0.8
 4 C  dx2y2           6.0       6.4
 4 C  dxy             2.3       6.4
 5 C  s               0.0       1.2
 5 C  px              0.5       0.0
 5 C  py              0.8       0.0
 5 C  dz2             0.0       0.8
 5 C  dx2y2           3.9       0.6
 5 C  dxy             0.0      11.1
 6 N  s               0.0       0.2
 6 N  py              0.0       0.4
 6 N  dx2y2           0.2       0.6
 6 N  dxy             2.0       0.1
 7 H  s               0.0       0.5
 8 H  s               0.0       0.6
 9 H  s               0.0       0.6
10 H  s               0.0       0.5
11 H  s               0.2       0.0
12 H  s               0.2       0.0
13 N  px              0.4       0.0
13 N  py              0.0       0.2
13 N  dx2y2           1.6       4.3
13 N  dxy            18.5       0.4
14 O  s               0.4       0.1
14 O  px              0.8       0.0
14 O  py              0.1       0.1
14 O  dx2y2           3.1       0.6
14 O  dxy             0.2       0.2
15 O  s               0.4       0.1
15 O  px              0.8       0.0
15 O  dx2y2           2.9       0.2
15 O  dxy             0.3       0.6


                      *****************************
                      * MAYER POPULATION ANALYSIS *
                      *****************************

  NA   - Mulliken gross atomic population
  ZA   - Total nuclear charge
  QA   - Mulliken gross atomic charge
  VA   - Mayer's total valence
  BVA  - Mayer's bonded valence
  FA   - Mayer's free valence

  ATOM       NA         ZA         QA         VA         BVA        FA
  0 C      6.1961     6.0000    -0.1961     3.8961     3.8961    -0.0000
  1 C      5.6110     6.0000     0.3890     3.8601     3.8601    -0.0000
  2 C      6.1527     6.0000    -0.1527     3.9141     3.9141    -0.0000
  3 C      5.7597     6.0000     0.2403     3.7953     3.7953    -0.0000
  4 C      6.1522     6.0000    -0.1522     3.9138     3.9138    -0.0000
  5 C      6.1968     6.0000    -0.1968     3.8965     3.8965     0.0000
  6 N      7.8080     7.0000    -0.8080     2.8747     2.8747     0.0000
  7 H      0.8695     1.0000     0.1305     0.9390     0.9390    -0.0000
  8 H      0.8227     1.0000     0.1773     0.9430     0.9430     0.0000
  9 H      0.8233     1.0000     0.1767     0.9433     0.9433    -0.0000
 10 H      0.8688     1.0000     0.1312     0.9389     0.9389    -0.0000
 11 H      0.6562     1.0000     0.3438     0.8526     0.8526    -0.0000
 12 H      0.6562     1.0000     0.3438     0.8526     0.8526    -0.0000
 13 N      6.6324     7.0000     0.3676     3.9330     3.9330    -0.0000
 14 O      8.3972     8.0000    -0.3972     1.9056     1.9056    -0.0000
 15 O      8.3972     8.0000    -0.3972     1.9057     1.9057    -0.0000

  Mayer bond orders larger than 0.1
B(  0-C ,  1-C ) :   1.3405 B(  0-C ,  2-C ) :   1.4794 B(  0-C ,  7-H ) :   0.9235 
B(  1-C ,  5-C ) :   1.3407 B(  1-C ,  6-N ) :   1.0465 B(  2-C ,  3-C ) :   1.3729 
B(  2-C ,  8-H ) :   0.9011 B(  3-C ,  4-C ) :   1.3728 B(  3-C , 13-N ) :   0.8445 
B(  4-C ,  5-C ) :   1.4795 B(  4-C ,  9-H ) :   0.9011 B(  5-C , 10-H ) :   0.9234 
B(  6-N , 11-H ) :   0.8384 B(  6-N , 12-H ) :   0.8383 B( 13-N , 14-O ) :   1.5213 
B( 13-N , 15-O ) :   1.5216 B( 14-O , 15-O ) :   0.2498 

-------
TIMINGS
-------

Total SCF time: 0 days 0 hours 0 min 30 sec 

Total time                  ....      30.482 sec
Sum of individual times     ....      30.176 sec  ( 99.0%)

Fock matrix formation       ....      28.013 sec  ( 91.9%)
  XC integration            ....       3.682 sec  ( 13.1% of F)
    Basis function eval.    ....       1.422 sec  ( 38.6% of XC)
    Density eval.           ....       0.962 sec  ( 26.1% of XC)
    XC-Functional eval.     ....       0.255 sec  (  6.9% of XC)
    XC-Potential eval.      ....       0.831 sec  ( 22.6% of XC)
Diagonalization             ....       0.006 sec  (  0.0%)
Density matrix formation    ....       0.004 sec  (  0.0%)
Population analysis         ....       0.056 sec  (  0.2%)
Initial guess               ....       0.007 sec  (  0.0%)
Orbital Transformation      ....       0.000 sec  (  0.0%)
Orbital Orthonormalization  ....       0.004 sec  (  0.0%)
DIIS solution               ....       0.001 sec  (  0.0%)
SOSCF solution              ....       0.019 sec  (  0.1%)
Grid generation             ....       2.070 sec  (  6.8%)

-------------------------   --------------------
FINAL SINGLE POINT ENERGY      -491.831032168459
-------------------------   --------------------

                                *** OPTIMIZATION RUN DONE ***

                            ***************************************
                            *     ORCA property calculations      *
                            ***************************************

                                    ---------------------
                                    Active property flags
                                    ---------------------
   (+) Dipole Moment


------------------------------------------------------------------------------
                       ORCA ELECTRIC PROPERTIES CALCULATION
------------------------------------------------------------------------------

Dipole Moment Calculation                       ... on
Quadrupole Moment Calculation                   ... off
Polarizability Calculation                      ... off
GBWName                                         ... /Users/lailaal-madhagi/Desktop/Testing_XAS_Analysis_code/ParaNitroAniline//Results_dir_ParaNitroAniline_geom_element_N_2019-11-16_12-39-08//GTE1_ParaNitroAniline_geom_2019-11-16_12-39-32//opt.gbw
Electron density file                           ... /Users/lailaal-madhagi/Desktop/Testing_XAS_Analysis_code/ParaNitroAniline//Results_dir_ParaNitroAniline_geom_element_N_2019-11-16_12-39-08//GTE1_ParaNitroAniline_geom_2019-11-16_12-39-32//opt.scfp.tmp
The origin for moment calculation is the CENTER OF MASS  = (-3.082981, -0.383724 -0.047960)

-------------
DIPOLE MOMENT
-------------
                                X             Y             Z
Electronic contribution:      1.03185      -7.23153      -0.10839
Nuclear contribution   :     -1.45353      10.18525       0.15498
                        -----------------------------------------
Total Dipole Moment    :     -0.42168       2.95372       0.04660
                        -----------------------------------------
Magnitude (a.u.)       :      2.98403
Magnitude (Debye)      :      7.58480



--------------------
Rotational spectrum 
--------------------
 
Rotational constants in cm-1:     0.130358     0.027381     0.022628 
Rotational constants in MHz :  3908.037360   820.853702   678.367719 

 Dipole components along the rotational axes: 
x,y,z [a.u.] :     2.984028    -0.000081     0.002626 
x,y,z [Debye]:     7.584797    -0.000206     0.006675 

 

Timings for individual modules:

Sum of individual times         ...      464.131 sec (=   7.736 min)
GTO integral calculation        ...        5.270 sec (=   0.088 min)   1.1 %
SCF iterations                  ...      305.625 sec (=   5.094 min)  65.8 %
SCF Gradient evaluation         ...      149.813 sec (=   2.497 min)  32.3 %
Geometry relaxation             ...        3.424 sec (=   0.057 min)   0.7 %
                             ****ORCA TERMINATED NORMALLY****
TOTAL RUN TIME: 0 days 0 hours 7 minutes 45 seconds 542 msec
