23
	Energy:      33.0316462
C         -2.70705        0.79617        0.09280
C         -1.51062        1.52849       -0.06614
C         -2.67754       -0.53609        0.51927
C         -1.46163       -1.16146        0.79424
C         -0.26947       -0.45514        0.64237
C         -0.29401        0.87525        0.21587
C         -2.64156        3.85802       -0.85477
H         -3.67354        1.21188       -0.10179
H         -3.60342       -1.08503        0.63598
H          0.67625       -0.93722        0.85445
H          0.64589        1.40275        0.10491
C         -3.50603        4.18236        0.34510
O         -4.18589        3.22310        1.00380
O         -3.59338        5.34205        0.72269
N         -3.43708        3.35029       -1.97598
H         -2.82076        3.18512       -2.80460
H         -3.94925        2.47369       -1.75404
H         -4.73845        3.42904        1.77109
C         -1.40338        2.97900       -0.52611
H         -2.21466        4.82943       -1.19612
H         -0.76986        2.97034       -1.44070
H         -0.83511        3.52592        0.25907
H         -1.44367       -2.19251        1.12395
