
                                 *****************
                                 * O   R   C   A *
                                 *****************

           --- An Ab Initio, DFT and Semiempirical electronic structure package ---

                  #######################################################
                  #                        -***-                        #
                  #          Department of theory and spectroscopy      #
                  #               Directorship: Frank Neese             #
                  #        Max Planck Institute fuer Kohlenforschung    #
                  #                Kaiser Wilhelm Platz 1               #
                  #                 D-45470 Muelheim/Ruhr               #
                  #                      Germany                        #
                  #                                                     #
                  #                  All rights reserved                #
                  #                        -***-                        #
                  #######################################################


                         Program Version 4.1.0  - RELEASE  -


 With contributions from (in alphabetic order):
   Daniel Aravena         : Magnetic Properties
   Michael Atanasov       : Ab Initio Ligand Field Theory
   Alexander A. Auer      : GIAO ZORA
   Ute Becker             : Parallelization
   Giovanni Bistoni       : ED, Open-shell LED
   Martin Brehm           : Molecular dynamics
   Dmytro Bykov           : SCF Hessian
   Vijay G. Chilkuri      : MRCI spin determinant printing
   Dipayan Datta          : RHF DLPNO-CCSD density
   Achintya Kumar Dutta   : EOM-CC, STEOM-CC
   Dmitry Ganyushin       : Spin-Orbit,Spin-Spin,Magnetic field MRCI
   Miquel Garcia          : C-PCM Hessian
   Yang Guo               : DLPNO-NEVPT2, CIM, IAO-localization
   Andreas Hansen         : Spin unrestricted coupled pair/coupled cluster methods
   Benjamin Helmich-Paris : CASSCF linear response (MC-RPA)
   Lee Huntington         : MR-EOM, pCC
   Robert Izsak           : Overlap fitted RIJCOSX, COSX-SCS-MP3, EOM
   Christian Kollmar      : KDIIS, OOCD, Brueckner-CCSD(T), CCSD density
   Simone Kossmann        : Meta GGA functionals, TD-DFT gradient, OOMP2, MP2 Hessian
   Martin Krupicka        : AUTO-CI
   Lucas Lang             : DCDCAS
   Dagmar Lenk            : GEPOL surface, SMD
   Dimitrios Liakos       : Extrapolation schemes; parallel MDCI
   Dimitrios Manganas     : ROCIS; embedding schemes
   Dimitrios Pantazis     : SARC Basis sets
   Taras Petrenko         : DFT Hessian,TD-DFT gradient, ASA, ECA, R-Raman, ABS, FL, XAS/XES, NRVS
   Peter Pinski           : DLPNO-MP2, DLPNO-MP2 Gradient
   Christoph Reimann      : Effective Core Potentials
   Marius Retegan         : Local ZFS, SOC
   Christoph Riplinger    : Optimizer, TS searches, QM/MM, DLPNO-CCSD(T), (RO)-DLPNO pert. Triples
   Tobias Risthaus        : Range-separated hybrids, TD-DFT gradient, RPA, STAB
   Michael Roemelt        : Restricted open shell CIS
   Masaaki Saitow         : Open-shell DLPNO
   Barbara Sandhoefer     : DKH picture change effects
   Avijit Sen             : IP-ROCIS
   Kantharuban Sivalingam : CASSCF convergence, NEVPT2, FIC-MRCI
   Bernardo de Souza      : ESD, SOC TD-DFT
   Georgi Stoychev        : AutoAux, RI-MP2 NMR
   Willem Van den Heuvel  : Paramagnetic NMR
   Boris Wezisla          : Elementary symmetry handling
   Frank Wennmohs         : Technical directorship


 We gratefully acknowledge several colleagues who have allowed us to
 interface, adapt or use parts of their codes:
   Stefan Grimme, W. Hujo, H. Kruse,             : VdW corrections, initial TS optimization,
                  C. Bannwarth                     DFT functionals, gCP, sTDA/sTD-DF
   Ed Valeev                                     : LibInt (2-el integral package), F12 methods
   Garnet Chan, S. Sharma, J. Yang, R. Olivares  : DMRG
   Ulf Ekstrom                                   : XCFun DFT Library
   Mihaly Kallay                                 : mrcc  (arbitrary order and MRCC methods)
   Andreas Klamt, Michael Diedenhofen            : otool_cosmo (COSMO solvation model)
   Jiri Pittner, Ondrej Demel                    : Mk-CCSD
   Frank Weinhold                                : gennbo (NPA and NBO analysis)
   Christopher J. Cramer and Donald G. Truhlar   : smd solvation model
   Lars Goerigk                                  : TD-DFT with DH, B97 family of functionals
   V. Asgeirsson, H. Jonsson                     : NEB implementation
   FAccTs GmbH                                   : IRC, NEB, NEB-TS, Multilevel


 Your calculation uses the libint2 library for the computation of 2-el integrals
 For citations please refer to: http://libint.valeyev.net

 This ORCA versions uses:
   CBLAS   interface :  Fast vector & matrix operations
   LAPACKE interface :  Fast linear algebra routines
   SCALAPACK package :  Parallel linear algebra routines




***************************************
The coordinates will be read from file: /Users/lailaal-madhagi/Desktop/Testing_XAS_Analysis_code/Imidazole/Liquid//1Imdz_2W.xyz
***************************************


Your calculation utilizes the atom-pairwise dispersion correction
with the Becke-Johnson damping scheme (D3BJ)
Cite in your paper:
S.Grimme, S.Ehrlich, L.Goerigk, J Comput Chem, (2011), 32, 1456–1465 
S.Grimme, J.Antony, S.Ehrlich and H.Krieg, J.Chem.Phys., 132, (2010), 154104 
   

----- Orbital basis set information -----
Your calculation utilizes the basis: ma-def2-SVP
   F. Weigend and R. Ahlrichs, Phys. Chem. Chem. Phys. 7, 3297 (2005).
   J. Zheng, X. Xu and D. G. Truhlar, Theor. Chem. Acc. 128, 295 (2011).

================================================================================
                                        WARNINGS
                       Please study these warnings very carefully!
================================================================================

INFO   : Checking CIS options ...

WARNING: CIS/ROCIS methods need fully converged wavefunctions
  ===> : Setting SCFConvForced true
         You can overwrite this default with %scf ConvForced false 


INFO   : the flag for use of LIBINT has been found!

================================================================================
                                       INPUT FILE
================================================================================
NAME = /Users/lailaal-madhagi/Desktop/Testing_XAS_Analysis_code/Imidazole/Liquid//Results_dir_Liquid_element_C_2019-11-05_23-18-50//LES1_1Imdz_2W.xyz_2019-11-05_23-19-17//TDDFT_C-edge.inp
|  1> #This is C K-edge calculation 
|  2> #This is a serial job 
|  3> 
|  4>  
|  5> ! B3LYP D3 ma-def2-SVP TIGHTSCF Grid3 FinalGrid5 
|  6> !NormalPrint 
|  7> %output 
|  8> Print[P_Basis] 2 
|  9> Print[P_MOS] 1 
| 10> end 
| 11> 
| 12> %tddft 
| 13> orbwin[0]=4,6,-1,-1 
| 14> nroots=20 
| 15> maxdim=200 
| 16> end 
| 17> *xyzfile 0 1 /Users/lailaal-madhagi/Desktop/Testing_XAS_Analysis_code/Imidazole/Liquid//1Imdz_2W.xyz                           ****END OF INPUT****
================================================================================

                       ****************************
                       * Single Point Calculation *
                       ****************************

---------------------------------
CARTESIAN COORDINATES (ANGSTROEM)
---------------------------------
  C     -0.014640   -0.325680   -1.085750
  C      0.835610    0.144040   -0.122700
  N     -1.255680   -0.366220   -0.494320
  C     -1.110920    0.072590    0.780280
  N      0.138830    0.392750    1.036560
  H     -2.126110   -0.670160   -0.916560
  H      0.150060   -0.634780   -2.102640
  H      1.896290    0.315270   -0.192970
  H     -1.933660    0.137240    1.473460
  O     -3.867310   -1.345080   -1.461780
  H     -4.100250   -2.279010   -1.405850
  H     -4.689690   -0.872490   -1.628480
  O      1.230430    1.251980    3.556200
  H      1.133630    2.209390    3.547140
  H      0.863450    0.950340    2.697240

----------------------------
CARTESIAN COORDINATES (A.U.)
----------------------------
  NO LB      ZA    FRAG     MASS         X           Y           Z
   0 C     6.0000    0    12.011   -0.027666   -0.615446   -2.051770
   1 C     6.0000    0    12.011    1.579074    0.272196   -0.231869
   2 N     7.0000    0    14.007   -2.372891   -0.692056   -0.934129
   3 C     6.0000    0    12.011   -2.099335    0.137175    1.474516
   4 N     7.0000    0    14.007    0.262351    0.742190    1.958815
   5 H     1.0000    0     1.008   -4.017766   -1.266419   -1.732047
   6 H     1.0000    0     1.008    0.283572   -1.199560   -3.973414
   7 H     1.0000    0     1.008    3.583469    0.595774   -0.364660
   8 H     1.0000    0     1.008   -3.654088    0.259346    2.784436
   9 O     8.0000    0    15.999   -7.308157   -2.541833   -2.762364
  10 H     1.0000    0     1.008   -7.748350   -4.306705   -2.656671
  11 H     1.0000    0     1.008   -8.862230   -1.648767   -3.077381
  12 O     8.0000    0    15.999    2.325176    2.365899    6.720244
  13 H     1.0000    0     1.008    2.142250    4.175142    6.703123
  14 H     1.0000    0     1.008    1.631684    1.795882    5.097045

--------------------------------
INTERNAL COORDINATES (ANGSTROEM)
--------------------------------
 C      0   0   0     0.000000000000     0.00000000     0.00000000
 C      1   0   0     1.367854978936     0.00000000     0.00000000
 N      1   2   0     1.375359305091   105.56026718     0.00000000
 C      3   1   2     1.355770937032   107.36076232     0.00000000
 N      4   3   1     1.315316283827   111.30977902     0.18045661
 H      3   1   2     1.014058443138   127.17955736   180.34132591
 H      1   2   3     1.075515770270   132.00413857   180.76407723
 H      2   1   3     1.076707782177   128.38936335   179.74612107
 H      4   3   1     1.077765856993   122.85835111   180.34099882
 O      6   3   1     1.945394380274   171.47388296   147.56551373
 H     10   6   3     0.964165158777   122.41406057   296.86473755
 H     10   6   3     0.963036376520   129.98413205   101.42982570
 O      5   4   3     2.877230001668   127.14235127   183.77516005
 H     13   5   4     0.962333742368   104.51869258   270.49113694
 H     13   5   4     0.981566753512     0.59019426   113.12347765

---------------------------
INTERNAL COORDINATES (A.U.)
---------------------------
 C      0   0   0     0.000000000000     0.00000000     0.00000000
 C      1   0   0     2.584871301110     0.00000000     0.00000000
 N      1   2   0     2.599052422362   105.56026718     0.00000000
 C      3   1   2     2.562035771320   107.36076232     0.00000000
 N      4   3   1     2.485587555920   111.30977902     0.18045661
 H      3   1   2     1.916292741322   127.17955736   180.34132591
 H      1   2   3     2.032430258524   132.00413857   180.76407723
 H      2   1   3     2.034682834576   128.38936335   179.74612107
 H      4   3   1     2.036682306208   122.85835111   180.34099882
 O      6   3   1     3.676262601187   171.47388296   147.56551373
 H     10   6   3     1.822008097958   122.41406057   296.86473755
 H     10   6   3     1.819875008626   129.98413205   101.42982570
 O      5   4   3     5.437176727455   127.14235127   183.77516005
 H     13   5   4     1.818547222507   104.51869258   270.49113694
 H     13   5   4     1.854892346300     0.59019426   113.12347765

---------------------
BASIS SET INFORMATION
---------------------
There are 4 groups of distinct atoms

 Group   1 Type C   : 8s5p1d contracted to 4s3p1d pattern {5111/311/1}
 Group   2 Type N   : 8s5p1d contracted to 4s3p1d pattern {5111/311/1}
 Group   3 Type H   : 4s1p contracted to 2s1p pattern {31/1}
 Group   4 Type O   : 8s5p1d contracted to 4s3p1d pattern {5111/311/1}

Atom   0C    basis set group =>   1
Atom   1C    basis set group =>   1
Atom   2N    basis set group =>   2
Atom   3C    basis set group =>   1
Atom   4N    basis set group =>   2
Atom   5H    basis set group =>   3
Atom   6H    basis set group =>   3
Atom   7H    basis set group =>   3
Atom   8H    basis set group =>   3
Atom   9O    basis set group =>   4
Atom  10H    basis set group =>   3
Atom  11H    basis set group =>   3
Atom  12O    basis set group =>   4
Atom  13H    basis set group =>   3
Atom  14H    basis set group =>   3

-------------------------
BASIS SET IN INPUT FORMAT
-------------------------

 # Basis set for element : H 
 NewGTO H 
 S 3 
   1      13.0107010000      0.0334854848
   2       1.9622572000      0.2347218709
   3       0.4445379600      0.8137702853
 S 1 
   1       0.1219496200      1.0000000000
 P 1 
   1       0.8000000000      1.0000000000
  end;

 # Basis set for element : C 
 NewGTO C 
 S 5 
   1    1238.4016938000      0.0055173650
   2     186.2900499200      0.0410888285
   3      42.2511763460      0.1822538213
   4      11.6765579320      0.4682845944
   5       3.5930506482      0.4457581734
 S 1 
   1       0.4024514736      1.0000000000
 S 1 
   1       0.1309018267      1.0000000000
 P 3 
   1       9.4680970621      0.0568883320
   2       2.0103545142      0.3129405934
   3       0.5477100471      0.7606501651
 P 1 
   1       0.1526861379      1.0000000000
 D 1 
   1       0.8000000000      1.0000000000
 S 1 
   1       0.0436339422      1.0000000000
 P 1 
   1       0.0508953793      1.0000000000
  end;

 # Basis set for element : N 
 NewGTO N 
 S 5 
   1    1712.8415853000     -0.0054477995
   2     257.6481267700     -0.0406271746
   3      58.4582458530     -0.1811196225
   4      16.1983679050     -0.4684397556
   5       5.0052600809     -0.4461684629
 S 1 
   1       0.5873185657      1.0000000000
 S 1 
   1       0.1876459225      1.0000000000
 P 3 
   1      13.5714702330     -0.0588481170
   2       2.9257372874     -0.3202462476
   3       0.7992775075     -0.7532822652
 P 1 
   1       0.2195434803      1.0000000000
 D 1 
   1       1.0000000000      1.0000000000
 S 1 
   1       0.0625486408      1.0000000000
 P 1 
   1       0.0731811601      1.0000000000
  end;

 # Basis set for element : O 
 NewGTO O 
 S 5 
   1    2266.1767785000     -0.0053893504
   2     340.8701019100     -0.0402347214
   3      77.3631351670     -0.1800818421
   4      21.4796449400     -0.4682885766
   5       6.6589433124     -0.4469261716
 S 1 
   1       0.8097597567      1.0000000000
 S 1 
   1       0.2553077223      1.0000000000
 P 3 
   1      17.7215043170      0.0626302488
   2       3.8635505440      0.3333113849
   3       1.0480920883      0.7414863830
 P 1 
   1       0.2764154441      1.0000000000
 D 1 
   1       1.2000000000      1.0000000000
 S 1 
   1       0.0851025741      1.0000000000
 P 1 
   1       0.0921384814      1.0000000000
  end;

------------------------------------------------------------------------------
                           ORCA GTO INTEGRAL CALCULATION
------------------------------------------------------------------------------

                         BASIS SET STATISTICS AND STARTUP INFO

 # of primitive gaussian shells          ...  138
 # of primitive gaussian functions       ...  252
 # of contracted shells                  ...   80
 # of contracted basis functions         ...  166
 Highest angular momentum                ...    2
 Maximum contraction depth               ...    5
 Integral package used                   ... LIBINT
 Integral threshhold            Thresh   ...  2.500e-11
 Primitive cut-off              TCut     ...  2.500e-12


------------------------------ INTEGRAL EVALUATION ----------------------------


 * One electron integrals 
 Pre-screening matrix                    ... done
 Shell pair data                         ... done (   0.001 sec)

-------------------------------------------------------------------------------
                                 ORCA SCF
-------------------------------------------------------------------------------

------------
SCF SETTINGS
------------
Hamiltonian:
 Density Functional     Method          .... DFT(GTOs)
 Exchange Functional    Exchange        .... B88
   X-Alpha parameter    XAlpha          ....  0.666667
   Becke's b parameter  XBeta           ....  0.004200
 Correlation Functional Correlation     .... LYP
 LDA part of GGA corr.  LDAOpt          .... VWN-5
 Gradients option       PostSCFGGA      .... off
 Hybrid DFT is turned on
   Fraction HF Exchange ScalHFX         ....  0.200000
   Scaling of DF-GGA-X  ScalDFX         ....  0.720000
   Scaling of DF-GGA-C  ScalDFC         ....  0.810000
   Scaling of DF-LDA-C  ScalLDAC        ....  1.000000
   Perturbative correction              ....  0.000000
   Density functional embedding theory  .... OFF
   NL short-range parameter             ....  4.800000


General Settings:
 Integral files         IntName         .... /Users/lailaal-madhagi/Desktop/Testing_XAS_Analysis_code/Imidazole/Liquid//Results_dir_Liquid_element_C_2019-11-05_23-18-50//LES1_1Imdz_2W.xyz_2019-11-05_23-19-17//TDDFT_C-edge
 Hartree-Fock type      HFTyp           .... RHF
 Total Charge           Charge          ....    0
 Multiplicity           Mult            ....    1
 Number of Electrons    NEL             ....   56
 Basis Dimension        Dim             ....  166
 Nuclear Repulsion      ENuc            ....    284.6013516540 Eh

Convergence Acceleration:
 DIIS                   CNVDIIS         .... on
   Start iteration      DIISMaxIt       ....    12
   Startup error        DIISStart       ....  0.200000
   # of expansion vecs  DIISMaxEq       ....     5
   Bias factor          DIISBfac        ....   1.050
   Max. coefficient     DIISMaxC        ....  10.000
 Newton-Raphson         CNVNR           .... off
 SOSCF                  CNVSOSCF        .... on
   Start iteration      SOSCFMaxIt      ....   150
   Startup grad/error   SOSCFStart      ....  0.003300
 Level Shifting         CNVShift        .... on
   Level shift para.    LevelShift      ....    0.2500
   Turn off err/grad.   ShiftErr        ....    0.0010
 Zerner damping         CNVZerner       .... off
 Static damping         CNVDamp         .... on
   Fraction old density DampFac         ....    0.7000
   Max. Damping (<1)    DampMax         ....    0.9800
   Min. Damping (>=0)   DampMin         ....    0.0000
   Turn off err/grad.   DampErr         ....    0.1000
 Fernandez-Rico         CNVRico         .... off

SCF Procedure:
 Maximum # iterations   MaxIter         ....   125
 SCF integral mode      SCFMode         .... Direct
   Integral package                     .... LIBINT
 Reset frequency        DirectResetFreq ....    20
 Integral Threshold     Thresh          ....  2.500e-11 Eh
 Primitive CutOff       TCut            ....  2.500e-12 Eh

Convergence Tolerance:
 Convergence Check Mode ConvCheckMode   .... Total+1el-Energy
 Convergence forced     ConvForced      .... 1
 Energy Change          TolE            ....  1.000e-08 Eh
 1-El. energy change                    ....  1.000e-05 Eh
 Orbital Gradient       TolG            ....  1.000e-05
 Orbital Rotation angle TolX            ....  1.000e-05
 DIIS Error             TolErr          ....  5.000e-07


Diagonalization of the overlap matrix:
Smallest eigenvalue                        ... 8.695e-05
Time for diagonalization                   ...    0.004 sec
Threshold for overlap eigenvalues          ... 1.000e-08
Number of eigenvalues below threshold      ... 0
Time for construction of square roots      ...    0.003 sec
Total time needed                          ...    0.008 sec

-------------------
DFT GRID GENERATION
-------------------

General Integration Accuracy     IntAcc      ...  4.340
Radial Grid Type                 RadialGrid  ... Gauss-Chebyshev
Angular Grid (max. acc.)         AngularGrid ... Lebedev-194
Angular grid pruning method      GridPruning ... 3 (G Style)
Weight generation scheme         WeightScheme... Becke
Basis function cutoff            BFCut       ...    1.0000e-11
Integration weight cutoff        WCut        ...    1.0000e-14
Grids for H and He will be reduced by one unit

# of grid points (after initial pruning)     ...  35446 (   0.0 sec)
# of grid points (after weights+screening)   ...  33389 (   0.1 sec)
nearest neighbour list constructed           ...    0.0 sec
Grid point re-assignment to atoms done       ...    0.0 sec
Grid point division into batches done        ...    0.1 sec
Reduced shell lists constructed in    0.3 sec

Total number of grid points                  ...    33389
Total number of batches                      ...      527
Average number of points per batch           ...       63
Average number of grid points per atom       ...     2226
Average number of shells per batch           ...    54.22 (67.77%)
Average number of basis functions per batch  ...   108.69 (65.48%)
Average number of large shells per batch     ...    43.33 (79.92%)
Average number of large basis fcns per batch ...    87.05 (80.09%)
Maximum spatial batch extension              ...  17.38, 21.21, 19.76 au
Average spatial batch extension              ...   3.12,  3.24,  3.14 au

Time for grid setup =    0.376 sec

------------------------------
INITIAL GUESS: MODEL POTENTIAL
------------------------------
Loading Hartree-Fock densities                     ... done
Calculating cut-offs                               ... done
Setting up the integral package                    ... done
Initializing the effective Hamiltonian             ... done
Starting the Coulomb interaction                   ... done (   0.1 sec)
Reading the grid                                   ... done
Mapping shells                                     ... done
Starting the XC term evaluation                    ... done (   0.4 sec)
  promolecular density results
     # of electrons  =     55.997178222
     EX              =    -47.352218620
     EC              =     -1.899456573
     EX+EC           =    -49.251675193
Transforming the Hamiltonian                       ... done (   0.0 sec)
Diagonalizing the Hamiltonian                      ... done (   0.0 sec)
Back transforming the eigenvectors                 ... done (   0.0 sec)
Now organizing SCF variables                       ... done
                      ------------------
                      INITIAL GUESS DONE (   1.0 sec)
                      ------------------
--------------
SCF ITERATIONS
--------------
               ***  Starting incremental Fock matrix formation  ***

                         ----------------------------
                         !        ITERATION     0   !
                         ----------------------------
   Total Energy        :    -378.348262061867 Eh
   Energy Change       :    -378.348262061867 Eh
   MAX-DP              :       0.091107970921
   RMS-DP              :       0.002783755214
   Actual Damping      :       0.7000
   Actual Level Shift  :       0.2500 Eh
   Int. Num. El.       :    56.00045828 (UP=   28.00022914 DN=   28.00022914)
   Exchange            :   -38.97492898
   Correlation         :    -2.28064222


                         ----------------------------
                         !        ITERATION     1   !
                         ----------------------------
   Total Energy        :    -378.487971638306 Eh
   Energy Change       :      -0.139709576439 Eh
   MAX-DP              :       0.049314732740
   RMS-DP              :       0.001816756531
   Actual Damping      :       0.7000
   Actual Level Shift  :       0.2500 Eh
   Int. Num. El.       :    56.00061384 (UP=   28.00030692 DN=   28.00030692)
   Exchange            :   -38.51936061
   Correlation         :    -2.26411306

                               ***Turning on DIIS***

                         ----------------------------
                         !        ITERATION     2   !
                         ----------------------------
   Total Energy        :    -378.535564568228 Eh
   Energy Change       :      -0.047592929922 Eh
   MAX-DP              :       0.062939719519
   RMS-DP              :       0.002680037942
   Actual Damping      :       0.0000
   Actual Level Shift  :       0.2500 Eh
   Int. Num. El.       :    56.00071398 (UP=   28.00035699 DN=   28.00035699)
   Exchange            :   -38.25367265
   Correlation         :    -2.25390883
   DIIS-Error          :       0.032579138088


                         ----------------------------
                         !        ITERATION     3   !
                         ----------------------------
   Total Energy        :    -378.615301710612 Eh
   Energy Change       :      -0.079737142384 Eh
   MAX-DP              :       0.034461470862
   RMS-DP              :       0.001231001861
   Actual Damping      :       0.0000
   Actual Level Shift  :       0.2500 Eh
   Int. Num. El.       :    56.00084545 (UP=   28.00042273 DN=   28.00042273)
   Exchange            :   -37.95252358
   Correlation         :    -2.24160008
   DIIS-Error          :       0.070585579145
   DIIS coefficients:
      0.65310   0.34690


                         ----------------------------
                         !        ITERATION     4   !
                         ----------------------------
   Total Energy        :    -378.632916529117 Eh
   Energy Change       :      -0.017614818505 Eh
   MAX-DP              :       0.009569793087
   RMS-DP              :       0.000397238319
   Actual Damping      :       0.0000
   Actual Level Shift  :       0.2500 Eh
   Int. Num. El.       :    56.00078586 (UP=   28.00039293 DN=   28.00039293)
   Exchange            :   -38.12209876
   Correlation         :    -2.24828866
   DIIS-Error          :       0.011337735353
   DIIS coefficients:
      0.24885   0.02126   0.72989


                         ----------------------------
                         !        ITERATION     5   !
                         ----------------------------
   Total Energy        :    -378.633762308161 Eh
   Energy Change       :      -0.000845779044 Eh
   MAX-DP              :       0.004321430319
   RMS-DP              :       0.000146357121
   Actual Damping      :       0.0000
   Actual Level Shift  :       0.2500 Eh
   Int. Num. El.       :    56.00077646 (UP=   28.00038823 DN=   28.00038823)
   Exchange            :   -38.14476778
   Correlation         :    -2.24941311
   DIIS-Error          :       0.004084451049
   DIIS coefficients:
      0.06708  -0.01625   0.15008   0.79909

                      *** Initiating the SOSCF procedure ***
                           *** Shutting down DIIS ***
                      *** Re-Reading the Fockian *** 
                      *** Removing any level shift *** 

                         ----------------------------
                         !        ITERATION     6   !
                         ----------------------------
   Total Energy        :    -378.633822620017 Eh
   Energy Change       :      -0.000060311856 Eh
   MAX-DP              :       0.002140516773
   RMS-DP              :       0.000070242878
   Orbital gradient    :       0.000261234748
   Orbital Rotation    :       0.000261234748
   Actual Damping      :       0.0000
   Int. Num. El.       :    56.00077380 (UP=   28.00038690 DN=   28.00038690)
   Exchange            :   -38.15226662
   Correlation         :    -2.24970202

               *** Restarting incremental Fock matrix formation ***

                         ----------------------------
                         !        ITERATION     7   !
                         ----------------------------
   Total Energy        :    -378.633827586369 Eh
   Energy Change       :      -0.000004966352 Eh
   MAX-DP              :       0.002253662329
   RMS-DP              :       0.000067859386
   Orbital gradient    :       0.000147690634
   Orbital Rotation    :       0.000468823296
   Actual Damping      :       0.0000
   Int. Num. El.       :    56.00077369 (UP=   28.00038685 DN=   28.00038685)
   Exchange            :   -38.15365364
   Correlation         :    -2.24975911


                         ----------------------------
                         !        ITERATION     8   !
                         ----------------------------
   Total Energy        :    -378.633827576735 Eh
   Energy Change       :       0.000000009634 Eh
   MAX-DP              :       0.000562457486
   RMS-DP              :       0.000017926020
   Orbital gradient    :       0.000294746398
   Orbital Rotation    :       0.000398377015
   Actual Damping      :       0.0000
   Int. Num. El.       :    56.00077379 (UP=   28.00038689 DN=   28.00038689)
   Exchange            :   -38.15405260
   Correlation         :    -2.24979086


                         ----------------------------
                         !        ITERATION     9   !
                         ----------------------------
   Total Energy        :    -378.633828687845 Eh
   Energy Change       :      -0.000001111110 Eh
   MAX-DP              :       0.000464080668
   RMS-DP              :       0.000012219042
   Orbital gradient    :       0.000067040139
   Orbital Rotation    :       0.000138586522
   Actual Damping      :       0.0000
   Int. Num. El.       :    56.00077370 (UP=   28.00038685 DN=   28.00038685)
   Exchange            :   -38.15410239
   Correlation         :    -2.24978850


                         ----------------------------
                         !        ITERATION    10   !
                         ----------------------------
   Total Energy        :    -378.633828636368 Eh
   Energy Change       :       0.000000051478 Eh
   MAX-DP              :       0.000145942277
   RMS-DP              :       0.000003911791
   Orbital gradient    :       0.000069307349
   Orbital Rotation    :       0.000089647301
   Actual Damping      :       0.0000
   Int. Num. El.       :    56.00077380 (UP=   28.00038690 DN=   28.00038690)
   Exchange            :   -38.15384597
   Correlation         :    -2.24977318


                         ----------------------------
                         !        ITERATION    11   !
                         ----------------------------
   Total Energy        :    -378.633828769922 Eh
   Energy Change       :      -0.000000133555 Eh
   MAX-DP              :       0.000060654049
   RMS-DP              :       0.000002088182
   Orbital gradient    :       0.000011683104
   Orbital Rotation    :       0.000019806564
   Actual Damping      :       0.0000
   Int. Num. El.       :    56.00077375 (UP=   28.00038687 DN=   28.00038687)
   Exchange            :   -38.15391351
   Correlation         :    -2.24977890


                         ----------------------------
                         !        ITERATION    12   !
                         ----------------------------
   Total Energy        :    -378.633828768327 Eh
   Energy Change       :       0.000000001595 Eh
   MAX-DP              :       0.000021811703
   RMS-DP              :       0.000000814608
   Orbital gradient    :       0.000010423398
   Orbital Rotation    :       0.000009331078
   Actual Damping      :       0.0000
   Int. Num. El.       :    56.00077374 (UP=   28.00038687 DN=   28.00038687)
   Exchange            :   -38.15402258
   Correlation         :    -2.24978348

                  ***Gradient check signals convergence***
              ***Rediagonalizing the Fockian in SOSCF/NRSCF***

               *****************************************************
               *                     SUCCESS                       *
               *           SCF CONVERGED AFTER  13 CYCLES          *
               *****************************************************

Setting up the final grid:

General Integration Accuracy     IntAcc      ...  5.010
Radial Grid Type                 RadialGrid  ... Gauss-Chebyshev
Angular Grid (max. acc.)         AngularGrid ... Lebedev-434
Angular grid pruning method      GridPruning ... 3 (G Style)
Weight generation scheme         WeightScheme... Becke
Basis function cutoff            BFCut       ...    1.0000e-11
Integration weight cutoff        WCut        ...    1.0000e-14
Grids for H and He will be reduced by one unit

# of grid points (after initial pruning)     ... 128494 (   0.1 sec)
# of grid points (after weights+screening)   ... 120119 (   0.3 sec)
nearest neighbour list constructed           ...    0.0 sec
Grid point re-assignment to atoms done       ...    0.0 sec
Grid point division into batches done        ...    0.8 sec
Reduced shell lists constructed in    1.6 sec

Total number of grid points                  ...   120119
Total number of batches                      ...     1885
Average number of points per batch           ...       63
Average number of grid points per atom       ...     8008
Average number of shells per batch           ...    50.88 (63.60%)
Average number of basis functions per batch  ...   101.30 (61.03%)
Average number of large shells per batch     ...    40.16 (78.93%)
Average number of large basis fcns per batch ...    80.25 (79.22%)
Maximum spatial batch extension              ...  19.91, 18.09, 17.17 au
Average spatial batch extension              ...   2.11,  2.11,  2.10 au

Final grid set up in    1.9 sec
Final integration                            ... done (   1.6 sec)
Change in XC energy                          ...    -0.000038113
Integrated number of electrons               ...    55.999991387
Previous integrated no of electrons          ...    56.000773739

----------------
TOTAL SCF ENERGY
----------------

Total Energy       :         -378.63386689 Eh          -10303.15132 eV

Components:
Nuclear Repulsion  :          284.60135165 Eh            7744.39650 eV
Electronic Energy  :         -663.23521854 Eh          -18047.54782 eV
One Electron Energy:        -1079.35563990 Eh          -29370.76014 eV
Two Electron Energy:          416.12042136 Eh           11323.21233 eV

Virial components:
Potential Energy   :         -753.92686100 Eh          -20515.39287 eV
Kinetic Energy     :          375.29299412 Eh           10212.24155 eV
Virial Ratio       :            2.00890204


DFT components:
N(Alpha)           :       27.999995693656 electrons
N(Beta)            :       27.999995693656 electrons
N(Total)           :       55.999991387311 electrons
E(X)               :      -38.153977894415 Eh       
E(C)               :       -2.249803417790 Eh       
E(XC)              :      -40.403781312205 Eh       
DFET-embed. en.    :        0.000000000000 Eh       

---------------
SCF CONVERGENCE
---------------

  Last Energy change         ...   -3.8320e-09  Tolerance :   1.0000e-08
  Last MAX-Density change    ...    6.2457e-06  Tolerance :   1.0000e-07
  Last RMS-Density change    ...    1.9559e-07  Tolerance :   5.0000e-09
  Last Orbital Gradient      ...    6.9157e-07  Tolerance :   1.0000e-05
  Last Orbital Rotation      ...    2.1279e-06  Tolerance :   1.0000e-05

             **** THE GBW FILE WAS UPDATED (/Users/lailaal-madhagi/Desktop/Testing_XAS_Analysis_code/Imidazole/Liquid//Results_dir_Liquid_element_C_2019-11-05_23-18-50//LES1_1Imdz_2W.xyz_2019-11-05_23-19-17//TDDFT_C-edge.gbw) ****
             **** DENSITY FILE WAS UPDATED (/Users/lailaal-madhagi/Desktop/Testing_XAS_Analysis_code/Imidazole/Liquid//Results_dir_Liquid_element_C_2019-11-05_23-18-50//LES1_1Imdz_2W.xyz_2019-11-05_23-19-17//TDDFT_C-edge.scfp.tmp) ****
             **** ENERGY FILE WAS UPDATED (/Users/lailaal-madhagi/Desktop/Testing_XAS_Analysis_code/Imidazole/Liquid//Results_dir_Liquid_element_C_2019-11-05_23-18-50//LES1_1Imdz_2W.xyz_2019-11-05_23-19-17//TDDFT_C-edge.en.tmp) ****
----------------
ORBITAL ENERGIES
----------------

  NO   OCC          E(Eh)            E(eV) 
   0   2.0000     -19.195782      -522.3438 
   1   2.0000     -19.085097      -519.3319 
   2   2.0000     -14.382925      -391.3793 
   3   2.0000     -14.315689      -389.5497 
   4   2.0000     -10.242988      -278.7259 
   5   2.0000     -10.216713      -278.0109 
   6   2.0000     -10.200914      -277.5810 
   7   2.0000      -1.051030       -28.6000 
   8   2.0000      -1.014621       -27.6093 
   9   2.0000      -0.940166       -25.5832 
  10   2.0000      -0.866248       -23.5718 
  11   2.0000      -0.742711       -20.2102 
  12   2.0000      -0.614263       -16.7149 
  13   2.0000      -0.593443       -16.1484 
  14   2.0000      -0.586186       -15.9509 
  15   2.0000      -0.566312       -15.4101 
  16   2.0000      -0.479329       -13.0432 
  17   2.0000      -0.461119       -12.5477 
  18   2.0000      -0.442821       -12.0498 
  19   2.0000      -0.439420       -11.9572 
  20   2.0000      -0.429669       -11.6919 
  21   2.0000      -0.415999       -11.3199 
  22   2.0000      -0.368804       -10.0357 
  23   2.0000      -0.341316        -9.2877 
  24   2.0000      -0.293104        -7.9758 
  25   2.0000      -0.280020        -7.6197 
  26   2.0000      -0.262925        -7.1545 
  27   2.0000      -0.240478        -6.5437 
  28   0.0000      -0.015097        -0.4108 
  29   0.0000       0.011233         0.3057 
  30   0.0000       0.025574         0.6959 
  31   0.0000       0.035656         0.9702 
  32   0.0000       0.042901         1.1674 
  33   0.0000       0.054630         1.4866 
  34   0.0000       0.063293         1.7223 
  35   0.0000       0.064584         1.7574 
  36   0.0000       0.072198         1.9646 
  37   0.0000       0.087272         2.3748 
  38   0.0000       0.093941         2.5563 
  39   0.0000       0.110518         3.0073 
  40   0.0000       0.114353         3.1117 
  41   0.0000       0.123247         3.3537 
  42   0.0000       0.133017         3.6196 
  43   0.0000       0.143055         3.8927 
  44   0.0000       0.154708         4.2098 
  45   0.0000       0.165923         4.5150 
  46   0.0000       0.178015         4.8440 
  47   0.0000       0.187157         5.0928 
  48   0.0000       0.196338         5.3426 
  49   0.0000       0.209762         5.7079 
  50   0.0000       0.214784         5.8446 
  51   0.0000       0.217576         5.9205 
  52   0.0000       0.230848         6.2817 
  53   0.0000       0.235496         6.4082 
  54   0.0000       0.242854         6.6084 
  55   0.0000       0.247619         6.7381 
  56   0.0000       0.258456         7.0329 
  57   0.0000       0.267212         7.2712 
  58   0.0000       0.270451         7.3593 
  59   0.0000       0.274347         7.4654 
  60   0.0000       0.289791         7.8856 
  61   0.0000       0.300130         8.1670 
  62   0.0000       0.305876         8.3233 
  63   0.0000       0.319896         8.7048 
  64   0.0000       0.326201         8.8764 
  65   0.0000       0.341255         9.2860 
  66   0.0000       0.382940        10.4203 
  67   0.0000       0.438550        11.9336 
  68   0.0000       0.455403        12.3921 
  69   0.0000       0.473452        12.8833 
  70   0.0000       0.523867        14.2551 
  71   0.0000       0.606127        16.4936 
  72   0.0000       0.644550        17.5391 
  73   0.0000       0.667282        18.1577 
  74   0.0000       0.672088        18.2884 
  75   0.0000       0.678062        18.4510 
  76   0.0000       0.686845        18.6900 
  77   0.0000       0.702171        19.1071 
  78   0.0000       0.725626        19.7453 
  79   0.0000       0.734140        19.9770 
  80   0.0000       0.753340        20.4994 
  81   0.0000       0.781075        21.2541 
  82   0.0000       0.791621        21.5411 
  83   0.0000       0.815194        22.1826 
  84   0.0000       0.837470        22.7887 
  85   0.0000       0.859233        23.3809 
  86   0.0000       0.868560        23.6347 
  87   0.0000       0.925280        25.1781 
  88   0.0000       0.952224        25.9113 
  89   0.0000       0.971542        26.4370 
  90   0.0000       1.004653        27.3380 
  91   0.0000       1.048482        28.5306 
  92   0.0000       1.056805        28.7571 
  93   0.0000       1.076736        29.2995 
  94   0.0000       1.085063        29.5261 
  95   0.0000       1.114439        30.3254 
  96   0.0000       1.126213        30.6458 
  97   0.0000       1.152447        31.3597 
  98   0.0000       1.165183        31.7062 
  99   0.0000       1.186896        32.2971 
 100   0.0000       1.202934        32.7335 
 101   0.0000       1.205137        32.7934 
 102   0.0000       1.224090        33.3092 
 103   0.0000       1.266902        34.4742 
 104   0.0000       1.284390        34.9500 
 105   0.0000       1.289227        35.0816 
 106   0.0000       1.321084        35.9485 
 107   0.0000       1.334222        36.3060 
 108   0.0000       1.373354        37.3709 
 109   0.0000       1.391448        37.8632 
 110   0.0000       1.429200        38.8905 
 111   0.0000       1.448288        39.4099 
 112   0.0000       1.470551        40.0157 
 113   0.0000       1.527123        41.5551 
 114   0.0000       1.544044        42.0156 
 115   0.0000       1.606723        43.7212 
 116   0.0000       1.658707        45.1357 
 117   0.0000       1.674437        45.5637 
 118   0.0000       1.706585        46.4385 
 119   0.0000       1.715774        46.6886 
 120   0.0000       1.752258        47.6814 
 121   0.0000       1.773060        48.2474 
 122   0.0000       1.803742        49.0823 
 123   0.0000       1.851937        50.3938 
 124   0.0000       1.861576        50.6560 
 125   0.0000       1.917776        52.1853 
 126   0.0000       1.924738        52.3748 
 127   0.0000       1.988476        54.1092 
 128   0.0000       2.001587        54.4659 
 129   0.0000       2.038298        55.4649 
 130   0.0000       2.053491        55.8783 
 131   0.0000       2.084867        56.7321 
 132   0.0000       2.162452        58.8433 
 133   0.0000       2.200409        59.8762 
 134   0.0000       2.214915        60.2709 
 135   0.0000       2.255285        61.3694 
 136   0.0000       2.275126        61.9093 
 137   0.0000       2.299808        62.5810 
 138   0.0000       2.394393        65.1547 
 139   0.0000       2.430674        66.1420 
 140   0.0000       2.485806        67.6422 
 141   0.0000       2.489438        67.7411 
 142   0.0000       2.512677        68.3734 
 143   0.0000       2.547984        69.3342 
 144   0.0000       2.672775        72.7299 
 145   0.0000       2.750893        74.8556 
 146   0.0000       2.779643        75.6379 
 147   0.0000       2.802884        76.2703 
 148   0.0000       2.871474        78.1368 
 149   0.0000       2.874700        78.2246 
 150   0.0000       2.907718        79.1230 
 151   0.0000       2.937739        79.9399 
 152   0.0000       2.976645        80.9986 
 153   0.0000       2.988929        81.3329 
 154   0.0000       3.023820        82.2823 
 155   0.0000       3.043334        82.8133 
 156   0.0000       3.123753        85.0016 
 157   0.0000       3.156909        85.9039 
 158   0.0000       3.225402        87.7677 
 159   0.0000       3.365323        91.5751 
 160   0.0000       3.420719        93.0825 
 161   0.0000       3.463210        94.2387 
 162   0.0000       3.637753        98.9883 
 163   0.0000       3.664943        99.7282 
 164   0.0000       3.796681       103.3130 
 165   0.0000       3.944735       107.3417 
------------------
MOLECULAR ORBITALS
------------------
                      0         1         2         3         4         5   
                 -19.19578 -19.08510 -14.38293 -14.31569 -10.24299 -10.21671
                   2.00000   2.00000   2.00000   2.00000   2.00000   2.00000
                  --------  --------  --------  --------  --------  --------
  0C   1s         0.000021  0.000012  0.000252 -0.000022  0.000415  0.987527
  0C   2s        -0.000585  0.000082  0.000712  0.000565  0.000372  0.054476
  0C   3s         0.012702 -0.014528  0.012810  0.005412 -0.000801 -0.058679
  0C   1pz       -0.000054 -0.000158 -0.000401  0.000195  0.000414  0.000254
  0C   1px       -0.000222 -0.000107  0.000751  0.000235 -0.000383 -0.001218
  0C   1py       -0.000083 -0.000056  0.000003  0.000109  0.000067 -0.000170
  0C   2pz        0.005298 -0.004233  0.007265  0.005659  0.001963 -0.004791
  0C   2px        0.001225 -0.001537 -0.005758 -0.000760  0.000762 -0.000379
  0C   2py        0.002134 -0.001821  0.001302  0.001701  0.000752 -0.001642
  0C   1dz2       0.000106 -0.000066  0.000435 -0.000145  0.000428  0.002005
  0C   1dxz      -0.000060 -0.000027  0.001302  0.000259 -0.000428 -0.000398
  0C   1dyz       0.000080 -0.000071  0.000114 -0.000061  0.000164  0.001592
  0C   1dx2y2     0.000061 -0.000039 -0.001188 -0.000068 -0.000016  0.000982
  0C   1dxy       0.000005 -0.000056 -0.000016  0.000064 -0.000144  0.000342
  0C   4s         0.011333 -0.012903 -0.000833  0.012580  0.000002 -0.037488
  0C   3pz        0.004081 -0.002077  0.000396  0.002329 -0.002088 -0.005897
  0C   3px        0.003522 -0.002507  0.006475  0.010260 -0.002285  0.007224
  0C   3py        0.002008 -0.001244  0.001378  0.002653 -0.001130 -0.000591
  1C   1s         0.000018  0.000007  0.000012 -0.000251  0.000313  0.018881
  1C   2s        -0.000185 -0.000521 -0.000867 -0.000415  0.000674 -0.001961
  1C   3s        -0.007933  0.018974 -0.001165 -0.017956  0.000254  0.013282
  1C   1pz        0.000079  0.000413  0.000315  0.000788  0.000463  0.001744
  1C   1px        0.000117  0.000003  0.000097 -0.000554 -0.000549  0.001294
  1C   1py        0.000058  0.000078  0.000115  0.000168  0.000044  0.000795
  1C   2pz        0.002022 -0.002384 -0.000369 -0.004838  0.000894 -0.002828
  1C   2px        0.001582 -0.008267  0.004147  0.008743 -0.003258 -0.000434
  1C   2py        0.000845 -0.001804  0.000673 -0.000034 -0.000263 -0.000935
  1C   1dz2       0.000003  0.000014 -0.000251  0.001019 -0.000199 -0.000234
  1C   1dxz      -0.000036 -0.000099 -0.000207 -0.001474 -0.000385 -0.001145
  1C   1dyz      -0.000006  0.000079 -0.000024  0.000365 -0.000054 -0.000695
  1C   1dx2y2    -0.000022  0.000179  0.000461  0.000148  0.000403 -0.000735
  1C   1dxy      -0.000019  0.000022  0.000107 -0.000415  0.000020 -0.000705
  1C   4s        -0.008266  0.015655 -0.003052 -0.007790  0.001854  0.029496
  1C   3pz        0.002439 -0.003872  0.004397  0.014428  0.001104 -0.001113
  1C   3px        0.000332 -0.004678  0.000915  0.001084  0.001642 -0.009207
  1C   3py        0.000843 -0.001847  0.001600  0.004837  0.000739 -0.002008
  2N   1s        -0.000074  0.000018 -0.987980  0.000265 -0.000087 -0.000081
  2N   2s        -0.000787  0.000421  0.049435  0.000742  0.000451  0.000738
  2N   3s         0.001694 -0.004588 -0.051441 -0.000811 -0.006549 -0.004734
  2N   1pz       -0.000205 -0.000036 -0.000057 -0.000227  0.000911 -0.000461
  2N   1px       -0.000490  0.000051  0.000098 -0.000060 -0.000094  0.000622
  2N   1py       -0.000148 -0.000031  0.000010 -0.000083  0.000269 -0.000036
  2N   2pz       -0.001593 -0.001734 -0.003978  0.000630 -0.006531  0.001335
  2N   2px       -0.004132  0.000839 -0.007543 -0.000219 -0.002564 -0.005184
  2N   2py       -0.001322 -0.000582 -0.002676  0.000173 -0.002637 -0.000554
  2N   1dz2      -0.000028 -0.000026 -0.000076  0.000095 -0.001327  0.000274
  2N   1dxz      -0.000026 -0.000082  0.000843  0.000014 -0.000328  0.000913
  2N   1dyz      -0.000011 -0.000056  0.000630 -0.000017 -0.000988 -0.000171
  2N   1dx2y2    -0.000020 -0.000019  0.001233 -0.000216 -0.000200 -0.001420
  2N   1dxy       0.000011 -0.000030  0.000804 -0.000081 -0.000248 -0.000257
  2N   4s        -0.008399  0.017821  0.028317  0.019625  0.022779  0.056552
  2N   3pz       -0.012622  0.007791  0.003518 -0.001768  0.010957 -0.000155
  2N   3px       -0.020491  0.012704  0.005877  0.000937 -0.000675  0.030900
  2N   3py       -0.008411  0.005389  0.002145 -0.000369  0.003529  0.005847
  3C   1s        -0.000008 -0.000042  0.000292 -0.000363  0.987644 -0.000564
  3C   2s         0.000113  0.000478  0.000129  0.000327  0.055202  0.000300
  3C   3s         0.004616  0.009525  0.016156 -0.016778 -0.042873 -0.002294
  3C   1pz       -0.000065  0.000084  0.000958  0.000187 -0.000636 -0.000425
  3C   1px        0.000049  0.000256  0.000014  0.001466  0.000325  0.000201
  3C   1py       -0.000022  0.000038  0.000304  0.000357 -0.000146 -0.000102
  3C   2pz       -0.001622 -0.004910 -0.008553  0.001419 -0.002511 -0.001443
  3C   2px        0.001776  0.002847  0.004055 -0.009543  0.002106  0.001221
  3C   2py       -0.000082 -0.000632 -0.001950 -0.001451 -0.000363 -0.000221
  3C   1dz2       0.000099 -0.000033 -0.001580 -0.001090  0.000762  0.000312
  3C   1dxz      -0.000133 -0.000086 -0.000344  0.000739 -0.001212 -0.000554
  3C   1dyz       0.000028  0.000021 -0.000929  0.000062  0.001028  0.000070
  3C   1dx2y2     0.000010  0.000149  0.000359  0.001457  0.002167  0.000006
  3C   1dxy      -0.000037  0.000063 -0.000031  0.000826  0.000527 -0.000179
  3C   4s        -0.005796 -0.000926 -0.001688  0.005277 -0.027985 -0.011230
  3C   3pz        0.000184 -0.000666  0.003142  0.005708  0.002405  0.000833
  3C   3px       -0.002675 -0.000301  0.003567  0.006214 -0.004561 -0.007251
  3C   3py       -0.000579 -0.000126  0.001751  0.002996 -0.000129 -0.000980
  4N   1s         0.000005 -0.000038  0.000147  0.988254 -0.000024  0.000025
  4N   2s         0.000092  0.000046 -0.000696 -0.048151  0.000398 -0.000295
  4N   3s        -0.001519 -0.005885 -0.000945  0.054368 -0.008600  0.001110
  4N   1pz       -0.000024  0.000603 -0.000071 -0.002324 -0.000075  0.000007
  4N   1px        0.000012  0.000210 -0.000251 -0.001313 -0.001206 -0.000020
  4N   1py       -0.000016  0.000214 -0.000071 -0.001015 -0.000263  0.000003
  4N   2pz        0.000098  0.005314  0.000206 -0.006196  0.004006 -0.001244
  4N   2px        0.000490  0.001841  0.000797 -0.002643  0.005203 -0.001038
  4N   2py        0.000064  0.001919  0.000211 -0.002562  0.002239 -0.000577
  4N   1dz2       0.000004  0.000014  0.000196  0.000156  0.000390  0.000199
  4N   1dxz      -0.000016  0.000046 -0.000091  0.000176 -0.000548  0.000148
  4N   1dyz       0.000005 -0.000041  0.000112 -0.000113 -0.000367  0.000189
  4N   1dx2y2     0.000014 -0.000051  0.000033 -0.000642 -0.001215  0.000083
  4N   1dxy       0.000007 -0.000024 -0.000010 -0.000199 -0.000687  0.000092
  4N   4s         0.019258 -0.019473 -0.022411 -0.035185  0.028571 -0.018867
  4N   3pz       -0.008649  0.025090  0.009220 -0.005858 -0.000676  0.012832
  4N   3px       -0.006611  0.012617  0.003933 -0.004691 -0.012783  0.005055
  4N   3py       -0.003706  0.008992  0.003640 -0.002489 -0.002790  0.004851
  5H   1s         0.000028  0.000086 -0.004213  0.000425 -0.000528 -0.000432
  5H   2s        -0.016805  0.004849  0.008489 -0.003558 -0.001938  0.002811
  5H   1pz        0.000002  0.000159 -0.001488 -0.000054  0.000700 -0.000212
  5H   1px        0.000326  0.000082 -0.003175 -0.000008 -0.000018  0.000578
  5H   1py        0.000141  0.000084 -0.001125 -0.000009  0.000230  0.000045
  6H   1s         0.000258  0.000088  0.000288  0.000610  0.000136 -0.004502
  6H   2s         0.001181 -0.000858  0.001475  0.002606  0.002174  0.004738
  6H   1pz       -0.000061  0.000093  0.000015  0.000118 -0.000144 -0.003077
  6H   1px       -0.000037  0.000094  0.000468  0.000042 -0.000124  0.000792
  6H   1py       -0.000038  0.000053  0.000098  0.000056 -0.000067 -0.000884
  7H   1s         0.000140  0.000345 -0.000668 -0.000107  0.000216 -0.000192
  7H   2s        -0.000104  0.002337 -0.001940 -0.000920  0.002989 -0.000294
  7H   1pz       -0.000088  0.000088  0.000009  0.000499  0.000031  0.000010
  7H   1px       -0.000059  0.000069  0.000246 -0.000146  0.000109 -0.000434
  7H   1py       -0.000035 -0.000002  0.000043  0.000141  0.000027 -0.000082
  8H   1s         0.000172  0.000297  0.000248 -0.000220 -0.003855  0.000181
  8H   2s        -0.000570  0.001418  0.001579 -0.000479  0.005579  0.002255
  8H   1pz        0.000074  0.000126  0.000366  0.000377  0.002158 -0.000001
  8H   1px       -0.000024 -0.000003  0.000241  0.000422 -0.002436 -0.000147
  8H   1py        0.000012  0.000003  0.000162  0.000208  0.000222 -0.000030
  9O   1s         0.988500  0.000102  0.000075  0.000005 -0.000001  0.000026
  9O   2s        -0.042082  0.000214  0.000537  0.000073 -0.000019  0.000297
  9O   3s         0.019725 -0.000894 -0.000731 -0.000451  0.000141 -0.001376
  9O   1pz        0.000088 -0.000001  0.000064 -0.000019  0.000036 -0.000056
  9O   1px        0.001854  0.000043  0.000236 -0.000020 -0.000004  0.000038
  9O   1py        0.000804  0.000013  0.000091 -0.000008 -0.000001  0.000019
  9O   2pz        0.000914 -0.000008 -0.000378  0.000101 -0.000108  0.000241
  9O   2px        0.004144 -0.000193 -0.001401  0.000209  0.000163 -0.000096
  9O   2py        0.001646 -0.000037 -0.000479  0.000063  0.000031  0.000055
  9O   1dz2       0.001281  0.000011 -0.000015  0.000005 -0.000001  0.000016
  9O   1dxz      -0.000301 -0.000007 -0.000018  0.000007 -0.000020  0.000017
  9O   1dyz       0.000328 -0.000001 -0.000010  0.000006 -0.000005  0.000010
  9O   1dx2y2     0.000412 -0.000003  0.000014  0.000002  0.000008  0.000004
  9O   1dxy       0.000419 -0.000007 -0.000003  0.000007  0.000008 -0.000012
  9O   4s        -0.012694  0.002426  0.000051  0.002459 -0.001110  0.006197
  9O   3pz       -0.001436  0.000213 -0.000196  0.000258 -0.000512  0.000737
  9O   3px       -0.004278  0.001168 -0.000689  0.000155  0.000231  0.001466
  9O   3py       -0.001204  0.000101 -0.000455  0.000191 -0.000413  0.001336
 10H   1s         0.002540  0.000057 -0.000172  0.000096  0.000032  0.000066
 10H   2s         0.001057 -0.000347 -0.000607 -0.000598  0.000113 -0.000042
 10H   1pz       -0.000264  0.000001  0.000105 -0.000043  0.000096 -0.000107
 10H   1px        0.000623 -0.000014  0.000253 -0.000053 -0.000020  0.000007
 10H   1py        0.003484  0.000038 -0.000137  0.000030  0.000022  0.000084
 11H   1s         0.002734  0.000018 -0.000312  0.000126  0.000014  0.000102
 11H   2s         0.000136  0.000166 -0.000354 -0.000719  0.000845 -0.001484
 11H   1pz        0.000612  0.000009  0.000046 -0.000021  0.000107 -0.000104
 11H   1px        0.002954  0.000017  0.000054 -0.000008  0.000023 -0.000024
 11H   1py       -0.001964 -0.000033  0.000300 -0.000070 -0.000001 -0.000091
 12O   1s        -0.000066  0.988485 -0.000021 -0.000043 -0.000029  0.000006
 12O   2s         0.000238 -0.042888 -0.000245 -0.000268 -0.000308  0.000021
 12O   3s        -0.001133  0.026246  0.001135 -0.000426  0.001105  0.000355
 12O   1pz       -0.000002  0.001927  0.000010  0.000195  0.000107 -0.000032
 12O   1px       -0.000008  0.001020 -0.000017  0.000078  0.000015 -0.000036
 12O   1py       -0.000017 -0.001365  0.000013  0.000052  0.000040 -0.000013
 12O   2pz        0.000270 -0.002644 -0.000222  0.000053 -0.000433 -0.000042
 12O   2px        0.000133 -0.000996  0.000002  0.000044 -0.000134  0.000084
 12O   2py        0.000056 -0.002101 -0.000017  0.000029 -0.000095  0.000026
 12O   1dz2      -0.000012  0.000120  0.000003 -0.000080  0.000004  0.000005
 12O   1dxz      -0.000018 -0.000398 -0.000002 -0.000064 -0.000036  0.000010
 12O   1dyz      -0.000014 -0.000323  0.000007 -0.000055 -0.000016  0.000005
 12O   1dx2y2     0.000010  0.000954 -0.000010 -0.000014 -0.000027  0.000002
 12O   1dxy      -0.000002  0.000054  0.000000 -0.000024 -0.000008  0.000005
 12O   4s         0.001477 -0.004603 -0.003499  0.002102  0.002128 -0.000285
 12O   3pz       -0.000634 -0.000019  0.001347 -0.001442 -0.000899  0.000272
 12O   3px       -0.000227 -0.000071  0.000496 -0.000637  0.000212 -0.000190
 12O   3py        0.000047 -0.000119 -0.000208 -0.000514 -0.000192 -0.000091
 13H   1s         0.000062  0.001789 -0.000074 -0.000105 -0.000038  0.000010
 13H   2s        -0.000379  0.001279  0.001036  0.000281 -0.000063  0.000036
 13H   1pz       -0.000001  0.000122 -0.000013 -0.000018  0.000016  0.000009
 13H   1px       -0.000004  0.000367 -0.000011 -0.000003 -0.000046 -0.000002
 13H   1py       -0.000045 -0.003215  0.000043 -0.000057  0.000026  0.000013
 14H   1s         0.000105  0.001349 -0.000175 -0.000244 -0.000185  0.000105
 14H   2s         0.002138 -0.023375 -0.000698  0.001331 -0.004306 -0.002633
 14H   1pz        0.000051  0.002039  0.000001  0.000748  0.000226 -0.000115
 14H   1px        0.000056  0.000862 -0.000031  0.000337  0.000181 -0.000042
 14H   1py        0.000033  0.000723 -0.000012  0.000271  0.000076 -0.000052
                      6         7         8         9        10        11   
                 -10.20091  -1.05103  -1.01462  -0.94017  -0.86625  -0.74271
                   2.00000   2.00000   2.00000   2.00000   2.00000   2.00000
                  --------  --------  --------  --------  --------  --------
  0C   1s         0.018171 -0.004010  0.097357 -0.004505  0.046542  0.179909
  0C   2s         0.003862  0.007592 -0.183558  0.008629 -0.094856 -0.362914
  0C   3s        -0.013059 -0.000674  0.012530 -0.005889 -0.017654 -0.051672
  0C   1pz        0.001529  0.002783 -0.075018  0.002375  0.005171 -0.056595
  0C   1px        0.001528 -0.003073  0.059490 -0.004658  0.095833 -0.030302
  0C   1py        0.000778  0.000258 -0.013112 -0.000120  0.019724 -0.023579
  0C   2pz        0.000284  0.000771  0.006548 -0.003220 -0.002171 -0.013650
  0C   2px       -0.002443 -0.001851  0.003387 -0.001125  0.012095 -0.020701
  0C   2py       -0.000367  0.000220  0.002741 -0.000799  0.001515 -0.008291
  0C   1dz2       0.000793 -0.000004 -0.003442 -0.000085  0.006169 -0.002488
  0C   1dxz       0.001079 -0.000348  0.006951 -0.000579  0.008754 -0.004759
  0C   1dyz       0.000949  0.000089 -0.003758  0.000002  0.002712 -0.005068
  0C   1dx2y2     0.000506  0.000445 -0.008241  0.000435 -0.008204 -0.006090
  0C   1dxy       0.000614  0.000071 -0.001107  0.000022 -0.000100 -0.004265
  0C   4s        -0.022800  0.050760  0.011623  0.069978  0.061799  0.052599
  0C   3pz       -0.008082  0.014907  0.003785  0.012331  0.018628  0.009758
  0C   3px        0.003288  0.022031 -0.012836  0.029733 -0.024731  0.012016
  0C   3py       -0.002020  0.008091 -0.001355  0.008882  0.001355  0.005545
  1C   1s        -0.987535 -0.002548  0.081224  0.000856 -0.091373  0.146832
  1C   2s        -0.054323  0.004879 -0.153240 -0.002096  0.180916 -0.291248
  1C   3s         0.056315  0.001441 -0.028942  0.010590  0.038110 -0.059103
  1C   1pz       -0.000609  0.000604 -0.025709 -0.003058  0.092239  0.073461
  1C   1px        0.000382 -0.002494  0.075495 -0.000658 -0.051029  0.048316
  1C   1py       -0.000136 -0.000278  0.005597 -0.000951  0.020666  0.032704
  1C   2pz       -0.001130 -0.001081  0.005989 -0.002275  0.009181  0.022841
  1C   2px       -0.003406  0.000480  0.017865 -0.002807 -0.028835  0.015717
  1C   2py       -0.000966 -0.000325  0.005189 -0.002931 -0.002207  0.010090
  1C   1dz2       0.000137  0.000006 -0.000880 -0.000203  0.005770 -0.003550
  1C   1dxz       0.000088 -0.000082  0.004339  0.000397 -0.013271 -0.008603
  1C   1dyz      -0.000829  0.000093 -0.002842 -0.000015  0.002471 -0.005542
  1C   1dx2y2    -0.002394  0.000285 -0.008379  0.000168  0.004767 -0.003306
  1C   1dxy      -0.000930  0.000100 -0.001934  0.000230 -0.002494 -0.004496
  1C   4s         0.027389 -0.067521 -0.021406 -0.053608 -0.045546 -0.042627
  1C   3pz        0.009499  0.016736 -0.008471  0.042091 -0.013677  0.022727
  1C   3px       -0.003663  0.014412  0.012217  0.012562  0.015359  0.009557
  1C   3py        0.002472  0.008774 -0.000397  0.016130 -0.001492  0.008932
  2N   1s        -0.000035  0.010697 -0.185274  0.010664 -0.178118  0.035111
  2N   2s         0.000250  0.021086 -0.368055  0.022371 -0.367368  0.074615
  2N   3s        -0.002457  0.006700 -0.159991  0.005004 -0.174883  0.018316
  2N   1pz       -0.000024 -0.000366  0.043295 -0.000595 -0.030607 -0.142985
  2N   1px        0.000122  0.000604  0.063189 -0.001906 -0.014355  0.139721
  2N   1py        0.000010  0.000139  0.025701 -0.000493 -0.012932 -0.020111
  2N   2pz       -0.001052  0.000539 -0.019720 -0.001663  0.006357  0.058375
  2N   2px       -0.001431  0.000253 -0.037489  0.000741 -0.007749 -0.061236
  2N   2py       -0.000638  0.000329 -0.013465  0.000036  0.000588  0.007417
  2N   1dz2       0.000076  0.000076 -0.003433  0.000037 -0.001137  0.008876
  2N   1dxz      -0.000145  0.000142 -0.001209 -0.000111  0.003923  0.005106
  2N   1dyz      -0.000090  0.000276 -0.005321  0.000159 -0.001526  0.004203
  2N   1dx2y2    -0.000265  0.000475 -0.007368  0.000352 -0.004363 -0.006568
  2N   1dxy      -0.000156  0.000254 -0.003599  0.000103 -0.000484 -0.000542
  2N   4s         0.015841  0.034433 -0.072551  0.066552 -0.129327  0.007093
  2N   3pz        0.002727 -0.007621  0.001857 -0.003111  0.016557  0.002114
  2N   3px        0.011638 -0.011808  0.003612 -0.005560  0.018941 -0.044986
  2N   3py        0.003165 -0.005121  0.001687 -0.003108  0.009283 -0.007765
  3C   1s         0.000490 -0.005122  0.131815 -0.001699 -0.039350 -0.150722
  3C   2s        -0.000866  0.009455 -0.255961  0.003741  0.081283  0.313275
  3C   3s         0.003666  0.001681  0.010227  0.004807  0.035999  0.062175
  3C   1pz        0.000191 -0.004171  0.087209 -0.006289  0.094647 -0.008924
  3C   1px       -0.000532  0.001558 -0.070760 -0.003134  0.143510 -0.005679
  3C   1py       -0.000042 -0.001057  0.014736 -0.002503  0.057832 -0.003689
  3C   2pz        0.000395 -0.001339  0.004754 -0.002560  0.001201 -0.020008
  3C   2px       -0.001669  0.000984  0.006558 -0.000006  0.042352  0.013369
  3C   2py       -0.000151 -0.000448  0.002537 -0.002237  0.008475 -0.003678
  3C   1dz2       0.000211  0.000391 -0.006517  0.000787 -0.015360  0.002283
  3C   1dxz       0.000414  0.000060  0.002460 -0.000125 -0.002387  0.009944
  3C   1dyz       0.000123  0.000372 -0.006921  0.000393 -0.004984  0.005327
  3C   1dx2y2    -0.000267  0.000273 -0.008727 -0.000175  0.013344  0.003998
  3C   1dxy       0.000044  0.000138 -0.003045 -0.000141  0.004140  0.005278
  3C   4s         0.016286  0.013582  0.049124 -0.007874  0.037318 -0.027163
  3C   3pz       -0.008729  0.007602 -0.014431  0.028709 -0.024412  0.004570
  3C   3px        0.002640  0.023005  0.012922  0.014068 -0.001005  0.000674
  3C   3py       -0.002371  0.008274 -0.002125  0.011653 -0.008012  0.001355
  4N   1s         0.000057  0.003603 -0.120906 -0.008076  0.193359  0.039889
  4N   2s        -0.000937  0.006633 -0.235850 -0.016762  0.395652  0.085195
  4N   3s         0.005142  0.005361 -0.102922 -0.008650  0.138220  0.021941
  4N   1pz        0.000641  0.002447 -0.076639  0.004696  0.088630 -0.050476
  4N   1px       -0.000516  0.001614 -0.048618  0.002192  0.039507  0.122551
  4N   1py        0.000121  0.001147 -0.034126  0.001782  0.036384  0.006602
  4N   2pz       -0.005096 -0.000545  0.022939 -0.001121 -0.017426  0.030446
  4N   2px        0.001310 -0.000303  0.014632 -0.000818  0.003764 -0.038385
  4N   2py       -0.001393  0.000102  0.010156  0.000164 -0.004802  0.002610
  4N   1dz2       0.001094  0.000089 -0.003107 -0.000300  0.002579 -0.009620
  4N   1dxz      -0.001092  0.000106 -0.002976 -0.000058 -0.002331  0.006644
  4N   1dyz       0.000644  0.000149 -0.004695 -0.000247  0.003102 -0.002367
  4N   1dx2y2     0.000515  0.000168 -0.005195 -0.000211  0.005198  0.005553
  4N   1dxy      -0.000129  0.000110 -0.003323 -0.000102  0.001418  0.004255
  4N   4s        -0.056970 -0.030264 -0.018489 -0.069166  0.012110  0.024828
  4N   3pz        0.027370 -0.005204 -0.003006 -0.010998  0.018888 -0.004838
  4N   3px       -0.003641 -0.000617  0.007497 -0.007373  0.010921 -0.032245
  4N   3py        0.008096 -0.002768  0.000315  0.000313  0.007952 -0.007124
  5H   1s        -0.000257  0.014904 -0.076964  0.006283 -0.135920  0.057477
  5H   2s         0.002054 -0.011446  0.010597 -0.011358  0.047129 -0.025953
  5H   1pz        0.000085  0.000202 -0.005020  0.000360 -0.006579  0.005807
  5H   1px        0.000079  0.000191 -0.009615  0.000559 -0.014121  0.003219
  5H   1py        0.000047 -0.000021 -0.003458  0.000208 -0.004838  0.002527
  6H   1s         0.000108  0.000628 -0.019591  0.001099 -0.024855 -0.104709
  6H   2s         0.001058  0.004354  0.002989  0.001348  0.004491 -0.014022
  6H   1pz       -0.000520  0.000254 -0.003658  0.000243 -0.003111 -0.011820
  6H   1px        0.000098 -0.000000  0.000814 -0.000027  0.001464  0.001538
  6H   1py       -0.000155  0.000080 -0.001042  0.000071 -0.000769 -0.003645
  7H   1s         0.004337  0.000474 -0.014668 -0.000175  0.033791 -0.080238
  7H   2s        -0.005793 -0.003620 -0.008039 -0.004227  0.015016 -0.012181
  7H   1pz        0.000454  0.000037 -0.000615  0.000061  0.001530  0.000740
  7H   1px       -0.003167 -0.000012  0.002638  0.000113 -0.004777  0.010156
  7H   1py       -0.000434  0.000012  0.000286  0.000108 -0.000370  0.002083
  8H   1s        -0.000249  0.000946 -0.027779  0.000609  0.008538  0.107083
  8H   2s        -0.001099  0.005389  0.003838 -0.003656  0.018462  0.016517
  8H   1pz       -0.000109 -0.000235  0.003006  0.000042  0.000323 -0.007841
  8H   1px        0.000064  0.000182 -0.003795  0.000030  0.001514  0.009116
  8H   1py       -0.000027 -0.000045  0.000248  0.000082  0.000394 -0.000721
  9O   1s        -0.000012  0.279722  0.013193 -0.000340  0.004532 -0.000998
  9O   2s        -0.000107  0.561971  0.026762 -0.000599  0.010070 -0.002789
  9O   3s         0.000250  0.261171  0.010496 -0.000797 -0.000141  0.003501
  9O   1pz       -0.000041 -0.009421 -0.001288  0.000126 -0.002345  0.002341
  9O   1px       -0.000022 -0.101551 -0.007644  0.000357 -0.009533  0.006237
  9O   1py       -0.000015 -0.044137 -0.003169  0.000179 -0.003648  0.002572
  9O   2pz        0.000199  0.001391 -0.000276 -0.000219 -0.001575  0.001959
  9O   2px        0.000095  0.004841 -0.000467  0.000445 -0.005216  0.003659
  9O   2py        0.000084  0.001474 -0.000282 -0.000127 -0.001908  0.001692
  9O   1dz2      -0.000004 -0.005955 -0.000218  0.000001  0.000040  0.000003
  9O   1dxz      -0.000000  0.001737  0.000006  0.000010 -0.000175  0.000151
  9O   1dyz      -0.000002 -0.001005 -0.000065  0.000007 -0.000074  0.000065
  9O   1dx2y2    -0.000002 -0.000319 -0.000079  0.000005 -0.000162  0.000037
  9O   1dxy      -0.000007 -0.000180 -0.000048  0.000018 -0.000128  0.000071
  9O   4s         0.000590  0.123019  0.010203  0.004514  0.002728 -0.010456
  9O   3pz       -0.000295 -0.002177  0.000739  0.000981 -0.000430 -0.002474
  9O   3px        0.000385 -0.038193 -0.000584 -0.001314 -0.000515  0.000445
  9O   3py        0.000081 -0.015689 -0.000182  0.001330 -0.001150 -0.002161
 10H   1s         0.000002  0.203936  0.010963 -0.000332  0.006676 -0.003326
 10H   2s         0.000019 -0.062566 -0.003510 -0.000639 -0.001626  0.000594
 10H   1pz       -0.000008 -0.003159 -0.000245 -0.000018 -0.000058  0.000163
 10H   1px       -0.000014  0.001137 -0.000094 -0.000032  0.000056 -0.000001
 10H   1py        0.000001  0.033519  0.001854 -0.000058  0.001025 -0.000529
 11H   1s        -0.000010  0.204747  0.011259 -0.000107  0.007107 -0.003850
 11H   2s        -0.000029 -0.063170 -0.003540 -0.003104 -0.000300  0.004200
 11H   1pz       -0.000005  0.005720  0.000278 -0.000022  0.000239  0.000016
 11H   1px       -0.000022  0.024667  0.001328 -0.000057  0.000896 -0.000367
 11H   1py       -0.000019 -0.022336 -0.001360  0.000002 -0.000659  0.000406
 12O   1s        -0.000016  0.000069 -0.004771 -0.278442 -0.014614 -0.002248
 12O   2s        -0.000268  0.000176 -0.009690 -0.559371 -0.029670 -0.005029
 12O   3s         0.001631 -0.000497 -0.003694 -0.265687 -0.014280 -0.001170
 12O   1pz       -0.000047 -0.000050  0.002300  0.078629  0.000793 -0.000866
 12O   1px       -0.000084  0.000011  0.001129  0.043356  0.000951 -0.000660
 12O   1py       -0.000003  0.000003 -0.000615 -0.071799 -0.006209 -0.001959
 12O   2pz       -0.000366  0.000361 -0.000476  0.003173 -0.000912 -0.000966
 12O   2px        0.000036 -0.000081 -0.000064  0.001588 -0.000123 -0.001220
 12O   2py       -0.000024  0.000031  0.000049 -0.000899 -0.000728 -0.000671
 12O   1dz2       0.000065 -0.000012 -0.000105 -0.000652  0.000312  0.000064
 12O   1dxz       0.000029 -0.000015 -0.000132 -0.003347  0.000066  0.000139
 12O   1dyz       0.000037 -0.000005 -0.000079 -0.000660  0.000144  0.000043
 12O   1dx2y2    -0.000022  0.000003  0.000044  0.004632  0.000333  0.000114
 12O   1dxy       0.000017 -0.000003 -0.000027  0.000759  0.000122  0.000062
 12O   4s        -0.006176 -0.004784  0.004561 -0.151174 -0.001868  0.001202
 12O   3pz        0.002267  0.001239 -0.002028  0.037733  0.000337 -0.001992
 12O   3px        0.001242  0.001303 -0.001525  0.020448 -0.000372  0.001661
 12O   3py       -0.000018 -0.000043 -0.001035 -0.027650 -0.001636 -0.001254
 13H   1s        -0.000101  0.000004 -0.003392 -0.213056 -0.012896 -0.002947
 13H   2s         0.001256  0.001355  0.000396  0.070833  0.002287  0.001836
 13H   1pz        0.000037 -0.000034  0.000198  0.005380  0.000091 -0.000012
 13H   1px       -0.000040 -0.000004  0.000062 -0.000689 -0.000136 -0.000109
 13H   1py        0.000075 -0.000031  0.000513  0.033099  0.001911  0.000344
 14H   1s        -0.000105 -0.000025 -0.006538 -0.192152  0.000274  0.002548
 14H   2s        -0.000025  0.006518 -0.003820  0.091575 -0.008409 -0.003757
 14H   1pz       -0.000416  0.000071  0.000301 -0.025553 -0.002522 -0.000416
 14H   1px       -0.000069  0.000023  0.000035 -0.010235 -0.001250  0.000208
 14H   1py       -0.000135  0.000058 -0.000109 -0.015687 -0.001214 -0.000124
                     12        13        14        15        16        17   
                  -0.61426  -0.59344  -0.58619  -0.56631  -0.47933  -0.46112
                   2.00000   2.00000   2.00000   2.00000   2.00000   2.00000
                  --------  --------  --------  --------  --------  --------
  0C   1s         0.089386  0.056375 -0.002644 -0.082961  0.000759  0.010629
  0C   2s        -0.190778 -0.120336  0.004627  0.167834 -0.003690 -0.022954
  0C   3s        -0.119334 -0.025284  0.013272  0.118459 -0.016868  0.030736
  0C   1pz       -0.052026  0.103753  0.004003 -0.174940  0.014860 -0.128408
  0C   1px       -0.014927  0.195008  0.013910  0.149114  0.065134 -0.176688
  0C   1py       -0.019489  0.070545  0.003176 -0.030339  0.020643 -0.069687
  0C   2pz       -0.058384  0.011998  0.005740 -0.031588 -0.009806 -0.023475
  0C   2px       -0.009550  0.051704  0.001327  0.027183  0.014253 -0.046611
  0C   2py       -0.021071  0.013502 -0.001420 -0.005216  0.000700 -0.014070
  0C   1dz2      -0.008433  0.004857  0.000519 -0.002442  0.000963 -0.003612
  0C   1dxz       0.008994  0.008662  0.000375  0.012825  0.004898 -0.008572
  0C   1dyz      -0.002913  0.002210  0.000215  0.001142  0.001248 -0.001980
  0C   1dx2y2     0.000824 -0.007109 -0.000365 -0.000977 -0.002153  0.004593
  0C   1dxy       0.003207  0.000251  0.000108  0.004007  0.000778 -0.001487
  0C   4s         0.040056  0.053170  0.042847  0.046981 -0.089069 -0.006527
  0C   3pz        0.006292  0.017348  0.013626  0.003299 -0.036103 -0.004317
  0C   3px        0.063420 -0.016346  0.003987  0.030446  0.021319 -0.007890
  0C   3py        0.013586  0.002631  0.003863  0.006804 -0.006812 -0.002759
  1C   1s        -0.065149 -0.141939 -0.004718 -0.031949 -0.006356  0.004083
  1C   2s         0.143253  0.295084  0.009677  0.065503  0.015202 -0.010093
  1C   3s         0.085224  0.088977 -0.001757  0.005975  0.007754 -0.005127
  1C   1pz        0.171163 -0.048745 -0.012333 -0.132202 -0.038009  0.169215
  1C   1px        0.070572  0.065014  0.001302  0.105790 -0.062586  0.154677
  1C   1py        0.068903 -0.003564 -0.004243 -0.023828 -0.019116  0.088355
  1C   2pz        0.018986 -0.009616 -0.003217 -0.044390 -0.018618  0.054996
  1C   2px       -0.018520  0.001403  0.003338  0.053159 -0.020571  0.046013
  1C   2py        0.002842 -0.002558  0.000438 -0.004736 -0.007796  0.028665
  1C   1dz2       0.007852  0.000329 -0.000208  0.003316 -0.001352  0.003504
  1C   1dxz      -0.010349  0.002666  0.000688  0.007953 -0.001248 -0.005062
  1C   1dyz       0.001969  0.001770 -0.000031  0.001851 -0.000319  0.000644
  1C   1dx2y2    -0.001708  0.002401  0.000064 -0.005340  0.001571 -0.001586
  1C   1dxy      -0.004031  0.001905  0.000282  0.000785 -0.000202 -0.002664
  1C   4s        -0.070883 -0.040605 -0.033619 -0.021589  0.077143  0.010423
  1C   3pz        0.041778 -0.012507  0.005580  0.017557  0.021107 -0.006395
  1C   3px        0.002080  0.021548  0.007657  0.005059 -0.027392  0.005877
  1C   3py        0.013839  0.000004  0.002477  0.006761  0.000861 -0.000670
  2N   1s         0.063316 -0.004276 -0.004448 -0.039582 -0.012643  0.023938
  2N   2s         0.127416 -0.008992 -0.009184 -0.094601 -0.033030  0.062060
  2N   3s         0.125804  0.014163 -0.010830 -0.057591 -0.009563  0.013437
  2N   1pz        0.166949 -0.283602 -0.018262  0.080879  0.027923  0.033962
  2N   1px        0.269485  0.107355 -0.002118  0.182400  0.080422 -0.105952
  2N   1py        0.105489 -0.071954 -0.002548  0.061440  0.018837 -0.018573
  2N   2pz       -0.053426  0.131207  0.009650 -0.037962 -0.006834 -0.038158
  2N   2px       -0.075605 -0.046822  0.000395 -0.086750 -0.024328  0.023138
  2N   2py       -0.031682  0.034044 -0.000669 -0.029171 -0.003543 -0.001893
  2N   1dz2      -0.002679  0.004175  0.000316  0.003016 -0.002013  0.005259
  2N   1dxz       0.002746  0.003375 -0.000055 -0.005595  0.003871 -0.009362
  2N   1dyz      -0.000685  0.002162  0.000136  0.000229  0.000293  0.000008
  2N   1dx2y2     0.000779 -0.003058 -0.000339 -0.000953  0.001005 -0.003421
  2N   1dxy       0.001249  0.000075  0.000051 -0.002254  0.001957 -0.004283
  2N   4s         0.205378 -0.005457 -0.023364  0.085595  0.046969 -0.035971
  2N   3pz       -0.042036  0.033423 -0.000085 -0.034542 -0.011559 -0.026974
  2N   3px       -0.054323 -0.015619 -0.005611 -0.046913 -0.017359 -0.036149
  2N   3py       -0.023626  0.007630  0.010718 -0.021502 -0.007162 -0.016851
  3C   1s         0.107538 -0.043157 -0.007776 -0.085328 -0.001636 -0.010406
  3C   2s        -0.231531  0.089751  0.016755  0.180033  0.003579  0.022925
  3C   3s        -0.098399 -0.012807  0.004423  0.074489 -0.024763  0.084108
  3C   1pz        0.025053 -0.159678 -0.002573  0.224616  0.017670  0.022670
  3C   1px       -0.014431 -0.201731 -0.009440 -0.114378  0.073983 -0.127107
  3C   1py        0.005105 -0.089838 -0.003671  0.050450  0.026338 -0.009557
  3C   2pz        0.026766 -0.012343  0.000179  0.041892  0.007490 -0.008818
  3C   2px       -0.045868 -0.047015  0.000321 -0.053676  0.005048 -0.013955
  3C   2py       -0.000763 -0.012934 -0.002979  0.003973  0.005959 -0.002114
  3C   1dz2      -0.007986  0.012430  0.000514 -0.007649 -0.005187  0.003822
  3C   1dxz       0.009871 -0.002168 -0.000294  0.008853  0.000970 -0.003327
  3C   1dyz      -0.003047  0.004879  0.000345 -0.001814 -0.001714 -0.000115
  3C   1dx2y2    -0.000953 -0.006029 -0.000167  0.002106  0.003813 -0.003258
  3C   1dxy       0.002711 -0.002838 -0.000131  0.003705  0.002182 -0.002038
  3C   4s        -0.084087 -0.016906 -0.001991 -0.113864  0.019520  0.019915
  3C   3pz        0.049145  0.019995 -0.002300  0.038101  0.009332  0.002465
  3C   3px       -0.001638  0.001902 -0.004028 -0.048924  0.019138  0.004723
  3C   3py        0.014996  0.006640 -0.002378  0.003450  0.006895  0.002708
  4N   1s         0.083103 -0.086676 -0.006962  0.000314 -0.005113  0.020073
  4N   2s         0.178735 -0.189075 -0.015103 -0.002620 -0.007953  0.045728
  4N   3s         0.135422 -0.098608 -0.009029  0.037334 -0.011371  0.006558
  4N   1pz        0.052586  0.064082 -0.001283 -0.115695  0.067565 -0.003073
  4N   1px       -0.175305 -0.140030  0.003449  0.086208  0.088207 -0.140275
  4N   1py       -0.015598 -0.005597  0.000798 -0.020954  0.028391 -0.034943
  4N   2pz       -0.011443 -0.034948 -0.000828  0.048361 -0.048535  0.014490
  4N   2px        0.061305  0.042374 -0.000995 -0.031156 -0.046333  0.069431
  4N   2py        0.007609 -0.003506  0.000129  0.009135 -0.017408  0.022279
  4N   1dz2       0.004165  0.006107 -0.000050 -0.008562  0.000135 -0.002850
  4N   1dxz      -0.010745 -0.004604  0.000166 -0.003836  0.002710 -0.009333
  4N   1dyz      -0.000729  0.001822  0.000079 -0.004221  0.000844 -0.003674
  4N   1dx2y2    -0.002102 -0.002575  0.000048  0.005300  0.000186  0.001568
  4N   1dxy      -0.004512 -0.002424  0.000082  0.000525  0.000988 -0.002969
  4N   4s         0.049653  0.020820  0.007447  0.143660 -0.060531  0.023412
  4N   3pz       -0.044335 -0.025525  0.001350 -0.028279 -0.039838 -0.016730
  4N   3px       -0.009092  0.011281 -0.002388 -0.033414 -0.021274  0.005188
  4N   3py       -0.014607 -0.005855 -0.001874 -0.015441 -0.016557 -0.004648
  5H   1s         0.295417 -0.038416 -0.009257  0.111496  0.080147 -0.117425
  5H   2s        -0.055245  0.003740  0.005733 -0.053164 -0.000286 -0.045795
  5H   1pz        0.008720  0.005683  0.000105  0.002934  0.001376 -0.001991
  5H   1px        0.019950 -0.006175 -0.000596  0.005290  0.002178  0.001267
  5H   1py        0.006620  0.000708 -0.000955  0.001979  0.000956  0.000056
  6H   1s        -0.055348 -0.105940  0.001036  0.205024 -0.007553  0.074841
  6H   2s        -0.037162 -0.023642  0.005171  0.030771 -0.013944  0.021124
  6H   1pz       -0.004449 -0.006662  0.000178  0.013782 -0.000200  0.002027
  6H   1px        0.001278  0.004240  0.000163 -0.000271  0.001542 -0.004653
  6H   1py       -0.001231 -0.001446  0.000177  0.004550  0.000304 -0.000028
  7H   1s         0.093618  0.166139  0.005084  0.091936 -0.037590  0.109870
  7H   2s         0.017612  0.030453 -0.001452 -0.007101 -0.003172  0.023642
  7H   1pz        0.003322 -0.000578 -0.000184 -0.001385 -0.000676  0.003427
  7H   1px       -0.007059 -0.013612 -0.000450 -0.007202  0.001592 -0.004954
  7H   1py       -0.000173 -0.002624 -0.000167 -0.001742  0.000190  0.000365
  8H   1s        -0.085721  0.067352  0.010777  0.227914 -0.030824  0.099540
  8H   2s        -0.050756  0.005312  0.001835  0.012235 -0.011072  0.032995
  8H   1pz        0.005412 -0.005886 -0.000654 -0.009211  0.001804 -0.004279
  8H   1px       -0.004100  0.001041  0.000458  0.012842 -0.000220  0.002904
  8H   1py        0.000932 -0.001654 -0.000071 -0.000416  0.000706 -0.000579
  9O   1s         0.002552 -0.000632  0.000057  0.003314  0.016494 -0.062946
  9O   2s         0.002947 -0.001096  0.000273  0.004723  0.034038 -0.131492
  9O   3s         0.022849 -0.002560 -0.000378  0.020641  0.047552 -0.175313
  9O   1pz        0.016195 -0.002046  0.074338  0.007422  0.016304 -0.051565
  9O   1px        0.064418 -0.016474  0.196944  0.032089  0.094602 -0.334783
  9O   1py        0.008728  0.017102 -0.470903  0.026979  0.044057 -0.151494
  9O   2pz        0.009843 -0.000274  0.028479  0.006196  0.009768 -0.031097
  9O   2px        0.035157 -0.008423  0.074649  0.021315  0.051472 -0.180131
  9O   2py        0.007485  0.006108 -0.180451  0.014080  0.023486 -0.080934
  9O   1dz2       0.000115  0.000064 -0.000436  0.000234  0.001189 -0.004671
  9O   1dxz       0.000298  0.000182 -0.003383  0.000237 -0.000212  0.001111
  9O   1dyz       0.000142  0.000020  0.000361  0.000051 -0.000089  0.000428
  9O   1dx2y2    -0.000451  0.000581 -0.014729  0.000203 -0.001167  0.004917
  9O   1dxy       0.000359 -0.000545  0.014034 -0.000552 -0.001459  0.005651
  9O   4s        -0.007159 -0.003338 -0.001954 -0.014509  0.005799 -0.022522
  9O   3pz        0.002489 -0.001733  0.010974 -0.000670  0.004304 -0.012735
  9O   3px        0.008106 -0.002909  0.032365  0.003614  0.019809 -0.079127
  9O   3py        0.001137  0.001181 -0.074078  0.004163  0.008697 -0.030049
 10H   1s        -0.014081 -0.010840  0.329873 -0.023265 -0.038748  0.132855
 10H   2s         0.001159 -0.000705  0.006227  0.003723 -0.003465  0.014300
 10H   1pz        0.000543  0.000055  0.000359  0.000363  0.001021 -0.003542
 10H   1px        0.001626 -0.000867  0.018004  0.000280  0.003234 -0.012338
 10H   1py       -0.002361 -0.000739  0.024987 -0.002391 -0.004074  0.013769
 11H   1s        -0.036956  0.016936 -0.329578 -0.008108 -0.036020  0.128314
[...]

Total number of grid points                  ...     8044
Total number of batches                      ...      132
Average number of points per batch           ...       60
Average number of grid points per atom       ...      536
Average number of shells per batch           ...    58.06 (72.58%)
Average number of basis functions per batch  ...   117.20 (70.60%)
Average number of large shells per batch     ...    46.52 (80.12%)
Average number of large basis fcns per batch ...    93.57 (79.84%)
Maximum spatial batch extension              ...  20.61, 22.09, 20.84 au
Average spatial batch extension              ...   4.62,  5.36,  5.03 au


---------------
TD-DFT XC SETUP
---------------

DFT calculation                         ... on
Name of the grid file                   ... /Users/lailaal-madhagi/Desktop/Testing_XAS_Analysis_code/Imidazole/Liquid//Results_dir_Liquid_element_C_2019-11-05_23-18-50//LES1_1Imdz_2W.xyz_2019-11-05_23-19-17//TDDFT_C-edge.grid_cis.tmp
Exchange functional (SCF)               ... B88
Exchange functional (TD-DFT)            ... B88
   X-Alpha parameter    XAlpha (SCF)    ...  0.666667
   X-Alpha parameter    XAlpha (TD-DFT) ...  0.666667
   Becke's b parameter  XBeta (SCF)     ...  0.004200
   Becke's b parameter  XBeta (TD-DFT)  ...  0.004200
Correlation functional (SCF)            ... LYP
Correlation functional (TD-DFT)         ... LYP
 LDA part of GGA corr.  LDAOpt (SCF)    ... VWN-5
 LDA part of GGA corr.  LDAOpt (TD-DFT) ... VWN-5
Hybrid DFT                              ... on
   Exchange mixing (SCF)                ...  0.200
   Exchange mixing (TD-DFT)             ...  0.200
   GGA exch. scaling(SCF)               ...  0.720
   GGA exch. scaling (TD-DFT)           ...  0.720
   GGA corr. scaling (SCF)              ...  0.810
   GGA corr. scaling (TD-DFT)           ...  0.810

Building densities             ... done
Calculating rho(r) on the grid ... done
Building xc-kernel on the grid ... done
                    *** TD-DFT CALCULATION INITIALIZED ***


------------------------
DAVIDSON-DIAGONALIZATION
------------------------

Dimension of the eigenvalue problem            ...    414
Number of roots to be determined               ...     20
Maximum size of the expansion space            ...    414
Maximum number of iterations                   ...    100
Convergence tolerance for the residual         ...    2.500e-07
Convergence tolerance for the energies         ...    2.500e-07
Orthogonality tolerance                        ...    1.000e-14
Level Shift                                    ...    0.000e+00
Constructing the preconditioner                ... o.k.
Building the initial guess                     ... o.k.
Number of trial vectors determined             ...    414


                       ****Iteration    0****

   Memory handling for direct AO based CIS:
   Memory per vector needed      ...     1 MB
   Memory needed                 ...    50 MB
   Memory available              ...   512 MB
   Number of vectors per batch   ...   512
   Number of batches             ...     1
   Time for densities:     0.027
   Using LibInt in JK Direct
   Time for J+K (Direct):   373.370
   Time for XC-Integration:     5.787
   Time for Sigma-Completion:     0.314
   Size of expansion space: 60
   Lowest Energy          :    10.151878641387
   Maximum Energy change  :    10.243050709250 (vector 19)
   Maximum residual norm  :     0.000944583906

                       ****Iteration    1****
   Time for densities:     0.009
   Using LibInt in JK Direct
   Time for J+K (Direct):    95.628
   Time for XC-Integration:     1.908
   Time for Sigma-Completion:     0.104
   Size of expansion space: 80
   Lowest Energy          :    10.150955456560
   Maximum Energy change  :     0.001841516999 (vector 4)
   Maximum residual norm  :     0.000004738497

                       ****Iteration    2****
   Time for densities:     0.009
   Using LibInt in JK Direct
   Time for J+K (Direct):    96.471
   Time for XC-Integration:     1.968
   Time for Sigma-Completion:     0.105
   Size of expansion space: 100
   Lowest Energy          :    10.150955111046
   Maximum Energy change  :     0.000015383520 (vector 16)
   Maximum residual norm  :     0.000000151179

      *** CONVERGENCE OF RESIDUAL NORM REACHED ***

Storing the converged CI vectors               ... /Users/lailaal-madhagi/Desktop/Testing_XAS_Analysis_code/Imidazole/Liquid//Results_dir_Liquid_element_C_2019-11-05_23-18-50//LES1_1Imdz_2W.xyz_2019-11-05_23-19-17//TDDFT_C-edge.cis1

                 *** DAVIDSON DONE ***

Total time for solving the CIS problem:   576.344sec

------------------------------------
TD-DFT/TDA EXCITED STATES (SINGLETS)
------------------------------------

the weight of the individual excitations are printed if larger than 1.0e-02

STATE  1:  E=  10.150955 au    276.222 eV  2227877.1 cm**-1
     6a ->  29a  :     0.600237 (c= -0.77474946)
     6a ->  32a  :     0.365105 (c=  0.60423897)
     6a ->  41a  :     0.011458 (c= -0.10703973)

STATE  2:  E=  10.154643 au    276.322 eV  2228686.6 cm**-1
     5a ->  29a  :     0.792891 (c= -0.89044404)
     5a ->  32a  :     0.173138 (c=  0.41609811)

STATE  3:  E=  10.163969 au    276.576 eV  2230733.3 cm**-1
     6a ->  28a  :     0.975087 (c= -0.98746495)
     6a ->  30a  :     0.022233 (c= -0.14910823)

STATE  4:  E=  10.170081 au    276.742 eV  2232074.9 cm**-1
     4a ->  29a  :     0.397411 (c=  0.63040506)
     4a ->  32a  :     0.021885 (c=  0.14793441)
     4a ->  35a  :     0.015886 (c=  0.12603912)
     6a ->  29a  :     0.216718 (c=  0.46553029)
     6a ->  32a  :     0.307199 (c=  0.55425525)
     6a ->  35a  :     0.011359 (c=  0.10657825)

STATE  5:  E=  10.170222 au    276.746 eV  2232105.7 cm**-1
     4a ->  29a  :     0.492851 (c=  0.70203318)
     4a ->  32a  :     0.027136 (c=  0.16473133)
     4a ->  35a  :     0.019621 (c=  0.14007596)
     6a ->  29a  :     0.171368 (c= -0.41396630)
     6a ->  32a  :     0.250999 (c= -0.50099786)

STATE  6:  E=  10.173806 au    276.843 eV  2232892.3 cm**-1
     5a ->  28a  :     0.955925 (c= -0.97771433)
     5a ->  30a  :     0.034681 (c= -0.18622964)

STATE  7:  E=  10.191680 au    277.330 eV  2236815.1 cm**-1
     6a ->  28a  :     0.020737 (c= -0.14400424)
     6a ->  30a  :     0.918116 (c=  0.95818377)
     6a ->  33a  :     0.050717 (c=  0.22520397)

STATE  8:  E=  10.199306 au    277.537 eV  2238488.9 cm**-1
     4a ->  28a  :     0.973374 (c=  0.98659699)
     4a ->  31a  :     0.014903 (c= -0.12207615)

STATE  9:  E=  10.202338 au    277.620 eV  2239154.4 cm**-1
     5a ->  29a  :     0.187209 (c= -0.43267633)
     5a ->  32a  :     0.772355 (c= -0.87883715)

STATE 10:  E=  10.204484 au    277.678 eV  2239625.4 cm**-1
     5a ->  28a  :     0.037475 (c= -0.19358531)
     5a ->  30a  :     0.870146 (c=  0.93281620)
     5a ->  31a  :     0.067806 (c=  0.26039679)

STATE 11:  E=  10.209205 au    277.807 eV  2240661.5 cm**-1
     6a ->  31a  :     0.947628 (c= -0.97346212)
     6a ->  33a  :     0.022550 (c=  0.15016820)
     6a ->  34a  :     0.017177 (c=  0.13106221)

STATE 12:  E=  10.220365 au    278.110 eV  2243110.7 cm**-1
     6a ->  30a  :     0.048534 (c= -0.22030525)
     6a ->  33a  :     0.774744 (c=  0.88019552)
     6a ->  34a  :     0.127850 (c= -0.35756077)
     6a ->  38a  :     0.013851 (c=  0.11768980)

STATE 13:  E=  10.223705 au    278.201 eV  2243843.8 cm**-1
     5a ->  30a  :     0.071179 (c=  0.26679302)
     5a ->  31a  :     0.856358 (c= -0.92539608)
     5a ->  32a  :     0.017002 (c= -0.13039206)
     5a ->  33a  :     0.014349 (c=  0.11978630)
     5a ->  34a  :     0.012526 (c=  0.11192105)
     5a ->  36a  :     0.020052 (c=  0.14160673)

STATE 14:  E=  10.228963 au    278.344 eV  2244997.9 cm**-1
     6a ->  31a  :     0.029537 (c=  0.17186400)
     6a ->  32a  :     0.014526 (c=  0.12052306)
     6a ->  33a  :     0.109641 (c=  0.33112040)
     6a ->  34a  :     0.816354 (c=  0.90352323)

STATE 15:  E=  10.230867 au    278.396 eV  2245415.7 cm**-1
     6a ->  32a  :     0.021427 (c= -0.14637819)
     6a ->  35a  :     0.890528 (c=  0.94367796)
     6a ->  37a  :     0.053284 (c=  0.23083349)

STATE 16:  E=  10.235913 au    278.533 eV  2246523.2 cm**-1
     4a ->  29a  :     0.062100 (c=  0.24919780)
     4a ->  30a  :     0.014154 (c= -0.11896952)
     4a ->  31a  :     0.025045 (c=  0.15825635)
     4a ->  32a  :     0.874185 (c= -0.93497866)

STATE 17:  E=  10.237946 au    278.589 eV  2246969.4 cm**-1
     5a ->  33a  :     0.465567 (c=  0.68232481)
     5a ->  34a  :     0.483737 (c= -0.69551200)
     5a ->  35a  :     0.021928 (c= -0.14808239)

STATE 18:  E=  10.238245 au    278.597 eV  2247035.1 cm**-1
     4a ->  28a  :     0.018680 (c= -0.13667532)
     4a ->  30a  :     0.465563 (c=  0.68232202)
     4a ->  31a  :     0.454731 (c= -0.67433718)
     4a ->  32a  :     0.034700 (c= -0.18627892)
     4a ->  33a  :     0.010752 (c= -0.10369254)

STATE 19:  E=  10.242264 au    278.706 eV  2247917.1 cm**-1
     6a ->  36a  :     0.905679 (c= -0.95167183)
     6a ->  38a  :     0.059917 (c=  0.24477990)

STATE 20:  E=  10.242515 au    278.713 eV  2247972.3 cm**-1
     5a ->  29a  :     0.012789 (c=  0.11308996)
     5a ->  34a  :     0.041393 (c=  0.20345310)
     5a ->  35a  :     0.882813 (c= -0.93958112)
     5a ->  37a  :     0.039962 (c= -0.19990439)
     5a ->  39a  :     0.013776 (c=  0.11737124)


-----------------------------
TD-DFT/TDA-EXCITATION SPECTRA
-----------------------------

Center of mass = ( -1.2741, -0.0595,  0.6797)
Calculating the Dipole integrals                  ... done
Transforming integrals                            ... done
Calculating the Linear Momentum integrals         ... done
Transforming integrals                            ... done
Calculating angular momentum integrals            ... done
Transforming integrals                            ... done

-----------------------------------------------------------------------------
         ABSORPTION SPECTRUM VIA TRANSITION ELECTRIC DIPOLE MOMENTS
-----------------------------------------------------------------------------
State   Energy    Wavelength  fosc         T2        TX        TY        TZ  
        (cm-1)      (nm)                 (au**2)    (au)      (au)      (au) 
-----------------------------------------------------------------------------
   1 2227877.1      4.5   0.029183407   0.00431   0.01151  -0.06142   0.02019
   2 2228686.6      4.5   0.034372518   0.00508   0.01245  -0.06659   0.02209
   3 2230733.3      4.5   0.000063759   0.00001  -0.00269  -0.00006  -0.00148
   4 2232074.9      4.5   0.002713286   0.00040  -0.00375   0.01863  -0.00624
   5 2232105.7      4.5   0.056171114   0.00828  -0.01608   0.08529  -0.02743
   6 2232892.3      4.5   0.001744933   0.00026   0.00580  -0.00376  -0.01447
   7 2236815.1      4.5   0.003808305   0.00056   0.02301   0.00528  -0.00182
   8 2238488.9      4.5   0.001620634   0.00024   0.00955  -0.00233  -0.01190
   9 2239154.4      4.5   0.005068279   0.00075  -0.00457   0.02509  -0.00974
  10 2239625.4      4.5   0.005241031   0.00077  -0.00297   0.00983   0.02579
  11 2240661.5      4.5   0.000156476   0.00002   0.00235   0.00214  -0.00359
  12 2243110.7      4.5   0.004453098   0.00065   0.02519   0.00417  -0.00136
  13 2243843.8      4.5   0.001389651   0.00020   0.00142  -0.00550  -0.01310
  14 2244997.9      4.5   0.000530137   0.00008   0.00047   0.00477  -0.00740
  15 2245415.7      4.5   0.001430038   0.00021   0.00292  -0.01401   0.00220
  16 2246523.2      4.5   0.000892318   0.00013   0.00039  -0.01064   0.00417
  17 2246969.4      4.5   0.000557911   0.00008   0.00307   0.00577   0.00625
  18 2247035.2      4.5   0.004023543   0.00059   0.02034  -0.00524  -0.01218
  19 2247917.1      4.4   0.000261203   0.00004   0.00575   0.00213  -0.00082
  20 2247972.3      4.4   0.003966196   0.00058   0.00397  -0.02073   0.01163

-----------------------------------------------------------------------------
         ABSORPTION SPECTRUM VIA TRANSITION VELOCITY DIPOLE MOMENTS
-----------------------------------------------------------------------------
State   Energy    Wavelength   fosc        P2         PX        PY        PZ  
        (cm-1)      (nm)                 (au**2)     (au)      (au)      (au) 
-----------------------------------------------------------------------------
   1 2227877.1      4.5   0.027960279   0.42574  -0.11432   0.61025  -0.20064
   2 2228686.6      4.5   0.032800759   0.49962  -0.12332   0.66057  -0.21923
   3 2230733.3      4.5   0.000086156   0.00131   0.03180   0.00196   0.01727
   4 2232074.9      4.5   0.002541201   0.03877   0.03692  -0.18345   0.06124
   5 2232105.7      4.5   0.053520976   0.81648   0.15945  -0.84683   0.27191
   6 2232892.3      4.5   0.001562121   0.02384  -0.06221   0.03457   0.13701
   7 2236815.1      4.5   0.003648963   0.05578  -0.22945  -0.05108   0.02298
   8 2238488.9      4.5   0.001432199   0.02191  -0.09213   0.02270   0.11362
   9 2239154.4      4.5   0.004801593   0.07348   0.04495  -0.24884   0.09767
  10 2239625.4      4.5   0.005195865   0.07953   0.03480  -0.09801  -0.26214
  11 2240661.5      4.5   0.000123000   0.00188  -0.01483  -0.01924   0.03597
  12 2243110.7      4.5   0.004211861   0.06457  -0.25027  -0.03824   0.02174
  13 2243843.8      4.5   0.001251953   0.01920  -0.02182   0.05201   0.12656
  14 2244997.9      4.5   0.000552612   0.00848  -0.00281  -0.04652   0.07942
  15 2245415.7      4.5   0.001387168   0.02129  -0.02736   0.14183  -0.02056
  16 2246523.2      4.5   0.000858292   0.01318  -0.00403   0.10721  -0.04085
  17 2246969.4      4.5   0.000592052   0.00909  -0.02595  -0.05990  -0.06950
  18 2247035.2      4.5   0.003689664   0.05666  -0.19913   0.05099   0.12004
  19 2247917.1      4.4   0.000169173   0.00260  -0.04700  -0.01900   0.00536
  20 2247972.3      4.4   0.003862300   0.05934  -0.03813   0.21000  -0.11742

-------------------------------------------------------------------
                             CD SPECTRUM
-------------------------------------------------------------------
State  Energy     Wavelength     R         MX        MY        MZ   
       (cm-1)       (nm)     (1e40*cgs)   (au)      (au)      (au)  
-------------------------------------------------------------------
   1 2227877.1      4.5     -0.00069  -0.25047  -0.34027  -0.89245
   2 2228686.6      4.5     -0.00440  -0.98515  -0.30691  -0.37045
   3 2230733.3      4.5     -0.00108  -0.00212   0.03408   0.00406
   4 2232074.9      4.5      0.13315  -0.34925  -0.27360  -0.65185
   5 2232105.7      4.5     -0.12127  -0.10995   0.03916   0.19563
   6 2232892.3      4.5     -0.00060  -0.00946   0.00017  -0.00375
   7 2236815.1      4.5      0.00618   0.01827  -0.06578   0.03278
   8 2238488.9      4.5     -0.00024  -0.00227  -0.00966   0.00012
   9 2239154.4      4.5      0.01075   0.36996   0.12223   0.13890
  10 2239625.4      4.5     -0.01647   0.06313  -0.12171   0.05230
  11 2240661.5      4.5      0.01086   0.00293   0.04706   0.02360
  12 2243110.7      4.5     -0.00270   0.01368  -0.08015   0.01176
  13 2243843.8      4.5      0.01516  -0.03544   0.05116  -0.02779
  14 2244997.9      4.5      0.01727   0.00698   0.11125   0.06722
  15 2245415.7      4.5     -0.00990  -0.05638  -0.04326  -0.21077
  16 2246523.2      4.5      0.00191   0.04698   0.01842   0.04360
  17 2246969.4      4.5     -0.00537   0.06169  -0.08520   0.04658
  18 2247035.2      4.5      0.00987   0.00974   0.02822   0.00240
  19 2247917.1      4.4      0.00268   0.00753  -0.01076   0.01796
  20 2247972.3      4.4     -0.03883  -0.31406  -0.12606  -0.12457

Total run time:      576.787 sec

           *** ORCA-CIS/TD-DFT FINISHED WITHOUT ERROR ***

-----------------------
CIS/TD-DFT TOTAL ENERGY
-----------------------

    E(SCF)  =   -378.633866886 Eh
    DE(CIS) =     10.150955111 Eh (Root  1)
    ----------------------------- ---------
    E(tot)  =   -368.482911774 Eh



-------------------------------------------------------------------------------
                          DFT DISPERSION CORRECTION                            
                                                                               
                              DFTD3 V3.1  Rev 1                                
                          USING Becke-Johnson damping                          
-------------------------------------------------------------------------------
The B3LYP functional is recognized
Active option DFTDOPT                   ...         4   

molecular C6(AA) [au] = 1860.619829 


            DFT-D V3
 parameters
 s6 scaling factor         :     1.0000 
 a1 scaling factor         :     0.3981 
 s8 scaling factor         :     1.9889 
 a2 scaling factor         :     4.4211 
 ad hoc parameters k1-k3   :    16.0000     1.3333    -4.0000 

 Edisp/kcal,au: -10.015400980487  -0.015960555699 
 E6   /kcal   :  -4.932248454 
 E8   /kcal   :  -5.083152526 
 % E8         :  50.753360112 

-------------------------   ----------------
Dispersion correction           -0.015960556
-------------------------   ----------------


-------------------------   --------------------
FINAL SINGLE POINT ENERGY      -378.649827441217
-------------------------   --------------------


                            ***************************************
                            *     ORCA property calculations      *
                            ***************************************

                                    ---------------------
                                    Active property flags
                                    ---------------------
   (+) Dipole Moment


------------------------------------------------------------------------------
                       ORCA ELECTRIC PROPERTIES CALCULATION
------------------------------------------------------------------------------

Dipole Moment Calculation                       ... on
Quadrupole Moment Calculation                   ... off
Polarizability Calculation                      ... off
GBWName                                         ... /Users/lailaal-madhagi/Desktop/Testing_XAS_Analysis_code/Imidazole/Liquid//Results_dir_Liquid_element_C_2019-11-05_23-18-50//LES1_1Imdz_2W.xyz_2019-11-05_23-19-17//TDDFT_C-edge.gbw
Electron density file                           ... /Users/lailaal-madhagi/Desktop/Testing_XAS_Analysis_code/Imidazole/Liquid//Results_dir_Liquid_element_C_2019-11-05_23-18-50//LES1_1Imdz_2W.xyz_2019-11-05_23-19-17//TDDFT_C-edge.scfp.tmp
The origin for moment calculation is the CENTER OF MASS  = (-1.274057, -0.059512  0.679664)

-------------
DIPOLE MOMENT
-------------
                                X             Y             Z
Electronic contribution:      0.62986      -0.14357      -0.99035
Nuclear contribution   :     -3.21946      -0.55560      -1.29968
                        -----------------------------------------
Total Dipole Moment    :     -2.58960      -0.69916      -2.29003
                        -----------------------------------------
Magnitude (a.u.)       :      3.52691
Magnitude (Debye)      :      8.96469



--------------------
Rotational spectrum 
--------------------
 
Rotational constants in cm-1:     0.161894     0.029030     0.024774 
Rotational constants in MHz :  4853.457124   870.311538   742.718856 

 Dipole components along the rotational axes: 
x,y,z [a.u.] :     3.481119    -0.175018     0.538764 
x,y,z [Debye]:     8.848301    -0.444861     1.369430 

 

Timings for individual modules:

Sum of individual times         ...      642.059 sec (=  10.701 min)
GTO integral calculation        ...        0.401 sec (=   0.007 min)   0.1 %
SCF iterations                  ...       64.438 sec (=   1.074 min)  10.0 %
CIS module                      ...      577.220 sec (=   9.620 min)  89.9 %
                             ****ORCA TERMINATED NORMALLY****
TOTAL RUN TIME: 0 days 0 hours 10 minutes 42 seconds 757 msec
