8
	Energy:       1.0752728
C         -3.81147       -0.06646       -0.00136
C         -2.34131        0.22659       -0.00531
H         -4.30130        0.49610        0.82086
H         -3.99899       -1.15051        0.14699
H         -4.25567        0.24305       -0.97055
O         -1.95725        1.37482       -0.15773
O         -1.43384       -0.75981        0.15713
H         -1.69769       -1.68224        0.28071
