
                                 *****************
                                 * O   R   C   A *
                                 *****************

           --- An Ab Initio, DFT and Semiempirical electronic structure package ---

                  #######################################################
                  #                        -***-                        #
                  #          Department of theory and spectroscopy      #
                  #               Directorship: Frank Neese             #
                  #        Max Planck Institute fuer Kohlenforschung    #
                  #                Kaiser Wilhelm Platz 1               #
                  #                 D-45470 Muelheim/Ruhr               #
                  #                      Germany                        #
                  #                                                     #
                  #                  All rights reserved                #
                  #                        -***-                        #
                  #######################################################


                         Program Version 4.1.0  - RELEASE  -


 With contributions from (in alphabetic order):
   Daniel Aravena         : Magnetic Properties
   Michael Atanasov       : Ab Initio Ligand Field Theory
   Alexander A. Auer      : GIAO ZORA
   Ute Becker             : Parallelization
   Giovanni Bistoni       : ED, Open-shell LED
   Martin Brehm           : Molecular dynamics
   Dmytro Bykov           : SCF Hessian
   Vijay G. Chilkuri      : MRCI spin determinant printing
   Dipayan Datta          : RHF DLPNO-CCSD density
   Achintya Kumar Dutta   : EOM-CC, STEOM-CC
   Dmitry Ganyushin       : Spin-Orbit,Spin-Spin,Magnetic field MRCI
   Miquel Garcia          : C-PCM Hessian
   Yang Guo               : DLPNO-NEVPT2, CIM, IAO-localization
   Andreas Hansen         : Spin unrestricted coupled pair/coupled cluster methods
   Benjamin Helmich-Paris : CASSCF linear response (MC-RPA)
   Lee Huntington         : MR-EOM, pCC
   Robert Izsak           : Overlap fitted RIJCOSX, COSX-SCS-MP3, EOM
   Christian Kollmar      : KDIIS, OOCD, Brueckner-CCSD(T), CCSD density
   Simone Kossmann        : Meta GGA functionals, TD-DFT gradient, OOMP2, MP2 Hessian
   Martin Krupicka        : AUTO-CI
   Lucas Lang             : DCDCAS
   Dagmar Lenk            : GEPOL surface, SMD
   Dimitrios Liakos       : Extrapolation schemes; parallel MDCI
   Dimitrios Manganas     : ROCIS; embedding schemes
   Dimitrios Pantazis     : SARC Basis sets
   Taras Petrenko         : DFT Hessian,TD-DFT gradient, ASA, ECA, R-Raman, ABS, FL, XAS/XES, NRVS
   Peter Pinski           : DLPNO-MP2, DLPNO-MP2 Gradient
   Christoph Reimann      : Effective Core Potentials
   Marius Retegan         : Local ZFS, SOC
   Christoph Riplinger    : Optimizer, TS searches, QM/MM, DLPNO-CCSD(T), (RO)-DLPNO pert. Triples
   Tobias Risthaus        : Range-separated hybrids, TD-DFT gradient, RPA, STAB
   Michael Roemelt        : Restricted open shell CIS
   Masaaki Saitow         : Open-shell DLPNO
   Barbara Sandhoefer     : DKH picture change effects
   Avijit Sen             : IP-ROCIS
   Kantharuban Sivalingam : CASSCF convergence, NEVPT2, FIC-MRCI
   Bernardo de Souza      : ESD, SOC TD-DFT
   Georgi Stoychev        : AutoAux, RI-MP2 NMR
   Willem Van den Heuvel  : Paramagnetic NMR
   Boris Wezisla          : Elementary symmetry handling
   Frank Wennmohs         : Technical directorship


 We gratefully acknowledge several colleagues who have allowed us to
 interface, adapt or use parts of their codes:
   Stefan Grimme, W. Hujo, H. Kruse,             : VdW corrections, initial TS optimization,
                  C. Bannwarth                     DFT functionals, gCP, sTDA/sTD-DF
   Ed Valeev                                     : LibInt (2-el integral package), F12 methods
   Garnet Chan, S. Sharma, J. Yang, R. Olivares  : DMRG
   Ulf Ekstrom                                   : XCFun DFT Library
   Mihaly Kallay                                 : mrcc  (arbitrary order and MRCC methods)
   Andreas Klamt, Michael Diedenhofen            : otool_cosmo (COSMO solvation model)
   Jiri Pittner, Ondrej Demel                    : Mk-CCSD
   Frank Weinhold                                : gennbo (NPA and NBO analysis)
   Christopher J. Cramer and Donald G. Truhlar   : smd solvation model
   Lars Goerigk                                  : TD-DFT with DH, B97 family of functionals
   V. Asgeirsson, H. Jonsson                     : NEB implementation
   FAccTs GmbH                                   : IRC, NEB, NEB-TS, Multilevel


 Your calculation uses the libint2 library for the computation of 2-el integrals
 For citations please refer to: http://libint.valeyev.net

 This ORCA versions uses:
   CBLAS   interface :  Fast vector & matrix operations
   LAPACKE interface :  Fast linear algebra routines
   SCALAPACK package :  Parallel linear algebra routines




***************************************
The coordinates will be read from file: /Users/lailaal-madhagi/Desktop/Testing_XAS_Analysis_code/OrthoNitroAniline//Results_dir_OrthoNitroAniline_geom_element_O_2019-11-13_22-09-46//GTE1_OrthoNitroAniline_geom_2019-11-13_22-09-59//opt.xyz
***************************************


----- Orbital basis set information -----
Your calculation utilizes the basis: 6-31G*
   H-He, Li-Ne : W. J. Hehre, R. Ditchfield and J.A. Pople, J. Chem. Phys. 56, 2257 (1972).
                 Note: He and Ne are unpublished basis sets taken from the Gaussian program.
                 Note: Li and B from J. D. Dill and J. A. Pople, J. Chem. Phys. 62, 2921 (1975).
   Na - Ar     : M. M. Francl, W. J. Pietro, W. J. Hehre, J. S. Binkley, M. S. Gordon, 
                 D. J. DeFrees and J. A. Pople, J. Chem. Phys. 77, 3654 (1982).
   K - Zn      : V. A. Rassolov, J. A. Pople, M. A. Ratner, and T. L. Windus, J. Chem. Phys. 109, 1223 (1998).

================================================================================
                                        WARNINGS
                       Please study these warnings very carefully!
================================================================================

INFO   : Checking CIS options ...

WARNING: CIS/ROCIS methods need fully converged wavefunctions
  ===> : Setting SCFConvForced true
         You can overwrite this default with %scf ConvForced false 


INFO   : the flag for use of LIBINT has been found!

================================================================================
                                       INPUT FILE
================================================================================
NAME = /Users/lailaal-madhagi/Desktop/Testing_XAS_Analysis_code/OrthoNitroAniline//Results_dir_OrthoNitroAniline_geom_element_O_2019-11-13_22-09-46//GTE1_OrthoNitroAniline_geom_2019-11-13_22-09-59//TDDFT_O-edge.inp
|  1> #This is O K-edge calculation 
|  2> ! B3LYP 6-31G* TIGHTSCF Grid3 FinalGrid5 
|  3> !NormalPrint 
|  4> %output 
|  5> Print[P_Basis] 2 
|  6> Print[P_MOS] 1 
|  7> end 
|  8> 
|  9> %tddft 
| 10> orbwin[0]=0,1,-1,-1 
| 11> nroots=20 
| 12> maxdim=200 
| 13> end 
| 14> *xyzfile 0 1 /Users/lailaal-madhagi/Desktop/Testing_XAS_Analysis_code/OrthoNitroAniline//Results_dir_OrthoNitroAniline_geom_element_O_2019-11-13_22-09-46//GTE1_OrthoNitroAniline_geom_2019-11-13_22-09-59//opt.xyz                           ****END OF INPUT****
================================================================================

                       ****************************
                       * Single Point Calculation *
                       ****************************

---------------------------------
CARTESIAN COORDINATES (ANGSTROEM)
---------------------------------
  C     -1.453466    0.884668   -0.193535
  C     -0.067577    1.089851   -0.311908
  C     -1.968273   -0.382890   -0.000368
  C     -1.080026   -1.471491    0.076647
  C      0.283940   -1.285680   -0.037725
  C      0.849431    0.001601   -0.236866
  N      2.195643    0.132573   -0.343264
  H      2.587057    1.053203   -0.484577
  H      2.786313   -0.681577   -0.280634
  N      0.379638    2.453657   -0.512768
  O     -0.464865    3.348934   -0.568083
  O      1.601014    2.677999   -0.622842
  H      0.959313   -2.135933    0.023804
  H     -3.039248   -0.532221    0.089635
  H     -1.465415   -2.476600    0.228180
  H     -2.096499    1.753516   -0.259386

----------------------------
CARTESIAN COORDINATES (A.U.)
----------------------------
  NO LB      ZA    FRAG     MASS         X           Y           Z
   0 C     6.0000    0    12.011   -2.746653    1.671780   -0.365728
   1 C     6.0000    0    12.011   -0.127702    2.059520   -0.589421
   2 C     6.0000    0    12.011   -3.719498   -0.723558   -0.000696
   3 C     6.0000    0    12.011   -2.040954   -2.780715    0.144842
   4 C     6.0000    0    12.011    0.536568   -2.429584   -0.071291
   5 C     6.0000    0    12.011    1.605193    0.003025   -0.447612
   6 N     7.0000    0    14.007    4.149163    0.250527   -0.648674
   7 H     1.0000    0     1.008    4.888829    1.990265   -0.915717
   8 H     1.0000    0     1.008    5.265369   -1.287993   -0.530321
   9 N     7.0000    0    14.007    0.717413    4.636739   -0.968991
  10 O     8.0000    0    15.999   -0.878467    6.328569   -1.073522
  11 O     8.0000    0    15.999    3.025478    5.060684   -1.177001
  12 H     1.0000    0     1.008    1.812839   -4.036328    0.044983
  13 H     1.0000    0     1.008   -5.743347   -1.005753    0.169386
  14 H     1.0000    0     1.008   -2.769232   -4.680096    0.431197
  15 H     1.0000    0     1.008   -3.961810    3.313666   -0.490168

--------------------------------
INTERNAL COORDINATES (ANGSTROEM)
--------------------------------
 C      0   0   0     0.000000000000     0.00000000     0.00000000
 C      1   0   0     1.405987804185     0.00000000     0.00000000
 C      1   2   0     1.381681474169   120.85856055     0.00000000
 C      3   1   2     1.407112574247   118.82854799     0.00000000
 C      4   3   1     1.381307153819   120.97940138     0.00000000
 C      5   4   3     1.420046140284   121.78775487     0.00000000
 N      6   5   4     1.356745642426   119.57979386   180.00408953
 H      7   6   5     1.010313570352   118.90406497   180.01523286
 H      7   6   5     1.007796859823   119.91344344     0.00000000
 N      2   1   3     1.449245365045   116.94751926   179.99297360
 O     10   2   1     1.231977053476   118.59072818     0.02386503
 O     10   2   1     1.246677184725   118.94057905   180.01545582
 H      5   4   3     1.087586502024   120.22122470   179.99108439
 H      3   1   2     1.085075066858   120.37152359   180.01919176
 H      4   3   1     1.087074607510   119.94355041   180.00685352
 H      1   2   3     1.082924633366   117.58726541   180.00259682

---------------------------
INTERNAL COORDINATES (A.U.)
---------------------------
 C      0   0   0     0.000000000000     0.00000000     0.00000000
 C      1   0   0     2.656931897542     0.00000000     0.00000000
 C      1   2   0     2.610999590491   120.85856055     0.00000000
 C      3   1   2     2.659057404924   118.82854799     0.00000000
 C      4   3   1     2.610292227544   120.97940138     0.00000000
 C      5   4   3     2.683498302668   121.78775487     0.00000000
 N      6   5   4     2.563877697576   119.57979386   180.00408953
 H      7   6   5     1.909215957349   118.90406497   180.01523286
 H      7   6   5     1.904460063691   119.91344344     0.00000000
 N      2   1   3     2.738676840789   116.94751926   179.99297360
 O     10   2   1     2.328099234346   118.59072818     0.02386503
 O     10   2   1     2.355878456537   118.94057905   180.01545582
 H      5   4   3     2.055240635774   120.22122470   179.99108439
 H      3   1   2     2.050494711108   120.37152359   180.01919176
 H      4   3   1     2.054273295333   119.94355041   180.00685352
 H      1   2   3     2.046430980739   117.58726541   180.00259682

---------------------
BASIS SET INFORMATION
---------------------
There are 4 groups of distinct atoms

 Group   1 Type C   : 10s4p1d contracted to 3s2p1d pattern {631/31/1}
 Group   2 Type N   : 10s4p1d contracted to 3s2p1d pattern {631/31/1}
 Group   3 Type H   : 4s contracted to 2s pattern {31}
 Group   4 Type O   : 10s4p1d contracted to 3s2p1d pattern {631/31/1}

Atom   0C    basis set group =>   1
Atom   1C    basis set group =>   1
Atom   2C    basis set group =>   1
Atom   3C    basis set group =>   1
Atom   4C    basis set group =>   1
Atom   5C    basis set group =>   1
Atom   6N    basis set group =>   2
Atom   7H    basis set group =>   3
Atom   8H    basis set group =>   3
Atom   9N    basis set group =>   2
Atom  10O    basis set group =>   4
Atom  11O    basis set group =>   4
Atom  12H    basis set group =>   3
Atom  13H    basis set group =>   3
Atom  14H    basis set group =>   3
Atom  15H    basis set group =>   3

-------------------------
BASIS SET IN INPUT FORMAT
-------------------------

 # Basis set for element : H 
 NewGTO H 
 S 3 
   1      18.7311370000      0.0334945995
   2       2.8253937000      0.2347269467
   3       0.6401217000      0.8137573184
 S 1 
   1       0.1612778000      1.0000000000
  end;

 # Basis set for element : C 
 NewGTO C 
 S 6 
   1    3047.5249000000      0.0018347002
   2     457.3695100000      0.0140373012
   3     103.9486900000      0.0688426061
   4      29.2101550000      0.2321844206
   5       9.2866630000      0.4679413416
   6       3.1639270000      0.3623120322
 S 3 
   1       7.8682724000     -0.1193324086
   2       1.8812885000     -0.1608542116
   3       0.5442493000      1.1434564826
 P 3 
   1       7.8682724000      0.0689990956
   2       1.8812885000      0.3164239798
   3       0.5442493000      0.7443082524
 S 1 
   1       0.1687144000      1.0000000000
 P 1 
   1       0.1687144000      1.0000000000
 D 1 
   1       0.8000000000      1.0000000000
  end;

 # Basis set for element : N 
 NewGTO N 
 S 6 
   1    4173.5110000000      0.0018347994
   2     627.4579000000      0.0139949958
   3     142.9021000000      0.0685869792
   4      40.2343300000      0.2322409295
   5      12.8202100000      0.4690698576
   6       4.3904370000      0.3604548906
 S 3 
   1      11.6263580000     -0.1149610229
   2       2.7162800000     -0.1691180337
   3       0.7722180000      1.1458522281
 P 3 
   1      11.6263580000      0.0675800232
   2       2.7162800000      0.3239071114
   3       0.7722180000      0.7408952549
 S 1 
   1       0.2120313000      1.0000000000
 P 1 
   1       0.2120313000      1.0000000000
 D 1 
   1       0.8000000000      1.0000000000
  end;

 # Basis set for element : O 
 NewGTO O 
 S 6 
   1    5484.6717000000      0.0018310998
   2     825.2349500000      0.0139500985
   3     188.0469600000      0.0684450927
   4      52.9645000000      0.2327142753
   5      16.8975700000      0.4701929501
   6       5.7996353000      0.3585208619
 S 3 
   1      15.5396160000     -0.1107775038
   2       3.5999336000     -0.1480263051
   3       1.0137618000      1.1307670390
 P 3 
   1      15.5396160000      0.0708742995
   2       3.5999336000      0.3397527978
   3       1.0137618000      0.7271585953
 S 1 
   1       0.2700058000      1.0000000000
 P 1 
   1       0.2700058000      1.0000000000
 D 1 
   1       0.8000000000      1.0000000000
  end;

------------------------------------------------------------------------------
                           ORCA GTO INTEGRAL CALCULATION
------------------------------------------------------------------------------

                         BASIS SET STATISTICS AND STARTUP INFO

 # of primitive gaussian shells          ...  174
 # of primitive gaussian functions       ...  294
 # of contracted shells                  ...   72
 # of contracted basis functions         ...  152
 Highest angular momentum                ...    2
 Maximum contraction depth               ...    6
 Integral package used                   ... LIBINT
 Integral threshhold            Thresh   ...  2.500e-11
 Primitive cut-off              TCut     ...  2.500e-12


------------------------------ INTEGRAL EVALUATION ----------------------------


 * One electron integrals 
 Pre-screening matrix                    ... done
 Shell pair data                         ... done (   0.003 sec)

-------------------------------------------------------------------------------
                                 ORCA SCF
-------------------------------------------------------------------------------

------------
SCF SETTINGS
------------
Hamiltonian:
 Density Functional     Method          .... DFT(GTOs)
 Exchange Functional    Exchange        .... B88
   X-Alpha parameter    XAlpha          ....  0.666667
   Becke's b parameter  XBeta           ....  0.004200
 Correlation Functional Correlation     .... LYP
 LDA part of GGA corr.  LDAOpt          .... VWN-5
 Gradients option       PostSCFGGA      .... off
 Hybrid DFT is turned on
   Fraction HF Exchange ScalHFX         ....  0.200000
   Scaling of DF-GGA-X  ScalDFX         ....  0.720000
   Scaling of DF-GGA-C  ScalDFC         ....  0.810000
   Scaling of DF-LDA-C  ScalLDAC        ....  1.000000
   Perturbative correction              ....  0.000000
   Density functional embedding theory  .... OFF
   NL short-range parameter             ....  4.800000


General Settings:
 Integral files         IntName         .... /Users/lailaal-madhagi/Desktop/Testing_XAS_Analysis_code/OrthoNitroAniline//Results_dir_OrthoNitroAniline_geom_element_O_2019-11-13_22-09-46//GTE1_OrthoNitroAniline_geom_2019-11-13_22-09-59//TDDFT_O-edge
 Hartree-Fock type      HFTyp           .... RHF
 Total Charge           Charge          ....    0
 Multiplicity           Mult            ....    1
 Number of Electrons    NEL             ....   72
 Basis Dimension        Dim             ....  152
 Nuclear Repulsion      ENuc            ....    508.0531549874 Eh

Convergence Acceleration:
 DIIS                   CNVDIIS         .... on
   Start iteration      DIISMaxIt       ....    12
   Startup error        DIISStart       ....  0.200000
   # of expansion vecs  DIISMaxEq       ....     5
   Bias factor          DIISBfac        ....   1.050
   Max. coefficient     DIISMaxC        ....  10.000
 Newton-Raphson         CNVNR           .... off
 SOSCF                  CNVSOSCF        .... on
   Start iteration      SOSCFMaxIt      ....   150
   Startup grad/error   SOSCFStart      ....  0.003300
 Level Shifting         CNVShift        .... on
   Level shift para.    LevelShift      ....    0.2500
   Turn off err/grad.   ShiftErr        ....    0.0010
 Zerner damping         CNVZerner       .... off
 Static damping         CNVDamp         .... on
   Fraction old density DampFac         ....    0.7000
   Max. Damping (<1)    DampMax         ....    0.9800
   Min. Damping (>=0)   DampMin         ....    0.0000
   Turn off err/grad.   DampErr         ....    0.1000
 Fernandez-Rico         CNVRico         .... off

SCF Procedure:
 Maximum # iterations   MaxIter         ....   125
 SCF integral mode      SCFMode         .... Direct
   Integral package                     .... LIBINT
 Reset frequency        DirectResetFreq ....    20
 Integral Threshold     Thresh          ....  2.500e-11 Eh
 Primitive CutOff       TCut            ....  2.500e-12 Eh

Convergence Tolerance:
 Convergence Check Mode ConvCheckMode   .... Total+1el-Energy
 Convergence forced     ConvForced      .... 1
 Energy Change          TolE            ....  1.000e-08 Eh
 1-El. energy change                    ....  1.000e-05 Eh
 Orbital Gradient       TolG            ....  1.000e-05
 Orbital Rotation angle TolX            ....  1.000e-05
 DIIS Error             TolErr          ....  5.000e-07


Diagonalization of the overlap matrix:
Smallest eigenvalue                        ... 4.070e-04
Time for diagonalization                   ...    0.004 sec
Threshold for overlap eigenvalues          ... 1.000e-08
Number of eigenvalues below threshold      ... 0
Time for construction of square roots      ...    0.004 sec
Total time needed                          ...    0.008 sec

-------------------
DFT GRID GENERATION
-------------------

General Integration Accuracy     IntAcc      ...  4.340
Radial Grid Type                 RadialGrid  ... Gauss-Chebyshev
Angular Grid (max. acc.)         AngularGrid ... Lebedev-194
Angular grid pruning method      GridPruning ... 3 (G Style)
Weight generation scheme         WeightScheme... Becke
Basis function cutoff            BFCut       ...    1.0000e-11
Integration weight cutoff        WCut        ...    1.0000e-14
Grids for H and He will be reduced by one unit

# of grid points (after initial pruning)     ...  42208 (   0.1 sec)
# of grid points (after weights+screening)   ...  38902 (   0.1 sec)
nearest neighbour list constructed           ...    0.0 sec
Grid point re-assignment to atoms done       ...    0.0 sec
Grid point division into batches done        ...    0.1 sec
Reduced shell lists constructed in    0.3 sec

Total number of grid points                  ...    38902
Total number of batches                      ...      617
Average number of points per batch           ...       63
Average number of grid points per atom       ...     2431
Average number of shells per batch           ...    47.22 (65.59%)
Average number of basis functions per batch  ...   102.31 (67.31%)
Average number of large shells per batch     ...    35.85 (75.92%)
Average number of large basis fcns per batch ...    77.89 (76.13%)
Maximum spatial batch extension              ...  17.65, 17.39, 20.65 au
Average spatial batch extension              ...   2.87,  2.92,  3.45 au

Time for grid setup =    0.593 sec

------------------------------
INITIAL GUESS: MODEL POTENTIAL
------------------------------
Loading Hartree-Fock densities                     ... done
Calculating cut-offs                               ... done
Setting up the integral package                    ... done
Initializing the effective Hamiltonian             ... done
Starting the Coulomb interaction                   ... done (   0.1 sec)
Reading the grid                                   ... done
Mapping shells                                     ... done
Starting the XC term evaluation                    ... done (   0.5 sec)
  promolecular density results
     # of electrons  =     71.997728657
     EX              =    -62.178056874
     EC              =     -2.494670552
     EX+EC           =    -64.672727427
Transforming the Hamiltonian                       ... done (   0.0 sec)
Diagonalizing the Hamiltonian                      ... done (   0.0 sec)
Back transforming the eigenvectors                 ... done (   0.0 sec)
Now organizing SCF variables                       ... done
                      ------------------
                      INITIAL GUESS DONE (   1.4 sec)
                      ------------------
--------------
SCF ITERATIONS
--------------
               ***  Starting incremental Fock matrix formation  ***

                         ----------------------------
                         !        ITERATION     0   !
                         ----------------------------
   Total Energy        :    -491.531610334133 Eh
   Energy Change       :    -491.531610334133 Eh
   MAX-DP              :       0.088417736868
   RMS-DP              :       0.002759959846
   Actual Damping      :       0.7000
   Actual Level Shift  :       0.2500 Eh
   Int. Num. El.       :    72.00025149 (UP=   36.00012574 DN=   36.00012574)
   Exchange            :   -50.66510025
   Correlation         :    -2.95926497


                         ----------------------------
                         !        ITERATION     1   !
                         ----------------------------
   Total Energy        :    -491.676551922511 Eh
   Energy Change       :      -0.144941588378 Eh
   MAX-DP              :       0.053165347037
   RMS-DP              :       0.001720286356
   Actual Damping      :       0.7000
   Actual Level Shift  :       0.2500 Eh
   Int. Num. El.       :    72.00030466 (UP=   36.00015233 DN=   36.00015233)
   Exchange            :   -50.36260457
   Correlation         :    -2.94892050

                               ***Turning on DIIS***

                         ----------------------------
                         !        ITERATION     2   !
                         ----------------------------
   Total Energy        :    -491.726760741822 Eh
   Energy Change       :      -0.050208819311 Eh
   MAX-DP              :       0.071740953783
   RMS-DP              :       0.002610830365
   Actual Damping      :       0.0000
   Actual Level Shift  :       0.2500 Eh
   Int. Num. El.       :    72.00034596 (UP=   36.00017298 DN=   36.00017298)
   Exchange            :   -50.17272378
   Correlation         :    -2.94186243
   DIIS-Error          :       0.035030137741


                         ----------------------------
                         !        ITERATION     3   !
                         ----------------------------
   Total Energy        :    -491.816023507101 Eh
   Energy Change       :      -0.089262765279 Eh
   MAX-DP              :       0.035454190582
   RMS-DP              :       0.001129391272
   Actual Damping      :       0.0000
   Actual Level Shift  :       0.2500 Eh
   Int. Num. El.       :    72.00042629 (UP=   36.00021315 DN=   36.00021315)
   Exchange            :   -49.88861196
   Correlation         :    -2.93041447
   DIIS-Error          :       0.054250515799
   DIIS coefficients:
      0.61039   0.38961


                         ----------------------------
                         !        ITERATION     4   !
                         ----------------------------
   Total Energy        :    -491.830673491751 Eh
   Energy Change       :      -0.014649984650 Eh
   MAX-DP              :       0.011783639243
   RMS-DP              :       0.000409707657
   Actual Damping      :       0.0000
   Actual Level Shift  :       0.2500 Eh
   Int. Num. El.       :    72.00040902 (UP=   36.00020451 DN=   36.00020451)
   Exchange            :   -49.98965063
   Correlation         :    -2.93444008
   DIIS-Error          :       0.017320502178
   DIIS coefficients:
      0.30161   0.12335   0.57504


                         ----------------------------
                         !        ITERATION     5   !
                         ----------------------------
   Total Energy        :    -491.832253087810 Eh
   Energy Change       :      -0.001579596059 Eh
   MAX-DP              :       0.003211099292
   RMS-DP              :       0.000133550894
   Actual Damping      :       0.0000
   Actual Level Shift  :       0.2500 Eh
   Int. Num. El.       :    72.00040087 (UP=   36.00020043 DN=   36.00020043)
   Exchange            :   -50.01773842
   Correlation         :    -2.93582335
   DIIS-Error          :       0.003656627776
   DIIS coefficients:
      0.07293   0.02085   0.08869   0.81753

                      *** Initiating the SOSCF procedure ***
                           *** Shutting down DIIS ***
                      *** Re-Reading the Fockian *** 
                      *** Removing any level shift *** 

                         ----------------------------
                         !        ITERATION     6   !
                         ----------------------------
   Total Energy        :    -491.832313504669 Eh
   Energy Change       :      -0.000060416859 Eh
   MAX-DP              :       0.001489013149
   RMS-DP              :       0.000041016567
   Orbital gradient    :       0.000406435868
   Orbital Rotation    :       0.000406435868
   Actual Damping      :       0.0000
   Int. Num. El.       :    72.00040003 (UP=   36.00020001 DN=   36.00020001)
   Exchange            :   -50.02767606
   Correlation         :    -2.93613275

               *** Restarting incremental Fock matrix formation ***

                         ----------------------------
                         !        ITERATION     7   !
                         ----------------------------
   Total Energy        :    -491.832322055461 Eh
   Energy Change       :      -0.000008550792 Eh
   MAX-DP              :       0.001414386164
   RMS-DP              :       0.000034779483
   Orbital gradient    :       0.000231621985
   Orbital Rotation    :       0.001050915139
   Actual Damping      :       0.0000
   Int. Num. El.       :    72.00040021 (UP=   36.00020010 DN=   36.00020010)
   Exchange            :   -50.02726615
   Correlation         :    -2.93612765


                         ----------------------------
                         !        ITERATION     8   !
                         ----------------------------
   Total Energy        :    -491.832319894336 Eh
   Energy Change       :       0.000002161125 Eh
   MAX-DP              :       0.001028578816
   RMS-DP              :       0.000022084656
   Orbital gradient    :       0.000822360038
   Orbital Rotation    :       0.001107447786
   Actual Damping      :       0.0000
   Int. Num. El.       :    72.00039993 (UP=   36.00019997 DN=   36.00019997)
   Exchange            :   -50.02705192
   Correlation         :    -2.93612401


                         ----------------------------
                         !        ITERATION     9   !
                         ----------------------------
   Total Energy        :    -491.832323928930 Eh
   Energy Change       :      -0.000004034594 Eh
   MAX-DP              :       0.000386760433
   RMS-DP              :       0.000013126094
   Orbital gradient    :       0.000127150279
   Orbital Rotation    :       0.000324116303
   Actual Damping      :       0.0000
   Int. Num. El.       :    72.00040033 (UP=   36.00020017 DN=   36.00020017)
   Exchange            :   -50.02723993
   Correlation         :    -2.93612587


                         ----------------------------
                         !        ITERATION    10   !
                         ----------------------------
   Total Energy        :    -491.832323604553 Eh
   Energy Change       :       0.000000324377 Eh
   MAX-DP              :       0.000271653357
   RMS-DP              :       0.000007569668
   Orbital gradient    :       0.000153351428
   Orbital Rotation    :       0.000196810106
   Actual Damping      :       0.0000
   Int. Num. El.       :    72.00040030 (UP=   36.00020015 DN=   36.00020015)
   Exchange            :   -50.02738872
   Correlation         :    -2.93612522


                         ----------------------------
                         !        ITERATION    11   !
                         ----------------------------
   Total Energy        :    -491.832324180101 Eh
   Energy Change       :      -0.000000575548 Eh
   MAX-DP              :       0.000084099607
   RMS-DP              :       0.000002674160
   Orbital gradient    :       0.000024486801
   Orbital Rotation    :       0.000107285127
   Actual Damping      :       0.0000
   Int. Num. El.       :    72.00040027 (UP=   36.00020014 DN=   36.00020014)
   Exchange            :   -50.02722790
   Correlation         :    -2.93612447


                         ----------------------------
                         !        ITERATION    12   !
                         ----------------------------
   Total Energy        :    -491.832324168185 Eh
   Energy Change       :       0.000000011916 Eh
   MAX-DP              :       0.000058499791
   RMS-DP              :       0.000001403045
   Orbital gradient    :       0.000041548451
   Orbital Rotation    :       0.000033635329
   Actual Damping      :       0.0000
   Int. Num. El.       :    72.00040026 (UP=   36.00020013 DN=   36.00020013)
   Exchange            :   -50.02727830
   Correlation         :    -2.93612614


                         ----------------------------
                         !        ITERATION    13   !
                         ----------------------------
   Total Energy        :    -491.832324189565 Eh
   Energy Change       :      -0.000000021380 Eh
   MAX-DP              :       0.000013261502
   RMS-DP              :       0.000000526637
   Orbital gradient    :       0.000002763012
   Orbital Rotation    :       0.000020761318
   Actual Damping      :       0.0000
   Int. Num. El.       :    72.00040027 (UP=   36.00020014 DN=   36.00020014)
   Exchange            :   -50.02726453
   Correlation         :    -2.93612547

                  ***Gradient check signals convergence***
              ***Rediagonalizing the Fockian in SOSCF/NRSCF***

               *****************************************************
               *                     SUCCESS                       *
               *           SCF CONVERGED AFTER  14 CYCLES          *
               *****************************************************

Setting up the final grid:

General Integration Accuracy     IntAcc      ...  5.010
Radial Grid Type                 RadialGrid  ... Gauss-Chebyshev
Angular Grid (max. acc.)         AngularGrid ... Lebedev-434
Angular grid pruning method      GridPruning ... 3 (G Style)
Weight generation scheme         WeightScheme... Becke
Basis function cutoff            BFCut       ...    1.0000e-11
Integration weight cutoff        WCut        ...    1.0000e-14
Grids for H and He will be reduced by one unit

# of grid points (after initial pruning)     ... 147204 (   0.1 sec)
# of grid points (after weights+screening)   ... 134374 (   0.3 sec)
nearest neighbour list constructed           ...    0.0 sec
Grid point re-assignment to atoms done       ...    0.0 sec
Grid point division into batches done        ...    0.8 sec
Reduced shell lists constructed in    1.4 sec

Total number of grid points                  ...   134374
Total number of batches                      ...     2107
Average number of points per batch           ...       63
Average number of grid points per atom       ...     8398
Average number of shells per batch           ...    43.61 (60.57%)
Average number of basis functions per batch  ...    94.01 (61.85%)
Average number of large shells per batch     ...    32.53 (74.59%)
Average number of large basis fcns per batch ...    70.53 (75.03%)
Maximum spatial batch extension              ...  16.38, 18.79, 23.86 au
Average spatial batch extension              ...   1.99,  2.02,  2.23 au

Final grid set up in    1.8 sec
Final integration                            ... done (   1.9 sec)
Change in XC energy                          ...    -0.000152699
Integrated number of electrons               ...    71.999999737
Previous integrated no of electrons          ...    72.000400274

----------------
TOTAL SCF ENERGY
----------------

Total Energy       :         -491.83247689 Eh          -13383.44210 eV

Components:
Nuclear Repulsion  :          508.05315499 Eh           13824.82919 eV
Electronic Energy  :         -999.88563187 Eh          -27208.27129 eV
One Electron Energy:        -1676.06710012 Eh          -45608.10447 eV
Two Electron Energy:          676.18146825 Eh           18399.83318 eV

Virial components:
Potential Energy   :         -980.76836984 Eh          -26688.06414 eV
Kinetic Energy     :          488.93589296 Eh           13304.62204 eV
Virial Ratio       :            2.00592426


DFT components:
N(Alpha)           :       35.999999868544 electrons
N(Beta)            :       35.999999868544 electrons
N(Total)           :       71.999999737087 electrons
E(X)               :      -50.027360017107 Eh       
E(C)               :       -2.936165295772 Eh       
E(XC)              :      -52.963525312880 Eh       
DFET-embed. en.    :        0.000000000000 Eh       

---------------
SCF CONVERGENCE
---------------

  Last Energy change         ...    6.7701e-10  Tolerance :   1.0000e-08
  Last MAX-Density change    ...    7.3696e-06  Tolerance :   1.0000e-07
  Last RMS-Density change    ...    2.4054e-07  Tolerance :   5.0000e-09
  Last Orbital Gradient      ...    2.3380e-06  Tolerance :   1.0000e-05
  Last Orbital Rotation      ...    8.7860e-06  Tolerance :   1.0000e-05

             **** THE GBW FILE WAS UPDATED (/Users/lailaal-madhagi/Desktop/Testing_XAS_Analysis_code/OrthoNitroAniline//Results_dir_OrthoNitroAniline_geom_element_O_2019-11-13_22-09-46//GTE1_OrthoNitroAniline_geom_2019-11-13_22-09-59//TDDFT_O-edge.gbw) ****
             **** DENSITY FILE WAS UPDATED (/Users/lailaal-madhagi/Desktop/Testing_XAS_Analysis_code/OrthoNitroAniline//Results_dir_OrthoNitroAniline_geom_element_O_2019-11-13_22-09-46//GTE1_OrthoNitroAniline_geom_2019-11-13_22-09-59//TDDFT_O-edge.scfp.tmp) ****
             **** ENERGY FILE WAS UPDATED (/Users/lailaal-madhagi/Desktop/Testing_XAS_Analysis_code/OrthoNitroAniline//Results_dir_OrthoNitroAniline_geom_element_O_2019-11-13_22-09-46//GTE1_OrthoNitroAniline_geom_2019-11-13_22-09-59//TDDFT_O-edge.en.tmp) ****
----------------
ORBITAL ENERGIES
----------------

  NO   OCC          E(Eh)            E(eV) 
   0   2.0000     -19.164005      -521.4791 
   1   2.0000     -19.161865      -521.4209 
   2   2.0000     -14.555624      -396.0787 
   3   2.0000     -14.352095      -390.5404 
   4   2.0000     -10.259527      -279.1759 
   5   2.0000     -10.234361      -278.4911 
   6   2.0000     -10.203952      -277.6637 
   7   2.0000     -10.199951      -277.5548 
   8   2.0000     -10.196010      -277.4475 
   9   2.0000     -10.187981      -277.2290 
  10   2.0000      -1.208100       -32.8741 
  11   2.0000      -1.033443       -28.1214 
  12   2.0000      -0.943814       -25.6825 
  13   2.0000      -0.860996       -23.4289 
  14   2.0000      -0.799939       -21.7675 
  15   2.0000      -0.747800       -20.3487 
  16   2.0000      -0.690135       -18.7795 
  17   2.0000      -0.627541       -17.0763 
  18   2.0000      -0.604601       -16.4520 
  19   2.0000      -0.553250       -15.0547 
  20   2.0000      -0.527412       -14.3516 
  21   2.0000      -0.523315       -14.2401 
  22   2.0000      -0.518417       -14.1069 
  23   2.0000      -0.500706       -13.6249 
  24   2.0000      -0.473205       -12.8766 
  25   2.0000      -0.443388       -12.0652 
  26   2.0000      -0.440778       -11.9942 
  27   2.0000      -0.399649       -10.8750 
  28   2.0000      -0.387854       -10.5540 
  29   2.0000      -0.366575        -9.9750 
  30   2.0000      -0.329077        -8.9547 
  31   2.0000      -0.297478        -8.0948 
  32   2.0000      -0.296317        -8.0632 
  33   2.0000      -0.278506        -7.5785 
  34   2.0000      -0.270325        -7.3559 
  35   2.0000      -0.218237        -5.9385 
  36   0.0000      -0.075714        -2.0603 
  37   0.0000      -0.000674        -0.0183 
  38   0.0000       0.015817         0.4304 
  39   0.0000       0.078758         2.1431 
  40   0.0000       0.089319         2.4305 
  41   0.0000       0.135916         3.6985 
  42   0.0000       0.151499         4.1225 
  43   0.0000       0.159101         4.3293 
  44   0.0000       0.167987         4.5712 
  45   0.0000       0.187400         5.0994 
  46   0.0000       0.204544         5.5659 
  47   0.0000       0.248583         6.7643 
  48   0.0000       0.271457         7.3867 
  49   0.0000       0.294391         8.0108 
  50   0.0000       0.312172         8.4946 
  51   0.0000       0.342918         9.3313 
  52   0.0000       0.348190         9.4747 
  53   0.0000       0.391453        10.6520 
  54   0.0000       0.493557        13.4304 
  55   0.0000       0.500951        13.6316 
  56   0.0000       0.505731        13.7616 
  57   0.0000       0.522960        14.2305 
  58   0.0000       0.545400        14.8411 
  59   0.0000       0.570806        15.5324 
  60   0.0000       0.576637        15.6911 
  61   0.0000       0.582321        15.8458 
  62   0.0000       0.590997        16.0819 
  63   0.0000       0.599735        16.3196 
  64   0.0000       0.605908        16.4876 
  65   0.0000       0.615953        16.7609 
  66   0.0000       0.648590        17.6490 
  67   0.0000       0.652755        17.7624 
  68   0.0000       0.655008        17.8237 
  69   0.0000       0.725926        19.7534 
  70   0.0000       0.727705        19.8019 
  71   0.0000       0.742334        20.1999 
  72   0.0000       0.790121        21.5003 
  73   0.0000       0.817520        22.2458 
  74   0.0000       0.827026        22.5045 
  75   0.0000       0.832223        22.6459 
  76   0.0000       0.839939        22.8559 
  77   0.0000       0.844547        22.9813 
  78   0.0000       0.881711        23.9926 
  79   0.0000       0.904480        24.6122 
  80   0.0000       0.935683        25.4612 
  81   0.0000       0.943430        25.6720 
  82   0.0000       0.958264        26.0757 
  83   0.0000       0.976773        26.5793 
  84   0.0000       0.995360        27.0851 
  85   0.0000       1.006153        27.3788 
  86   0.0000       1.033302        28.1176 
  87   0.0000       1.051265        28.6064 
  88   0.0000       1.077078        29.3088 
  89   0.0000       1.085240        29.5309 
  90   0.0000       1.149450        31.2781 
  91   0.0000       1.162649        31.6373 
  92   0.0000       1.224742        33.3269 
  93   0.0000       1.240777        33.7633 
  94   0.0000       1.273789        34.6616 
  95   0.0000       1.320726        35.9388 
  96   0.0000       1.336922        36.3795 
  97   0.0000       1.350717        36.7549 
  98   0.0000       1.382961        37.6323 
  99   0.0000       1.402759        38.1710 
 100   0.0000       1.433180        38.9988 
 101   0.0000       1.457441        39.6590 
 102   0.0000       1.467017        39.9195 
 103   0.0000       1.485938        40.4344 
 104   0.0000       1.538991        41.8781 
 105   0.0000       1.609790        43.8046 
 106   0.0000       1.636441        44.5298 
 107   0.0000       1.675794        45.6007 
 108   0.0000       1.722815        46.8802 
 109   0.0000       1.726790        46.9883 
 110   0.0000       1.757860        47.8338 
 111   0.0000       1.770141        48.1680 
 112   0.0000       1.815872        49.4124 
 113   0.0000       1.818672        49.4886 
 114   0.0000       1.839604        50.0582 
 115   0.0000       1.854856        50.4732 
 116   0.0000       1.884023        51.2669 
 117   0.0000       1.915182        52.1148 
 118   0.0000       1.958835        53.3026 
 119   0.0000       1.980211        53.8843 
 120   0.0000       2.003900        54.5289 
 121   0.0000       2.004791        54.5531 
 122   0.0000       2.024363        55.0857 
 123   0.0000       2.078959        56.5714 
 124   0.0000       2.130862        57.9837 
 125   0.0000       2.150643        58.5220 
 126   0.0000       2.154314        58.6219 
 127   0.0000       2.199144        59.8418 
 128   0.0000       2.226188        60.5777 
 129   0.0000       2.257967        61.4424 
 130   0.0000       2.261870        61.5486 
 131   0.0000       2.292507        62.3823 
 132   0.0000       2.347340        63.8744 
 133   0.0000       2.396121        65.2018 
 134   0.0000       2.442838        66.4730 
 135   0.0000       2.498674        67.9924 
 136   0.0000       2.566010        69.8247 
 137   0.0000       2.581820        70.2549 
 138   0.0000       2.585783        70.3627 
 139   0.0000       2.621644        71.3385 
 140   0.0000       2.646434        72.0131 
 141   0.0000       2.699012        73.4439 
 142   0.0000       2.705918        73.6318 
 143   0.0000       2.742153        74.6178 
 144   0.0000       2.844025        77.3898 
 145   0.0000       2.847725        77.4905 
 146   0.0000       2.891335        78.6772 
 147   0.0000       2.940726        80.0212 
 148   0.0000       2.963457        80.6398 
 149   0.0000       3.083979        83.9193 
 150   0.0000       3.256667        88.6184 
 151   0.0000       3.410289        92.7987 
------------------
MOLECULAR ORBITALS
------------------
                      0         1         2         3         4         5   
                 -19.16400 -19.16186 -14.55562 -14.35209 -10.25953 -10.23436
                   2.00000   2.00000   2.00000   2.00000   2.00000   2.00000
                  --------  --------  --------  --------  --------  --------
  0C   1s         0.000014  0.000037 -0.000087 -0.000019  0.000012 -0.005684
  0C   2s         0.000174  0.000394 -0.000759 -0.000054  0.000055  0.002006
  0C   1pz       -0.000026 -0.000017  0.000004 -0.000009  0.000016 -0.000084
  0C   1px        0.000104  0.000010  0.000041  0.000223 -0.000373  0.001132
  0C   1py        0.000153  0.000128 -0.000054 -0.000044  0.000074  0.000066
  0C   3s         0.004312 -0.006709  0.008477  0.006494 -0.009441 -0.015731
  0C   2pz       -0.000305  0.000839  0.000683  0.000483 -0.000524 -0.000696
  0C   2px        0.001882 -0.007154  0.003306  0.001573 -0.002953 -0.005373
  0C   2py        0.001431 -0.002889 -0.007215 -0.004699  0.005759  0.008427
  0C   1dz2       0.000075  0.000075 -0.000231 -0.000001 -0.000026 -0.000483
  0C   1dxz      -0.000009  0.000015  0.000019  0.000017 -0.000008 -0.000192
  0C   1dyz      -0.000006 -0.000020 -0.000020  0.000010 -0.000028 -0.000017
  0C   1dx2y2    -0.000082 -0.000245  0.000035  0.000005 -0.000119  0.001006
  0C   1dxy       0.000181  0.000082 -0.000381 -0.000135  0.000102  0.000542
  1C   1s        -0.000054 -0.000047  0.000065  0.000086  0.006294 -0.995026
  1C   2s        -0.000260 -0.000163  0.000090  0.000832 -0.002276 -0.036658
  1C   1pz       -0.000033 -0.000031  0.000071  0.000014 -0.000081  0.000045
  1C   1px        0.000052  0.000158 -0.000225  0.000035 -0.000650 -0.000202
  1C   1py        0.000231  0.000167 -0.000449 -0.000129  0.000993 -0.000250
  1C   3s         0.003794  0.002835  0.003481 -0.009695  0.021266  0.028346
  1C   2pz        0.000500  0.000779 -0.003261 -0.001788  0.001860  0.002634
  1C   2px        0.009545 -0.012705  0.006330  0.001444  0.000421 -0.002974
  1C   2py       -0.009089  0.000575  0.022640  0.013503 -0.015071 -0.019432
  1C   1dz2       0.000028  0.000026 -0.000022  0.000103  0.000493  0.000953
  1C   1dxz      -0.000058  0.000061 -0.000007 -0.000006 -0.000072  0.000119
  1C   1dyz       0.000015 -0.000003  0.000021  0.000060  0.000054  0.000260
  1C   1dx2y2     0.000262 -0.000248  0.000176  0.000289  0.000097  0.000281
  1C   1dxy       0.000349 -0.000327 -0.000056 -0.000007  0.000981 -0.000195
  2C   1s         0.000027  0.000031 -0.000003  0.000046 -0.000218 -0.000012
  2C   2s         0.000178  0.000233 -0.000126  0.000351 -0.000757  0.000002
  2C   1pz        0.000002 -0.000009  0.000034  0.000001  0.000010 -0.000049
  2C   1px        0.000019 -0.000020 -0.000202  0.000026 -0.000145  0.000288
  2C   1py       -0.000023  0.000085 -0.000166 -0.000019 -0.000004  0.000241
  2C   3s        -0.000815 -0.002223 -0.006302 -0.006183  0.009251  0.009748
  2C   2pz       -0.000009  0.000341  0.000283  0.000356 -0.000512 -0.000520
  2C   2px       -0.000959  0.000723 -0.001982 -0.003019  0.005347  0.003874
  2C   2py        0.000585 -0.003107 -0.001206 -0.001234  0.001237  0.002084
  2C   1dz2       0.000058  0.000090 -0.000053  0.000066 -0.000129  0.000056
  2C   1dxz       0.000008  0.000014 -0.000007  0.000004 -0.000009 -0.000002
  2C   1dyz       0.000017  0.000032 -0.000011  0.000019 -0.000034  0.000004
  2C   1dx2y2     0.000023  0.000062  0.000005  0.000040 -0.000052 -0.000026
  2C   1dxy      -0.000018 -0.000058  0.000002  0.000010 -0.000022  0.000079
  3C   1s        -0.000004 -0.000001 -0.000049 -0.000025  0.000025  0.000400
  3C   2s        -0.000021  0.000012 -0.000410 -0.000098  0.000099  0.000768
  3C   1pz        0.000004  0.000001  0.000016 -0.000025  0.000045 -0.000029
  3C   1px       -0.000046  0.000019 -0.000005  0.000216 -0.000345  0.000064
  3C   1py       -0.000009 -0.000015 -0.000122  0.000088 -0.000178  0.000202
  3C   3s        -0.000988 -0.000399  0.004620  0.007664 -0.010906 -0.007060
  3C   2pz       -0.000024 -0.000095 -0.000401 -0.000496  0.000783  0.000673
  3C   2px       -0.001258  0.001636  0.001504  0.002140 -0.002542 -0.002369
  3C   2py        0.000860 -0.000118  0.002399  0.002817 -0.004895 -0.004109
  3C   1dz2      -0.000004  0.000007 -0.000088  0.000001 -0.000039  0.000145
  3C   1dxz       0.000003 -0.000006 -0.000010 -0.000003  0.000007  0.000016
  3C   1dyz      -0.000002  0.000002 -0.000013 -0.000001 -0.000010  0.000025
  3C   1dx2y2    -0.000019  0.000022  0.000037  0.000006 -0.000050 -0.000037
  3C   1dxy      -0.000016  0.000039 -0.000026  0.000023 -0.000069  0.000029
  4C   1s         0.000033  0.000030 -0.000008  0.000094  0.002625  0.000097
  4C   2s         0.000260  0.000215 -0.000196  0.000780 -0.002183  0.000146
  4C   1pz       -0.000014  0.000000  0.000041  0.000009  0.000142 -0.000048
  4C   1px        0.000064 -0.000040 -0.000017 -0.000015 -0.000291  0.000007
  4C   1py        0.000078  0.000020 -0.000316 -0.000063 -0.000977  0.000383
  4C   3s        -0.001434 -0.000919 -0.006797 -0.010370  0.019212  0.008423
  4C   2pz        0.000353 -0.000065  0.000145  0.000305 -0.000863 -0.000174
  4C   2px       -0.003338  0.001189  0.002653  0.006655 -0.006501 -0.003503
  4C   2py       -0.001038 -0.000115 -0.002573 -0.005980  0.010348  0.003254
  4C   1dz2       0.000082  0.000063 -0.000057  0.000221  0.000407  0.000078
  4C   1dxz       0.000022  0.000013 -0.000018 -0.000028  0.000123  0.000012
  4C   1dyz       0.000023  0.000017 -0.000009  0.000059  0.000214  0.000004
  4C   1dx2y2    -0.000013 -0.000001  0.000060  0.000245  0.000509 -0.000091
  4C   1dxy      -0.000089 -0.000044  0.000057  0.000298 -0.000858  0.000026
  5C   1s         0.000038 -0.000008 -0.000083 -0.000222  0.995163  0.006542
  5C   2s         0.000599  0.000057 -0.000882 -0.000291  0.037146  0.002649
  5C   1pz       -0.000027 -0.000022 -0.000005 -0.000099 -0.000025 -0.000049
  5C   1px        0.000149 -0.000060  0.000099  0.001074  0.000231 -0.000811
  5C   1py        0.000132  0.000205 -0.000015  0.000216  0.000080  0.000821
  5C   3s        -0.005890  0.005514  0.007510  0.000729 -0.033457 -0.017525
  5C   2pz        0.000441 -0.000374  0.001080  0.001700 -0.001608 -0.000630
  5C   2px        0.006685  0.000191 -0.013520 -0.023811  0.023404  0.013734
  5C   2py       -0.007081  0.002878 -0.001402 -0.000870  0.000343 -0.002305
  5C   1dz2      -0.000052  0.000014 -0.000090 -0.000428 -0.000950 -0.000561
  5C   1dxz      -0.000040  0.000007 -0.000016 -0.000107 -0.000184  0.000082
  5C   1dyz      -0.000015 -0.000024  0.000017 -0.000006 -0.000120 -0.000088
  5C   1dx2y2     0.000091 -0.000180  0.000244  0.000732  0.000797 -0.000273
  5C   1dxy       0.000219  0.000056 -0.000086  0.000062  0.000148 -0.001028
  6N   1s         0.000040  0.000008 -0.000190 -0.995310  0.000165  0.000057
  6N   2s         0.000472  0.000093 -0.000899 -0.033369  0.000822  0.000663
  6N   1pz       -0.000005  0.000003 -0.000001 -0.000063 -0.000085  0.000007
  6N   1px       -0.000193  0.000002  0.000021  0.000633  0.001065 -0.000088
  6N   1py        0.000145 -0.000021 -0.000007  0.000165  0.000106 -0.000007
  6N   3s        -0.002513 -0.001261  0.008046  0.034254 -0.010774 -0.005408
  6N   2pz       -0.000310 -0.000016  0.000215  0.000611 -0.000558 -0.000207
  6N   2px        0.002394  0.000368 -0.002823 -0.007741  0.006359  0.001828
  6N   2py        0.001198 -0.000066 -0.000210 -0.000743  0.001063  0.000677
  6N   1dz2       0.000127 -0.000013 -0.000063 -0.000098  0.001159  0.000145
  6N   1dxz       0.000041  0.000002 -0.000020 -0.000027  0.000299  0.000029
  6N   1dyz       0.000017 -0.000002 -0.000013 -0.000008  0.000064  0.000047
  6N   1dx2y2    -0.000153 -0.000006  0.000045  0.000136 -0.001728  0.000050
  6N   1dxy      -0.000121 -0.000029  0.000073  0.000054 -0.000375 -0.000120
  7H   1s        -0.000009  0.000135 -0.000262  0.000109  0.000098  0.000204
  7H   2s        -0.001795  0.000166 -0.000412 -0.003263 -0.001117 -0.000084
  8H   1s         0.000000  0.000052 -0.000258  0.000038  0.000173  0.000203
  8H   2s        -0.000412  0.000006  0.000438 -0.002601 -0.000753 -0.000276
  9N   1s        -0.000100 -0.000103  0.995319 -0.000055 -0.000042 -0.000222
  9N   2s         0.000067  0.000158  0.033497  0.000743 -0.000599 -0.001272
  9N   1pz       -0.000038 -0.000030 -0.000083  0.000001 -0.000005  0.000040
  9N   1px        0.000295 -0.000146  0.000147  0.000023  0.000001 -0.000078
  9N   1py        0.000149  0.000322  0.000584 -0.000020  0.000043 -0.000281
  9N   3s        -0.006620 -0.009438 -0.024774 -0.005754  0.004706  0.009328
  9N   2pz        0.001261  0.000536 -0.001980 -0.000514  0.000214  0.001178
  9N   2px       -0.017001  0.012440  0.004958  0.003712 -0.001779 -0.003914
  9N   2py       -0.000957 -0.010953  0.013147  0.002114 -0.000753 -0.007305
  9N   1dz2      -0.000139 -0.000117 -0.000711 -0.000042 -0.000073 -0.001095
  9N   1dxz      -0.000056  0.000050 -0.000060 -0.000016 -0.000021 -0.000158
  9N   1dyz       0.000034  0.000028  0.000014  0.000006 -0.000013 -0.000442
  9N   1dx2y2     0.000531  0.000117  0.000970  0.000129  0.000060 -0.001130
  9N   1dxy       0.000032 -0.000568 -0.000704  0.000019  0.000069  0.000819
 10O   1s         0.018011 -0.995027  0.000130 -0.000007 -0.000001  0.000005
 10O   2s         0.001324 -0.030046  0.000584 -0.000009 -0.000096  0.000055
 10O   1pz       -0.000008 -0.000123 -0.000036  0.000003 -0.000006  0.000023
 10O   1px        0.000175 -0.001364 -0.000470  0.000037 -0.000008 -0.000105
 10O   1py       -0.000029  0.001711  0.000539 -0.000042  0.000056 -0.000125
 10O   3s        -0.005829  0.026345 -0.002759  0.001169 -0.000539  0.000092
 10O   2pz       -0.000361  0.000523  0.000100  0.000071  0.000006 -0.000215
 10O   2px       -0.000254  0.006414 -0.002594  0.000143 -0.000283  0.000839
 10O   2py        0.003020 -0.007626  0.000592 -0.000641  0.000104  0.001262
 10O   1dz2       0.000202 -0.000466  0.001183  0.000005 -0.000023  0.000131
 10O   1dxz      -0.000035  0.000047 -0.000057  0.000017 -0.000009 -0.000012
 10O   1dyz       0.000131 -0.000058  0.000110 -0.000004 -0.000010  0.000069
 10O   1dx2y2     0.000727 -0.000067 -0.000265 -0.000086 -0.000007  0.000342
 10O   1dxy       0.000088 -0.000777  0.001701 -0.000082  0.000054  0.000042
 11O   1s        -0.995022 -0.017937  0.000141  0.000017 -0.000009 -0.000007
 11O   2s        -0.029990  0.000186  0.000656  0.000377 -0.000366 -0.000069
 11O   1pz       -0.000210 -0.000003 -0.000062  0.000017 -0.000018  0.000025
 11O   1px        0.001951 -0.000095  0.000586 -0.000078  0.000013  0.000013
 11O   1py        0.000628  0.000076  0.000184 -0.000092  0.000137 -0.000203
 11O   3s         0.025814 -0.004194 -0.003317 -0.002017  0.001044  0.001616
 11O   2pz        0.000927 -0.000359 -0.000058 -0.000104  0.000069 -0.000129
 11O   2px       -0.009086  0.001263  0.002886  0.001341 -0.000062 -0.000636
 11O   2py       -0.002530  0.002188 -0.001085  0.000111 -0.000520  0.001366
 11O   1dz2      -0.000465  0.000169  0.001168  0.000092 -0.000045  0.000122
 11O   1dxz      -0.000140  0.000092  0.000290  0.000023 -0.000004  0.000042
 11O   1dyz      -0.000034  0.000113  0.000060  0.000020 -0.000024  0.000061
 11O   1dx2y2     0.000705  0.000224 -0.001730 -0.000046 -0.000089  0.000112
 11O   1dxy       0.000298 -0.000685 -0.000292 -0.000075  0.000036 -0.000280
 12H   1s         0.000167 -0.000023 -0.000096 -0.000305  0.000108  0.000132
 12H   2s         0.000521 -0.000265 -0.000649 -0.002450  0.003496  0.000774
 13H   1s        -0.000026  0.000150  0.000006 -0.000044  0.000133  0.000025
 13H   2s        -0.000306  0.000110 -0.000033 -0.000705  0.001398  0.000473
 14H   1s         0.000085  0.000081  0.000063  0.000047 -0.000112 -0.000147
 14H   2s         0.000154  0.000158  0.000759  0.000479 -0.000886 -0.001320
 15H   1s        -0.000072  0.000388  0.000287  0.000180 -0.000202 -0.000156
 15H   2s        -0.000076 -0.001179  0.002198  0.001072 -0.001415 -0.002500
                      6         7         8         9        10        11   
                 -10.20395 -10.19995 -10.19601 -10.18798  -1.20810  -1.03344
                   2.00000   2.00000   2.00000   2.00000   2.00000   2.00000
                  --------  --------  --------  --------  --------  --------
  0C   1s        -0.000677 -0.994896 -0.002027  0.020831 -0.004638  0.004769
  0C   2s        -0.000014 -0.036556  0.000401  0.003093  0.012823 -0.009636
  0C   1pz        0.000029 -0.000037  0.000002  0.000204 -0.001080  0.000864
  0C   1px        0.000020 -0.000764  0.000138 -0.000516  0.006788 -0.003057
  0C   1py       -0.000242  0.000706 -0.000089 -0.001352  0.005000 -0.005264
  0C   3s         0.006532  0.031977 -0.003348 -0.016673 -0.026868  0.024219
  0C   2pz        0.000207  0.000381 -0.000199 -0.000591 -0.001384 -0.002562
  0C   2px        0.002035  0.004429 -0.001276 -0.002819 -0.019612  0.021203
  0C   2py       -0.002734 -0.005405  0.002270  0.006223  0.021503  0.009125
  0C   1dz2       0.000036  0.000617  0.000077 -0.000586 -0.000222  0.000489
  0C   1dxz       0.000008  0.000136  0.000011 -0.000125 -0.000267  0.000012
  0C   1dyz      -0.000003  0.000164  0.000021 -0.000281 -0.000200  0.000136
  0C   1dx2y2    -0.000076 -0.000040  0.000020 -0.000741 -0.000117  0.000328
  0C   1dxy       0.000014 -0.000480 -0.000023  0.000829  0.001967  0.000194
  1C   1s        -0.000271  0.005873 -0.000074 -0.000148 -0.028276 -0.001722
  1C   2s         0.000501  0.002375  0.000098 -0.000064  0.053458  0.003087
  1C   1pz        0.000025  0.000114  0.000024  0.000020 -0.006482 -0.000625
  1C   1px       -0.000081 -0.001287  0.000020 -0.000051  0.014637  0.024213
  1C   1py       -0.000155 -0.000222 -0.000199 -0.000132  0.043901 -0.007982
  1C   3s        -0.003005 -0.014044  0.005214  0.006355  0.006162  0.004623
  1C   2pz       -0.000642 -0.000722  0.000140  0.000448  0.012978 -0.001154
  1C   2px        0.002728  0.003161  0.000634 -0.003672 -0.028924  0.055885
  1C   2py        0.003666  0.004076 -0.001462 -0.001611 -0.088096 -0.020657
  1C   1dz2       0.000036 -0.000619  0.000019  0.000035 -0.003946 -0.000210
  1C   1dxz       0.000005 -0.000178  0.000013 -0.000009 -0.000577 -0.000910
  1C   1dyz      -0.000000 -0.000008 -0.000004 -0.000003 -0.001748  0.000090
  1C   1dx2y2    -0.000053  0.001146 -0.000089 -0.000022 -0.004996  0.003814
  1C   1dxy       0.000021  0.000227 -0.000042  0.000115  0.003482  0.004992
  2C   1s        -0.012172 -0.020614  0.000804 -0.994861 -0.000347  0.000495
  2C   2s         0.001652  0.001445 -0.000036 -0.036747  0.002194 -0.000842
  2C   1pz        0.000068 -0.000197 -0.000001  0.000092 -0.000227  0.000147
  2C   1px        0.000804  0.000557  0.000183 -0.000994  0.001194 -0.000018
  2C   1py       -0.000972  0.001276 -0.000087 -0.000205  0.001175 -0.001165
  2C   3s        -0.013541 -0.012243  0.005472  0.034330  0.014512  0.000810
  2C   2pz        0.000269  0.000733 -0.000226 -0.000696 -0.000265 -0.000704
  2C   2px       -0.006510 -0.005216  0.002840  0.008401  0.004796 -0.005393
  2C   2py        0.001320 -0.003070  0.000289  0.001079 -0.000436  0.008504
  2C   1dz2      -0.000585 -0.000590  0.000066  0.000594  0.000204  0.000115
  2C   1dxz       0.000091 -0.000103  0.000006  0.000033  0.000023  0.000015
  2C   1dyz      -0.000097 -0.000292  0.000022  0.000182  0.000061  0.000042
  2C   1dx2y2    -0.000334 -0.000884  0.000051  0.000437  0.000104  0.000094
  2C   1dxy      -0.001092  0.000722 -0.000015  0.000065 -0.000042 -0.000062
  3C   1s        -0.994585  0.000842  0.031390  0.012336 -0.000075 -0.000288
  3C   2s        -0.036451  0.000102  0.003379  0.002545  0.001731  0.000477
  3C   1pz        0.000123 -0.000025 -0.000128 -0.000074 -0.000103 -0.000045
  3C   1px       -0.000402 -0.000095  0.001410 -0.000756  0.000174  0.000448
  3C   1py       -0.000767  0.000253  0.000270  0.000999  0.000731  0.000119
  3C   3s         0.032798  0.004956 -0.014092 -0.014555 -0.014037  0.000617
  3C   2pz       -0.001060 -0.000327  0.000878  0.000864  0.001036  0.000052
  3C   2px        0.002632  0.000921 -0.004376  0.000131 -0.003618 -0.006884
  3C   2py        0.007058  0.002119 -0.004673 -0.006971 -0.006344  0.003257
  3C   1dz2       0.000576  0.000044 -0.000641 -0.000616  0.000177 -0.000048
  3C   1dxz       0.000057  0.000016 -0.000176  0.000079  0.000014  0.000006
  3C   1dyz       0.000062  0.000011 -0.000009 -0.000074  0.000014 -0.000009
  3C   1dx2y2    -0.000369 -0.000031  0.001154 -0.000122 -0.000132 -0.000031
  3C   1dxy       0.000279 -0.000071  0.000188 -0.001136  0.000121 -0.000079
  4C   1s        -0.031187  0.002132 -0.994631 -0.000500 -0.000405 -0.001824
  4C   2s         0.001166  0.000555 -0.036614 -0.000107  0.002562  0.003737
  4C   1pz        0.000121 -0.000011  0.000056  0.000006 -0.000257 -0.000382
  4C   1px       -0.001421 -0.000090  0.000558 -0.000210  0.000164  0.001564
  4C   1py       -0.000209  0.000140 -0.000745  0.000067  0.001965  0.002214
  4C   3s        -0.014287 -0.003319  0.032638  0.006748  0.017325 -0.002871
  4C   2pz        0.000144  0.000074 -0.000406 -0.000240 -0.000056  0.001131
  4C   2px        0.004901  0.002049 -0.004392 -0.001938 -0.008590 -0.009821
  4C   2py       -0.003760 -0.001686  0.005575  0.002950  0.005023 -0.003794
  4C   1dz2      -0.000585  0.000076  0.000609  0.000044  0.000177 -0.000231
  4C   1dxz      -0.000187  0.000011  0.000148  0.000009  0.000059 -0.000039
  4C   1dyz      -0.000021  0.000015  0.000130  0.000019  0.000030 -0.000088
  4C   1dx2y2     0.001059 -0.000019 -0.000286  0.000043 -0.000187 -0.000187
  4C   1dxy       0.000377 -0.000004 -0.000457 -0.000053 -0.000207  0.000193
  5C   1s         0.000049 -0.000093  0.002817 -0.000088 -0.004873 -0.010137
  5C   2s         0.000009 -0.000028  0.002162  0.000477  0.013195  0.021190
  5C   1pz        0.000021  0.000008  0.000172  0.000012 -0.000889 -0.001392
  5C   1px       -0.000155 -0.000180 -0.000486 -0.000147 -0.001111  0.007340
  5C   1py       -0.000088  0.000035 -0.001116 -0.000020  0.007685  0.007190
  5C   3s         0.005752  0.005645 -0.012939 -0.002822 -0.020341 -0.021757
  5C   2pz        0.000492 -0.000029 -0.000664 -0.000529 -0.003406  0.002705
  5C   2px       -0.002547 -0.001913  0.005034  0.003983  0.048529  0.008805
  5C   2py       -0.002569  0.001252  0.002614  0.002097  0.001283 -0.026272
  5C   1dz2      -0.000019  0.000001 -0.000585  0.000020 -0.000830 -0.001271
  5C   1dxz      -0.000023 -0.000000 -0.000108  0.000001 -0.000011 -0.000265
  5C   1dyz      -0.000005  0.000022 -0.000290  0.000011 -0.000349 -0.000175
  5C   1dx2y2     0.000065  0.000133 -0.000851  0.000048 -0.001303  0.001038
  5C   1dxy       0.000134 -0.000066  0.000754 -0.000014 -0.000005  0.000371
  6N   1s         0.000013  0.000020  0.000017  0.000019 -0.003070 -0.013848
  6N   2s         0.000121  0.000182  0.000292  0.000190  0.009156  0.028455
  6N   1pz        0.000007 -0.000002  0.000015 -0.000002 -0.000169 -0.000328
  6N   1px       -0.000023 -0.000006 -0.000116  0.000005 -0.002476 -0.005757
  6N   1py       -0.000042  0.000023 -0.000061  0.000014  0.002670  0.005704
  6N   3s         0.000131 -0.000613 -0.000969 -0.002078 -0.021770  0.028210
  6N   2pz       -0.000114  0.000009 -0.000023 -0.000028 -0.001004 -0.000585
  6N   2px        0.000306  0.000609  0.000174  0.000874  0.010441 -0.001144
  6N   2py        0.000749 -0.000397  0.000092 -0.000246  0.002433  0.005264
  6N   1dz2       0.000056  0.000053  0.000118  0.000013 -0.000284 -0.001289
  6N   1dxz       0.000015  0.000012 -0.000002  0.000002  0.000077 -0.000005
  6N   1dyz       0.000007  0.000002  0.000035 -0.000003 -0.000064 -0.000296
  6N   1dx2y2    -0.000061 -0.000076  0.000108 -0.000037 -0.000373 -0.000550
  6N   1dxy      -0.000030 -0.000006  0.000069  0.000013 -0.000682 -0.000869
  7H   1s        -0.000077  0.000103  0.000007  0.000092  0.005190  0.013957
  7H   2s        -0.000337  0.000021 -0.000168 -0.000094  0.000352 -0.001529
  8H   1s         0.000111 -0.000030  0.000123 -0.000005  0.001310  0.005431
  8H   2s         0.000044 -0.000178  0.000083 -0.000153 -0.002169 -0.000550
  9N   1s         0.000028 -0.000002  0.000018  0.000010 -0.161950 -0.000558
  9N   2s         0.000277  0.000186  0.000237  0.000138  0.352508  0.001094
  9N   1pz        0.000003  0.000011  0.000004  0.000005 -0.012176 -0.007520
  9N   1px        0.000007 -0.000095  0.000010 -0.000041  0.020545  0.300774
  9N   1py       -0.000028 -0.000035 -0.000039 -0.000015  0.086306 -0.101294
  9N   3s        -0.002405  0.000333 -0.000554  0.000173  0.223757  0.004053
  9N   2pz       -0.000133 -0.000026 -0.000107 -0.000102  0.009407 -0.000123
  9N   2px       -0.000106  0.000294 -0.000258  0.001241 -0.022049  0.001302
  9N   2py        0.001118  0.000051  0.000994  0.000148 -0.063228  0.000337
  9N   1dz2       0.000041  0.000017  0.000025  0.000017 -0.016562 -0.000104
  9N   1dxz       0.000004  0.000002  0.000007  0.000000 -0.001601 -0.003861
  9N   1dyz       0.000009 -0.000004  0.000013  0.000011 -0.002127  0.000515
  9N   1dx2y2     0.000004 -0.000050  0.000028  0.000049  0.008216  0.016249
  9N   1dxy       0.000002  0.000026 -0.000049 -0.000013 -0.007195  0.021940
 10O   1s         0.000000  0.000006  0.000005  0.000001 -0.109507  0.139746
 10O   2s         0.000015  0.000166  0.000081  0.000054  0.238216 -0.310480
 10O   1pz       -0.000001  0.000009 -0.000000  0.000004  0.005278 -0.007836
 10O   1px        0.000018  0.000029  0.000005 -0.000004  0.091837 -0.066516
 10O   1py        0.000003 -0.000084  0.000001 -0.000032 -0.091425  0.098270
 10O   3s        -0.000144 -0.000299 -0.000525  0.000227  0.204382 -0.304281
 10O   2pz        0.000015 -0.000022  0.000006  0.000004  0.001356 -0.004366
 10O   2px       -0.000082 -0.000245 -0.000231  0.000061  0.041484 -0.029494
 10O   2py       -0.000075  0.000306  0.000080 -0.000064 -0.033081  0.050634
 10O   1dz2      -0.000014  0.000055  0.000015  0.000029 -0.008308  0.005469
 10O   1dxz       0.000002 -0.000002  0.000002  0.000009  0.000914 -0.001086
 10O   1dyz      -0.000005  0.000019 -0.000001  0.000006 -0.000445  0.001273
 10O   1dx2y2    -0.000024  0.000067 -0.000030 -0.000020  0.002163  0.006204
 10O   1dxy      -0.000014  0.000030  0.000014 -0.000033 -0.016164  0.010441
 11O   1s        -0.000003  0.000008  0.000003  0.000006 -0.105055 -0.144414
 11O   2s        -0.000021  0.000137  0.000081  0.000069  0.227720  0.319830
 11O   1pz        0.000001  0.000003  0.000004 -0.000003  0.010501  0.012691
 11O   1px       -0.000030 -0.000012 -0.000020  0.000004 -0.120192 -0.109106
 11O   1py        0.000006 -0.000015 -0.000024  0.000020 -0.019429 -0.042882
 11O   3s         0.000304 -0.000648 -0.000039 -0.000734  0.200747  0.317658
 11O   2pz        0.000025 -0.000041  0.000003 -0.000015  0.003918  0.006947
 11O   2px       -0.000084  0.000274  0.000022  0.000338 -0.051664 -0.051191
 11O   2py       -0.000156  0.000184 -0.000034 -0.000064 -0.003584 -0.028038
 11O   1dz2      -0.000006  0.000006  0.000026  0.000006 -0.008368 -0.006012
 11O   1dxz      -0.000006  0.000006 -0.000002  0.000002 -0.002341 -0.002301
 11O   1dyz      -0.000001  0.000003  0.000006 -0.000004 -0.000056 -0.000961
 11O   1dx2y2     0.000018 -0.000005  0.000021 -0.000039  0.015569  0.007641
 11O   1dxy       0.000032 -0.000035  0.000031  0.000011  0.002520  0.008607
 12H   1s         0.000194 -0.000110  0.001313  0.000066  0.000371  0.001042
 12H   2s        -0.001197 -0.000736 -0.002784  0.000605  0.001154  0.001626
 13H   1s         0.000145  0.000148  0.000048  0.001385  0.000165 -0.000532
 13H   2s        -0.001350 -0.001246  0.000451 -0.002358 -0.000836 -0.001474
 14H   1s         0.001365  0.000038  0.000084  0.000107  0.000031  0.000092
 14H   2s        -0.002580  0.000258 -0.001106 -0.001282 -0.002279  0.000081
 15H   1s         0.000090  0.001333 -0.000083  0.000106  0.002608 -0.005804
 15H   2s         0.000532 -0.002783 -0.000801 -0.001101 -0.009699  0.000227
                     12        13        14        15        16        17   
                  -0.94381  -0.86100  -0.79994  -0.74780  -0.69014  -0.62754
                   2.00000   2.00000   2.00000   2.00000   2.00000   2.00000
                  --------  --------  --------  --------  --------  --------
  0C   1s        -0.021375  0.099593  0.018241  0.109164  0.074445 -0.082622
  0C   2s         0.039952 -0.190626 -0.037928 -0.213182 -0.146159  0.167101
  0C   1pz       -0.000385 -0.001607  0.012054 -0.010110 -0.000548 -0.013671
  0C   1px        0.018981 -0.046375 -0.060817  0.042725 -0.022107  0.024914
  0C   1py       -0.007063  0.037586 -0.063768  0.057938  0.016158  0.095829
  0C   3s         0.048689 -0.105330 -0.016809 -0.171803 -0.128648  0.146833
  0C   2pz        0.000510  0.001640  0.003022 -0.001397 -0.001091 -0.006804
  0C   2px        0.009870 -0.000349 -0.000198  0.009815 -0.005174 -0.005927
  0C   2py       -0.009288 -0.012865 -0.024014  0.006012  0.011384  0.057558
  0C   1dz2      -0.002401  0.009153  0.001431  0.007796  0.004735 -0.004372
  0C   1dxz      -0.000321  0.001195  0.000754  0.000689  0.000102 -0.000264
  0C   1dyz      -0.000363  0.002011 -0.000480  0.002548  0.000363 -0.000594
  0C   1dx2y2     0.001164 -0.000482 -0.006858  0.005841 -0.002686  0.001461
  0C   1dxy      -0.000308 -0.000656 -0.001047 -0.001223  0.005013 -0.002758
  1C   1s        -0.049724  0.106690  0.108020 -0.017757  0.017978  0.012251
  1C   2s         0.098004 -0.207680 -0.217795  0.036441 -0.032661 -0.026557
  1C   1pz        0.001709 -0.003113  0.013923 -0.005329 -0.030137  0.000205
  1C   1px        0.025519  0.034253 -0.025175  0.108186  0.064827 -0.197107
  1C   1py       -0.027234  0.006590 -0.097659 -0.015218  0.205866  0.103491
  1C   3s         0.017407 -0.126486 -0.144887  0.022541 -0.037018 -0.013188
  1C   2pz       -0.004575 -0.006616 -0.001523  0.000932 -0.000502  0.002650
  1C   2px        0.016225  0.013062 -0.001086  0.013768  0.004453 -0.025841
  1C   2py        0.027813  0.045788  0.012855 -0.014745  0.001611 -0.007434
  1C   1dz2      -0.005221  0.009045  0.008724 -0.001063 -0.000469  0.000133
  1C   1dxz      -0.000112  0.001379  0.001215  0.001016 -0.000571 -0.000908
  1C   1dyz      -0.000788  0.002265  0.002763 -0.001028 -0.002187 -0.000057
  1C   1dx2y2     0.000572  0.000567  0.004482 -0.008698 -0.011062  0.002571
  1C   1dxy      -0.004290 -0.002746 -0.003796 -0.004482  0.009852  0.005957
  2C   1s        -0.014615  0.086039 -0.067126  0.112670 -0.019317  0.065198
  2C   2s         0.028661 -0.162217  0.128146 -0.219743  0.038801 -0.131012
  2C   1pz       -0.001247  0.005764  0.003208  0.008740  0.015401 -0.014359
  2C   1px        0.013665 -0.055535  0.037339 -0.010995  0.005732  0.011600
  2C   1py        0.002664 -0.016334 -0.045551 -0.063759 -0.126023  0.108571
  2C   3s         0.002667 -0.115012  0.080696 -0.156209  0.050576 -0.095244
  2C   2pz        0.001267  0.001650  0.001234 -0.000319  0.002455 -0.005311
  2C   2px       -0.009620 -0.012302 -0.000679  0.014524  0.005537  0.020783
  2C   2py       -0.005033 -0.006625 -0.009591 -0.005434 -0.022598  0.031106
  2C   1dz2      -0.001422  0.008137 -0.005742  0.007853 -0.001631  0.003382
  2C   1dxz      -0.000197  0.001050 -0.000131  0.001420  0.000842  0.000154
  2C   1dyz      -0.000288  0.001857 -0.000698  0.002290  0.000440 -0.000086
  2C   1dx2y2     0.000263  0.000036  0.001688  0.001716  0.001444 -0.004320
  2C   1dxy       0.000088 -0.000742 -0.005202 -0.004845 -0.008933  0.004165
  3C   1s        -0.019468  0.078803 -0.110109 -0.007320 -0.108437  0.026277
  3C   2s         0.036009 -0.150669  0.212298  0.015389  0.218113 -0.054949
  3C   1pz       -0.002517  0.006947 -0.005916 -0.002012  0.004440 -0.003451
  3C   1px        0.013988 -0.012657  0.027419  0.112652 -0.016145  0.148866
  3C   1py        0.012611 -0.048664  0.032529 -0.044088 -0.026909 -0.051866
  3C   3s         0.055124 -0.080767  0.160894  0.002295  0.162820 -0.028856
  3C   2pz       -0.001943 -0.000131 -0.000871  0.000798  0.005092 -0.002620
  3C   2px        0.016829  0.006290  0.007169  0.014061 -0.013902  0.048856
  3C   2py        0.006609 -0.002305  0.003266 -0.013574 -0.033153 -0.004810
  3C   1dz2      -0.002205  0.007250 -0.009118 -0.000128 -0.006422  0.001125
  3C   1dxz      -0.000407  0.000711 -0.001167 -0.001409 -0.000667 -0.000746
  3C   1dyz      -0.000418  0.001678 -0.001871  0.000332 -0.001490  0.000742
  3C   1dx2y2     0.000921  0.000943  0.001188  0.006873 -0.000755  0.005964
  3C   1dxy       0.000680  0.000664  0.000083  0.007430 -0.000334  0.003840
  4C   1s        -0.045469  0.061203 -0.089969 -0.110452 -0.005208 -0.086954
  4C   2s         0.087545 -0.114526  0.172608  0.215509  0.011067  0.175679
  4C   1pz       -0.005964  0.000046  0.003874 -0.006133  0.019156  0.006961
  4C   1px        0.016739  0.048093 -0.054282  0.017457 -0.099779  0.029748
  4C   1py        0.038673 -0.025986 -0.001993  0.039659 -0.099731 -0.071341
  4C   3s         0.017835 -0.090081  0.110615  0.171471  0.024663  0.130682
  4C   2pz       -0.001855 -0.000418  0.000305 -0.000221  0.003127  0.001560
  4C   2px        0.039741  0.018704  0.006510  0.007473 -0.024112  0.036565
  4C   2py       -0.006439 -0.006666 -0.005960 -0.002361 -0.012009 -0.032222
  4C   1dz2      -0.004806  0.005709 -0.007358 -0.007867 -0.000316 -0.004366
  4C   1dxz      -0.000911  0.000492 -0.001068 -0.000751 -0.000521 -0.000019
  4C   1dyz      -0.001480  0.001029 -0.000961 -0.002251  0.001230 -0.000528
  4C   1dx2y2    -0.001401 -0.000838  0.004786 -0.003711  0.009617  0.001052
  4C   1dxy       0.003452  0.001874 -0.000907  0.000548 -0.001185 -0.004458
  5C   1s        -0.120035  0.030448 -0.000774 -0.083184  0.083395  0.071059
  5C   2s         0.235507 -0.059949 -0.001224  0.170263 -0.170667 -0.149583
  5C   1pz       -0.007379 -0.007620  0.012586  0.012579 -0.005941  0.022851
  5C   1px        0.093616  0.126341  0.004002 -0.079444  0.064506 -0.003806
  5C   1py        0.009016 -0.006576 -0.102564 -0.057982  0.012993 -0.180350
  5C   3s         0.095414 -0.027426  0.006834  0.117576 -0.136486 -0.139228
  5C   2pz        0.004568  0.000496  0.003568  0.001649 -0.003356  0.006944
  5C   2px       -0.073798 -0.008362 -0.027353 -0.006935  0.042638 -0.000976
  5C   2py        0.002905  0.000478 -0.013943 -0.009497  0.003913 -0.054733
  5C   1dz2      -0.012648  0.001935 -0.000026 -0.004632  0.003785  0.002968
  5C   1dxz      -0.002370 -0.000660 -0.000944 -0.000155  0.000072  0.000318
  5C   1dyz      -0.001576  0.001187 -0.000472 -0.002310  0.000579  0.000260
  5C   1dx2y2     0.010463  0.007642  0.000297 -0.009204 -0.000335 -0.002319
  5C   1dxy       0.001475  0.003043  0.007282  0.001696  0.003148  0.001470
  6N   1s        -0.170539 -0.084830 -0.004235  0.060387 -0.034827 -0.020505
  6N   2s         0.348604  0.178004  0.007316 -0.129570  0.077110  0.044389
  6N   1pz        0.005422 -0.000257  0.002385  0.008211 -0.007295  0.004474
  6N   1px       -0.059372  0.013078  0.008485 -0.083214  0.090810  0.159547
  6N   1py       -0.011403 -0.004813 -0.023557 -0.021282  0.009885 -0.120714
  6N   3s         0.398135  0.198543  0.024168 -0.157578  0.082081  0.065114
  6N   2pz        0.003454 -0.000178  0.001952  0.003667 -0.004875  0.003119
  6N   2px       -0.038863  0.006636 -0.006236 -0.036847  0.051948  0.066461
  6N   2py       -0.006852 -0.002081 -0.012215 -0.009630  0.011265 -0.060343
  6N   1dz2      -0.016957 -0.007081 -0.000425  0.004267 -0.002392 -0.001966
  6N   1dxz      -0.001943 -0.000466 -0.000214 -0.000244  0.000388  0.000424
  6N   1dyz      -0.003738 -0.002004 -0.000257  0.001575 -0.001141 -0.001204
  6N   1dx2y2    -0.000102 -0.003920 -0.000449  0.006377 -0.006001 -0.006892
  6N   1dxy      -0.000401 -0.000858  0.001526  0.002549 -0.002142 -0.001552
  7H   1s         0.088083  0.055775 -0.002780 -0.067363  0.044707 -0.003151
  7H   2s        -0.004852 -0.001118  0.005705 -0.007632 -0.004013  0.004919
  8H   1s         0.095017  0.060915  0.012558 -0.059188  0.050671  0.116163
  8H   2s         0.003220  0.003954  0.003621 -0.008931  0.012391  0.043256
  9N   1s         0.000597  0.022227  0.052743 -0.017723 -0.074472 -0.010139
  9N   2s        -0.001828 -0.046140 -0.121183  0.042072  0.180322  0.024330
  9N   1pz        0.007734 -0.016753 -0.032886  0.005711  0.027269  0.003038
  9N   1px       -0.042295  0.025596  0.069585 -0.006621 -0.060638 -0.023747
  9N   1py       -0.039060  0.120083  0.225315 -0.042005 -0.185238 -0.011858
  9N   3s        -0.007293 -0.087166 -0.151522  0.052152  0.219449  0.038918
  9N   2pz        0.001119 -0.007884 -0.011649  0.002975  0.011733  0.002711
  9N   2px        0.001580  0.020572  0.025284 -0.005831 -0.022407 -0.041091
  9N   2py       -0.009775  0.051966  0.079403 -0.020610 -0.081578  0.000185
  9N   1dz2       0.000086  0.000588 -0.000173  0.000095  0.001838  0.000360
  9N   1dxz       0.000418  0.000526  0.000274  0.000402  0.000165 -0.001308
  9N   1dyz      -0.000465  0.001158  0.001466 -0.000376 -0.000331  0.000238
  9N   1dx2y2    -0.004329  0.004763  0.008223 -0.003748 -0.004342  0.005506
  9N   1dxy      -0.000952 -0.006107 -0.006639 -0.001134  0.002694  0.007797
 10O   1s        -0.001316 -0.032190 -0.049557  0.007343  0.051451  0.024499
 10O   2s         0.001908  0.074583  0.115847 -0.016253 -0.119760 -0.056475
 10O   1pz        0.001159 -0.002251 -0.005627  0.000438  0.007263  0.004611
 10O   1px       -0.006353  0.024364  0.034088  0.003791  0.000225 -0.005759
 10O   1py       -0.005843  0.004915  0.026656 -0.005514 -0.058132 -0.033879
 10O   3s         0.008841  0.077100  0.123898 -0.022304 -0.146361 -0.088868
 10O   2pz        0.000556 -0.000280 -0.001931 -0.000195  0.002915  0.002015
 10O   2px       -0.000223  0.008801  0.013481  0.002360  0.000428 -0.008936
 10O   2py       -0.004316 -0.002510  0.008187  0.000276 -0.023562 -0.011295
 10O   1dz2      -0.000153  0.000084  0.001105 -0.000116 -0.002694 -0.001787
 10O   1dxz       0.000097  0.000049 -0.000236  0.000138  0.000531 -0.000107
 10O   1dyz      -0.000253  0.000489  0.001171 -0.000051 -0.001181 -0.000683
 10O   1dx2y2    -0.001731  0.002754  0.006922 -0.000669 -0.006466 -0.002131
 10O   1dxy       0.000001 -0.001755 -0.000721 -0.000862 -0.003371  0.000281
 11O   1s         0.024898 -0.020854 -0.048628  0.017908  0.054171 -0.010317
 11O   2s        -0.057442  0.047771  0.113270 -0.040298 -0.126498  0.022996
 11O   1pz       -0.000643 -0.001455 -0.004379  0.001709  0.008399 -0.002034
 11O   1px        0.025616 -0.003553 -0.008444 -0.013282 -0.031024 -0.000959
 11O   1py       -0.008569  0.013542  0.039486 -0.006535 -0.050403  0.016620
 11O   3s        -0.054670  0.049008  0.123203 -0.050527 -0.156555  0.045126
 11O   2pz       -0.000547 -0.000042 -0.001328  0.000427  0.003382 -0.000485
 11O   2px        0.013839  0.001488 -0.004811 -0.007498 -0.009728 -0.007296
 11O   2py       -0.003031 -0.000478  0.013155  0.000614 -0.021760  0.007715
 11O   1dz2       0.000386 -0.000098  0.000891 -0.000432 -0.002728  0.000590
 11O   1dxz       0.000347  0.000333  0.000725 -0.000407 -0.001176  0.000019
 11O   1dyz      -0.000269  0.000296  0.000963 -0.000140 -0.001049  0.000318
 11O   1dx2y2    -0.003181  0.000804  0.002628  0.000913  0.000119  0.001322
 11O   1dxy      -0.000717 -0.003133 -0.006259  0.002318  0.006656 -0.000270
 12H   1s         0.017516 -0.019897  0.045343  0.066317  0.011580  0.104690
 12H   2s        -0.005928 -0.002357  0.006223  0.010877  0.008843  0.042556
 13H   1s         0.003502 -0.031829  0.031235 -0.066917  0.019081 -0.063434
 13H   2s        -0.003645 -0.004875  0.004597 -0.011253  0.006860 -0.020461
 14H   1s         0.005358 -0.029968  0.054846  0.004864  0.090402 -0.023798
 14H   2s         0.000761 -0.002675  0.010205 -0.001192  0.020510 -0.006442
 15H   1s         0.006681 -0.038157 -0.015296 -0.064373 -0.044060  0.089723
 15H   2s         0.001701  0.002953  0.005893 -0.012025 -0.018186  0.017826
[...]
Angular Grid (max. acc.)         AngularGrid ... Lebedev-50
Angular grid pruning method      GridPruning ... 3 (G Style)
Weight generation scheme         WeightScheme... Becke
Basis function cutoff            BFCut       ...    1.0000e-11
Integration weight cutoff        WCut        ...    1.0000e-14
Grids for H and He will be reduced by one unit

# of grid points (after initial pruning)     ...   9724 (   0.0 sec)
# of grid points (after weights+screening)   ...   9110 (   0.0 sec)
nearest neighbour list constructed           ...    0.0 sec
Grid point re-assignment to atoms done       ...    0.0 sec
Grid point division into batches done        ...    0.0 sec
Reduced shell lists constructed in    0.1 sec

Total number of grid points                  ...     9110
Total number of batches                      ...      149
Average number of points per batch           ...       61
Average number of grid points per atom       ...      569
Average number of shells per batch           ...    52.71 (73.21%)
Average number of basis functions per batch  ...   114.54 (75.36%)
Average number of large shells per batch     ...    40.82 (77.44%)
Average number of large basis fcns per batch ...    89.25 (77.92%)
Maximum spatial batch extension              ...  17.45, 17.54, 23.30 au
Average spatial batch extension              ...   4.24,  4.20,  5.90 au


---------------
TD-DFT XC SETUP
---------------

DFT calculation                         ... on
Name of the grid file                   ... /Users/lailaal-madhagi/Desktop/Testing_XAS_Analysis_code/OrthoNitroAniline//Results_dir_OrthoNitroAniline_geom_element_O_2019-11-13_22-09-46//GTE1_OrthoNitroAniline_geom_2019-11-13_22-09-59//TDDFT_O-edge.grid_cis.tmp
Exchange functional (SCF)               ... B88
Exchange functional (TD-DFT)            ... B88
   X-Alpha parameter    XAlpha (SCF)    ...  0.666667
   X-Alpha parameter    XAlpha (TD-DFT) ...  0.666667
   Becke's b parameter  XBeta (SCF)     ...  0.004200
   Becke's b parameter  XBeta (TD-DFT)  ...  0.004200
Correlation functional (SCF)            ... LYP
Correlation functional (TD-DFT)         ... LYP
 LDA part of GGA corr.  LDAOpt (SCF)    ... VWN-5
 LDA part of GGA corr.  LDAOpt (TD-DFT) ... VWN-5
Hybrid DFT                              ... on
   Exchange mixing (SCF)                ...  0.200
   Exchange mixing (TD-DFT)             ...  0.200
   GGA exch. scaling(SCF)               ...  0.720
   GGA exch. scaling (TD-DFT)           ...  0.720
   GGA corr. scaling (SCF)              ...  0.810
   GGA corr. scaling (TD-DFT)           ...  0.810

Building densities             ... done
Calculating rho(r) on the grid ... done
Building xc-kernel on the grid ... done
                    *** TD-DFT CALCULATION INITIALIZED ***


------------------------
DAVIDSON-DIAGONALIZATION
------------------------

Dimension of the eigenvalue problem            ...    232
Number of roots to be determined               ...     20
Maximum size of the expansion space            ...    232
Maximum number of iterations                   ...    100
Convergence tolerance for the residual         ...    2.500e-07
Convergence tolerance for the energies         ...    2.500e-07
Orthogonality tolerance                        ...    1.000e-14
Level Shift                                    ...    0.000e+00
Constructing the preconditioner                ... o.k.
Building the initial guess                     ... o.k.
Number of trial vectors determined             ...    232


                       ****Iteration    0****

   Memory handling for direct AO based CIS:
   Memory per vector needed      ...     1 MB
   Memory needed                 ...    42 MB
   Memory available              ...   512 MB
   Number of vectors per batch   ...   512
   Number of batches             ...     1
   Time for densities:     0.029
   Using LibInt in JK Direct
   Time for J+K (Direct):   226.099
   Time for XC-Integration:     3.755
   Time for Sigma-Completion:     0.262
   Size of expansion space: 60
   Lowest Energy          :    19.006965959581
   Maximum Energy change  :    19.321613392420 (vector 19)
   Maximum residual norm  :     0.000930970210

                       ****Iteration    1****
   Time for densities:     0.005
   Using LibInt in JK Direct
   Time for J+K (Direct):    50.995
   Time for XC-Integration:     1.186
   Time for Sigma-Completion:     0.068
   Size of expansion space: 80
   Lowest Energy          :    19.006117256795
   Maximum Energy change  :     0.000853978560 (vector 1)
   Maximum residual norm  :     0.000000603447

                       ****Iteration    2****
   Time for densities:     0.005
   Using LibInt in JK Direct
   Time for J+K (Direct):    51.633
   Time for XC-Integration:     1.256
   Time for Sigma-Completion:     0.068
   Size of expansion space: 100
   Lowest Energy          :    19.006116827155
   Maximum Energy change  :     0.000000444507 (vector 19)
   Maximum residual norm  :     0.000000000268

      *** CONVERGENCE OF RESIDUAL NORM REACHED ***

Storing the converged CI vectors               ... /Users/lailaal-madhagi/Desktop/Testing_XAS_Analysis_code/OrthoNitroAniline//Results_dir_OrthoNitroAniline_geom_element_O_2019-11-13_22-09-46//GTE1_OrthoNitroAniline_geom_2019-11-13_22-09-59//TDDFT_O-edge.cis1

                 *** DAVIDSON DONE ***

Total time for solving the CIS problem:   335.849sec

------------------------------------
TD-DFT/TDA EXCITED STATES (SINGLETS)
------------------------------------

the weight of the individual excitations are printed if larger than 1.0e-02

STATE  1:  E=  19.006117 au    517.183 eV  4171360.5 cm**-1
     1a ->  36a  :     0.945507 (c=  0.97237204)
     1a ->  37a  :     0.012993 (c=  0.11398848)
     1a ->  38a  :     0.039363 (c=  0.19839992)

STATE  2:  E=  19.009439 au    517.273 eV  4172089.7 cm**-1
     0a ->  36a  :     0.952374 (c=  0.97589661)
     0a ->  37a  :     0.011168 (c=  0.10567701)
     0a ->  38a  :     0.034644 (c=  0.18612933)

STATE  3:  E=  19.126543 au    520.460 eV  4197791.0 cm**-1
     1a ->  36a  :     0.033385 (c=  0.18271696)
     1a ->  37a  :     0.833630 (c= -0.91303353)
     1a ->  38a  :     0.129294 (c= -0.35957537)

STATE  4:  E=  19.131105 au    520.584 eV  4198792.3 cm**-1
     0a ->  36a  :     0.026290 (c=  0.16214205)
     0a ->  37a  :     0.873969 (c= -0.93486300)
     0a ->  38a  :     0.098773 (c= -0.31428150)

STATE  5:  E=  19.141567 au    520.869 eV  4201088.3 cm**-1
     1a ->  36a  :     0.020005 (c=  0.14143884)
     1a ->  37a  :     0.151308 (c=  0.38898284)
     1a ->  38a  :     0.825744 (c= -0.90870436)

STATE  6:  E=  19.142323 au    520.889 eV  4201254.4 cm**-1
     0a ->  36a  :     0.020252 (c= -0.14230867)
     0a ->  37a  :     0.114596 (c= -0.33852023)
     0a ->  38a  :     0.859603 (c=  0.92714800)

STATE  7:  E=  19.212354 au    522.795 eV  4216624.4 cm**-1
     0a ->  39a  :     0.764466 (c=  0.87433753)
     0a ->  40a  :     0.218048 (c= -0.46695634)

STATE  8:  E=  19.218625 au    522.965 eV  4218000.7 cm**-1
     1a ->  39a  :     0.037584 (c= -0.19386651)
     1a ->  40a  :     0.894274 (c= -0.94566077)
     1a ->  41a  :     0.015280 (c= -0.12361300)
     1a ->  42a  :     0.031571 (c=  0.17768157)

STATE  9:  E=  19.220281 au    523.010 eV  4218364.1 cm**-1
     1a ->  39a  :     0.958633 (c= -0.97909791)
     1a ->  40a  :     0.039307 (c=  0.19825939)

STATE 10:  E=  19.222171 au    523.062 eV  4218778.9 cm**-1
     0a ->  39a  :     0.219351 (c=  0.46834882)
     0a ->  40a  :     0.721075 (c=  0.84916116)
     0a ->  42a  :     0.027578 (c= -0.16606598)
     0a ->  46a  :     0.013631 (c= -0.11675228)

STATE 11:  E=  19.255340 au    523.964 eV  4226058.6 cm**-1
     0a ->  39a  :     0.014958 (c= -0.12230466)
     0a ->  41a  :     0.759417 (c=  0.87144530)
     0a ->  42a  :     0.081147 (c= -0.28486323)
     0a ->  44a  :     0.094016 (c= -0.30662014)
     0a ->  46a  :     0.024300 (c= -0.15588595)

STATE 12:  E=  19.264488 au    524.213 eV  4228066.4 cm**-1
     1a ->  40a  :     0.033969 (c= -0.18430707)
     1a ->  41a  :     0.808557 (c=  0.89919815)
     1a ->  42a  :     0.110668 (c= -0.33266837)
     1a ->  44a  :     0.011692 (c= -0.10812812)
     1a ->  45a  :     0.011077 (c= -0.10524706)
     1a ->  49a  :     0.012569 (c= -0.11211316)

STATE 13:  E=  19.275978 au    524.526 eV  4230588.2 cm**-1
     1a ->  40a  :     0.021708 (c= -0.14733747)
     1a ->  41a  :     0.152149 (c= -0.39006316)
     1a ->  42a  :     0.692001 (c= -0.83186576)
     1a ->  46a  :     0.090753 (c= -0.30125272)
     1a ->  48a  :     0.015958 (c= -0.12632345)
     1a ->  49a  :     0.011340 (c= -0.10648904)

STATE 14:  E=  19.283331 au    524.726 eV  4232201.9 cm**-1
     0a ->  40a  :     0.039056 (c= -0.19762577)
     0a ->  41a  :     0.098081 (c= -0.31317911)
     0a ->  42a  :     0.759998 (c= -0.87177859)
     0a ->  44a  :     0.017850 (c=  0.13360440)
     0a ->  45a  :     0.013494 (c= -0.11616453)
     0a ->  46a  :     0.062210 (c= -0.24942029)

STATE 15:  E=  19.288680 au    524.872 eV  4233375.8 cm**-1
     1a ->  43a  :     0.993432 (c=  0.99671075)

STATE 16:  E=  19.291105 au    524.938 eV  4233908.2 cm**-1
     0a ->  43a  :     0.993884 (c=  0.99693716)

STATE 17:  E=  19.298201 au    525.131 eV  4235465.5 cm**-1
     0a ->  41a  :     0.096314 (c=  0.31034421)
     0a ->  42a  :     0.014555 (c=  0.12064366)
     0a ->  44a  :     0.794108 (c=  0.89112753)
     0a ->  45a  :     0.060491 (c= -0.24594836)
     0a ->  46a  :     0.013612 (c= -0.11667136)

STATE 18:  E=  19.302886 au    525.258 eV  4236493.7 cm**-1
     1a ->  44a  :     0.918591 (c= -0.95843169)
     1a ->  45a  :     0.041478 (c=  0.20366187)
     1a ->  46a  :     0.010766 (c= -0.10375955)

STATE 19:  E=  19.316973 au    525.642 eV  4239585.5 cm**-1
     1a ->  42a  :     0.026057 (c= -0.16142247)
     1a ->  44a  :     0.048735 (c= -0.22076107)
     1a ->  45a  :     0.395224 (c= -0.62866881)
     1a ->  46a  :     0.509814 (c=  0.71401266)

STATE 20:  E=  19.321045 au    525.752 eV  4240479.3 cm**-1
     0a ->  41a  :     0.025932 (c= -0.16103417)
     0a ->  42a  :     0.105588 (c=  0.32494253)
     0a ->  44a  :     0.059109 (c= -0.24312280)
     0a ->  45a  :     0.192732 (c= -0.43901213)
     0a ->  46a  :     0.514534 (c= -0.71731052)
     0a ->  47a  :     0.010628 (c=  0.10309453)
     0a ->  48a  :     0.029436 (c=  0.17156935)
     0a ->  49a  :     0.039789 (c= -0.19947246)


-----------------------------
TD-DFT/TDA-EXCITATION SPECTRA
-----------------------------

Center of mass = (  0.1739,  1.5819, -0.5498)
Calculating the Dipole integrals                  ... done
Transforming integrals                            ... done
Calculating the Linear Momentum integrals         ... done
Transforming integrals                            ... done
Calculating angular momentum integrals            ... done
Transforming integrals                            ... done

-----------------------------------------------------------------------------
         ABSORPTION SPECTRUM VIA TRANSITION ELECTRIC DIPOLE MOMENTS
-----------------------------------------------------------------------------
State   Energy    Wavelength  fosc         T2        TX        TY        TZ  
        (cm-1)      (nm)                 (au**2)    (au)      (au)      (au) 
-----------------------------------------------------------------------------
   1 4171360.5      2.4   0.027573027   0.00218   0.00311   0.00579   0.04618
   2 4172089.7      2.4   0.025978789   0.00205   0.00301   0.00561   0.04483
   3 4197791.0      2.4   0.002085064   0.00016  -0.00085  -0.00159  -0.01266
   4 4198792.3      2.4   0.000664863   0.00005  -0.00048  -0.00089  -0.00715
   5 4201088.3      2.4   0.000896231   0.00007  -0.00056  -0.00104  -0.00830
   6 4201254.4      2.4   0.001253781   0.00010   0.00066   0.00123   0.00981
   7 4216624.4      2.4   0.001909088   0.00015  -0.01017   0.00676  -0.00017
   8 4218000.7      2.4   0.003488622   0.00027   0.00302  -0.01612   0.00181
   9 4218364.1      2.4   0.000112741   0.00001   0.00296   0.00004  -0.00020
  10 4218779.0      2.4   0.004356369   0.00034   0.01774   0.00471  -0.00178
  11 4226058.6      2.4   0.005617673   0.00044   0.01698   0.01194  -0.00265
  12 4228066.4      2.4   0.003586261   0.00028  -0.01454   0.00824  -0.00006
  13 4230588.2      2.4   0.010019404   0.00078  -0.01614   0.02272  -0.00176
  14 4232201.9      2.4   0.003203366   0.00025   0.01575  -0.00034  -0.00101
  15 4233375.8      2.4   0.000509020   0.00004  -0.00042  -0.00077  -0.00623
  16 4233908.2      2.4   0.000206186   0.00002  -0.00022  -0.00049  -0.00397
  17 4235465.5      2.4   0.002206426   0.00017   0.01304   0.00075  -0.00095
  18 4236493.7      2.4   0.002054848   0.00016  -0.01259  -0.00048   0.00090
  19 4239585.5      2.4   0.003331371   0.00026   0.01591  -0.00223  -0.00080
  20 4240479.3      2.4   0.011537297   0.00090   0.02892   0.00717  -0.00284

-----------------------------------------------------------------------------
         ABSORPTION SPECTRUM VIA TRANSITION VELOCITY DIPOLE MOMENTS
-----------------------------------------------------------------------------
State   Energy    Wavelength   fosc        P2         PX        PY        PZ  
        (cm-1)      (nm)                 (au**2)     (au)      (au)      (au) 
-----------------------------------------------------------------------------
   1 4171360.5      2.4   0.026457439   0.75428  -0.05787  -0.10771  -0.85984
   2 4172089.7      2.4   0.024988049   0.71251  -0.05618  -0.10462  -0.83571
   3 4197791.0      2.4   0.002011527   0.05771   0.01590   0.02979   0.23784
   4 4198792.3      2.4   0.000641124   0.01840   0.00895   0.01675   0.13430
   5 4201088.3      2.4   0.000846452   0.02430   0.01039   0.01941   0.15433
   6 4201254.4      2.4   0.001168364   0.03355  -0.01219  -0.02269  -0.18134
   7 4216624.4      2.4   0.001998603   0.05760   0.19711  -0.13685   0.00402
   8 4218000.7      2.4   0.003178231   0.09162  -0.05225   0.29625  -0.03354
   9 4218364.1      2.4   0.000103955   0.00300  -0.05458   0.00273   0.00333
  10 4218779.0      2.4   0.004025148   0.11606  -0.32776  -0.08692   0.03285
  11 4226058.6      2.4   0.005005788   0.14458  -0.30424  -0.22284   0.04857
  12 4228066.4      2.4   0.003255300   0.09407   0.26622  -0.15228   0.00128
  13 4230588.2      2.4   0.009563411   0.27652   0.30886  -0.42435   0.03234
  14 4232201.9      2.4   0.002910494   0.08419  -0.28947   0.00708   0.01848
  15 4233375.8      2.4   0.000487607   0.01411   0.00794   0.01451   0.11762
  16 4233908.2      2.4   0.000187987   0.00544   0.00407   0.00899   0.07309
  17 4235465.5      2.4   0.002309490   0.06685  -0.25725  -0.01752   0.01915
  18 4236493.7      2.4   0.001961017   0.05678   0.23762   0.00624  -0.01664
  19 4239585.5      2.4   0.003252111   0.09423  -0.30425   0.03759   0.01584
  20 4240479.3      2.4   0.011013053   0.31918  -0.54518  -0.13804   0.05382

-------------------------------------------------------------------
                             CD SPECTRUM
-------------------------------------------------------------------
State  Energy     Wavelength     R         MX        MY        MZ   
       (cm-1)       (nm)     (1e40*cgs)   (au)      (au)      (au)  
-------------------------------------------------------------------
   1 4171360.5      2.4     -0.00027   2.06661   0.43072  -0.19303
   2 4172089.7      2.4      0.00020   1.48411  -1.21574   0.05242
   3 4197791.0      2.4      0.00012  -0.57153  -0.11878   0.05310
   4 4198792.3      2.4      0.00004  -0.23762   0.19807  -0.00886
   5 4201088.3      2.4     -0.00006  -0.36541  -0.05994   0.03216
   6 4201254.4      2.4      0.00004   0.31805  -0.27653   0.01323
   7 4216624.4      2.4      0.00000   0.03595   0.06761   0.53844
   8 4218000.7      2.4     -0.00001   0.00180   0.00354   0.02844
   9 4218364.1      2.4     -0.00000  -0.00870  -0.01621  -0.12941
  10 4218779.0      2.4      0.00000  -0.02955  -0.05533  -0.44123
  11 4226058.6      2.4     -0.00019  -0.01460  -0.02615  -0.21144
  12 4228066.4      2.4      0.00003   0.03668   0.06876   0.54950
  13 4230588.2      2.4      0.00001   0.03437   0.06385   0.50966
  14 4232201.9      2.4      0.00002  -0.03419  -0.06414  -0.51119
  15 4233375.8      2.4     -0.00000  -0.28218  -0.05751   0.02616
  16 4233908.2      2.4      0.00016  -0.12882   0.10906  -0.00625
  17 4235465.5      2.4     -0.00011  -0.02789  -0.05350  -0.42357
  18 4236493.7      2.4     -0.00002   0.03798   0.07120   0.56901
  19 4239585.5      2.4      0.00005  -0.04747  -0.08806  -0.70271
  20 4240479.3      2.4     -0.00002  -0.05056  -0.09467  -0.75492

Total run time:      336.215 sec

           *** ORCA-CIS/TD-DFT FINISHED WITHOUT ERROR ***

-----------------------
CIS/TD-DFT TOTAL ENERGY
-----------------------

    E(SCF)  =   -491.832476888 Eh
    DE(CIS) =     19.006116827 Eh (Root  1)
    ----------------------------- ---------
    E(tot)  =   -472.826360060 Eh


-------------------------   --------------------
FINAL SINGLE POINT ENERGY      -472.826360060411
-------------------------   --------------------


                            ***************************************
                            *     ORCA property calculations      *
                            ***************************************

                                    ---------------------
                                    Active property flags
                                    ---------------------
   (+) Dipole Moment


------------------------------------------------------------------------------
                       ORCA ELECTRIC PROPERTIES CALCULATION
------------------------------------------------------------------------------

Dipole Moment Calculation                       ... on
Quadrupole Moment Calculation                   ... off
Polarizability Calculation                      ... off
GBWName                                         ... /Users/lailaal-madhagi/Desktop/Testing_XAS_Analysis_code/OrthoNitroAniline//Results_dir_OrthoNitroAniline_geom_element_O_2019-11-13_22-09-46//GTE1_OrthoNitroAniline_geom_2019-11-13_22-09-59//TDDFT_O-edge.gbw
Electron density file                           ... /Users/lailaal-madhagi/Desktop/Testing_XAS_Analysis_code/OrthoNitroAniline//Results_dir_OrthoNitroAniline_geom_element_O_2019-11-13_22-09-46//GTE1_OrthoNitroAniline_geom_2019-11-13_22-09-59//TDDFT_O-edge.scfp.tmp
The origin for moment calculation is the CENTER OF MASS  = ( 0.173876,  1.581905 -0.549782)

-------------
DIPOLE MOMENT
-------------
                                X             Y             Z
Electronic contribution:      0.98967       5.64164      -0.77301
Nuclear contribution   :     -0.74257      -7.47566       0.98640
                        -----------------------------------------
Total Dipole Moment    :      0.24710      -1.83402       0.21339
                        -----------------------------------------
Magnitude (a.u.)       :      1.86286
Magnitude (Debye)      :      4.73501



--------------------
Rotational spectrum 
--------------------
 
Rotational constants in cm-1:     0.077430     0.042253     0.027336 
Rotational constants in MHz :  2321.280795  1266.703130   819.505814 

 Dipole components along the rotational axes: 
x,y,z [a.u.] :    -1.635570     0.891710     0.000142 
x,y,z [Debye]:    -4.157288     2.266547     0.000360 

 

Timings for individual modules:

Sum of individual times         ...      420.104 sec (=   7.002 min)
GTO integral calculation        ...        0.923 sec (=   0.015 min)   0.2 %
SCF iterations                  ...       82.442 sec (=   1.374 min)  19.6 %
CIS module                      ...      336.740 sec (=   5.612 min)  80.2 %
                             ****ORCA TERMINATED NORMALLY****
TOTAL RUN TIME: 0 days 0 hours 7 minutes 1 seconds 277 msec
