
                                 *****************
                                 * O   R   C   A *
                                 *****************

           --- An Ab Initio, DFT and Semiempirical electronic structure package ---

                  #######################################################
                  #                        -***-                        #
                  #          Department of theory and spectroscopy      #
                  #               Directorship: Frank Neese             #
                  #        Max Planck Institute fuer Kohlenforschung    #
                  #                Kaiser Wilhelm Platz 1               #
                  #                 D-45470 Muelheim/Ruhr               #
                  #                      Germany                        #
                  #                                                     #
                  #                  All rights reserved                #
                  #                        -***-                        #
                  #######################################################


                         Program Version 4.1.0  - RELEASE  -


 With contributions from (in alphabetic order):
   Daniel Aravena         : Magnetic Properties
   Michael Atanasov       : Ab Initio Ligand Field Theory
   Alexander A. Auer      : GIAO ZORA
   Ute Becker             : Parallelization
   Giovanni Bistoni       : ED, Open-shell LED
   Martin Brehm           : Molecular dynamics
   Dmytro Bykov           : SCF Hessian
   Vijay G. Chilkuri      : MRCI spin determinant printing
   Dipayan Datta          : RHF DLPNO-CCSD density
   Achintya Kumar Dutta   : EOM-CC, STEOM-CC
   Dmitry Ganyushin       : Spin-Orbit,Spin-Spin,Magnetic field MRCI
   Miquel Garcia          : C-PCM Hessian
   Yang Guo               : DLPNO-NEVPT2, CIM, IAO-localization
   Andreas Hansen         : Spin unrestricted coupled pair/coupled cluster methods
   Benjamin Helmich-Paris : CASSCF linear response (MC-RPA)
   Lee Huntington         : MR-EOM, pCC
   Robert Izsak           : Overlap fitted RIJCOSX, COSX-SCS-MP3, EOM
   Christian Kollmar      : KDIIS, OOCD, Brueckner-CCSD(T), CCSD density
   Simone Kossmann        : Meta GGA functionals, TD-DFT gradient, OOMP2, MP2 Hessian
   Martin Krupicka        : AUTO-CI
   Lucas Lang             : DCDCAS
   Dagmar Lenk            : GEPOL surface, SMD
   Dimitrios Liakos       : Extrapolation schemes; parallel MDCI
   Dimitrios Manganas     : ROCIS; embedding schemes
   Dimitrios Pantazis     : SARC Basis sets
   Taras Petrenko         : DFT Hessian,TD-DFT gradient, ASA, ECA, R-Raman, ABS, FL, XAS/XES, NRVS
   Peter Pinski           : DLPNO-MP2, DLPNO-MP2 Gradient
   Christoph Reimann      : Effective Core Potentials
   Marius Retegan         : Local ZFS, SOC
   Christoph Riplinger    : Optimizer, TS searches, QM/MM, DLPNO-CCSD(T), (RO)-DLPNO pert. Triples
   Tobias Risthaus        : Range-separated hybrids, TD-DFT gradient, RPA, STAB
   Michael Roemelt        : Restricted open shell CIS
   Masaaki Saitow         : Open-shell DLPNO
   Barbara Sandhoefer     : DKH picture change effects
   Avijit Sen             : IP-ROCIS
   Kantharuban Sivalingam : CASSCF convergence, NEVPT2, FIC-MRCI
   Bernardo de Souza      : ESD, SOC TD-DFT
   Georgi Stoychev        : AutoAux, RI-MP2 NMR
   Willem Van den Heuvel  : Paramagnetic NMR
   Boris Wezisla          : Elementary symmetry handling
   Frank Wennmohs         : Technical directorship


 We gratefully acknowledge several colleagues who have allowed us to
 interface, adapt or use parts of their codes:
   Stefan Grimme, W. Hujo, H. Kruse,             : VdW corrections, initial TS optimization,
                  C. Bannwarth                     DFT functionals, gCP, sTDA/sTD-DF
   Ed Valeev                                     : LibInt (2-el integral package), F12 methods
   Garnet Chan, S. Sharma, J. Yang, R. Olivares  : DMRG
   Ulf Ekstrom                                   : XCFun DFT Library
   Mihaly Kallay                                 : mrcc  (arbitrary order and MRCC methods)
   Andreas Klamt, Michael Diedenhofen            : otool_cosmo (COSMO solvation model)
   Jiri Pittner, Ondrej Demel                    : Mk-CCSD
   Frank Weinhold                                : gennbo (NPA and NBO analysis)
   Christopher J. Cramer and Donald G. Truhlar   : smd solvation model
   Lars Goerigk                                  : TD-DFT with DH, B97 family of functionals
   V. Asgeirsson, H. Jonsson                     : NEB implementation
   FAccTs GmbH                                   : IRC, NEB, NEB-TS, Multilevel


 Your calculation uses the libint2 library for the computation of 2-el integrals
 For citations please refer to: http://libint.valeyev.net

 This ORCA versions uses:
   CBLAS   interface :  Fast vector & matrix operations
   LAPACKE interface :  Fast linear algebra routines
   SCALAPACK package :  Parallel linear algebra routines




***************************************
The coordinates will be read from file: /Users/lailaal-madhagi/Desktop/Testing_XAS_Analysis_code/PhenylEther/PhenylEther_geom.xyz
***************************************


----- Orbital basis set information -----
Your calculation utilizes the basis: 6-31G*
   H-He, Li-Ne : W. J. Hehre, R. Ditchfield and J.A. Pople, J. Chem. Phys. 56, 2257 (1972).
                 Note: He and Ne are unpublished basis sets taken from the Gaussian program.
                 Note: Li and B from J. D. Dill and J. A. Pople, J. Chem. Phys. 62, 2921 (1975).
   Na - Ar     : M. M. Francl, W. J. Pietro, W. J. Hehre, J. S. Binkley, M. S. Gordon, 
                 D. J. DeFrees and J. A. Pople, J. Chem. Phys. 77, 3654 (1982).
   K - Zn      : V. A. Rassolov, J. A. Pople, M. A. Ratner, and T. L. Windus, J. Chem. Phys. 109, 1223 (1998).

================================================================================
                                        WARNINGS
                       Please study these warnings very carefully!
================================================================================


WARNING: Geometry Optimization
  ===> : Switching off AutoStart
         For restart on a previous wavefunction, please use MOREAD

INFO   : the flag for use of LIBINT has been found!

================================================================================
                                       INPUT FILE
================================================================================
NAME = /Users/lailaal-madhagi/Desktop/Testing_XAS_Analysis_code/PhenylEther//Results_dir_PhenylEther_geom_element_C_2019-11-18_18-47-34//GTE1_PhenylEther_geom_2019-11-18_18-48-25//opt.inp
|  1> ! B3LYP 6-31G* TIGHTSCF Grid3 FinalGrid5 Opt 
|  2> !NormalPrint 
|  3> %output 
|  4> Print[P_Basis] 2 
|  5> Print[P_MOS] 1 
|  6> end 
|  7> *xyzfile 0 1 /Users/lailaal-madhagi/Desktop/Testing_XAS_Analysis_code/PhenylEther/PhenylEther_geom.xyz                           ****END OF INPUT****
================================================================================

                       *****************************
                       * Geometry Optimization Run *
                       *****************************

Geometry optimization settings:
Update method            Update   .... BFGS
Choice of coordinates    CoordSys .... Z-matrix Internals
Initial Hessian          InHess   .... Almoef's Model

Convergence Tolerances:
Energy Change            TolE     ....  5.0000e-06 Eh
Max. Gradient            TolMAXG  ....  3.0000e-04 Eh/bohr
RMS Gradient             TolRMSG  ....  1.0000e-04 Eh/bohr
Max. Displacement        TolMAXD  ....  4.0000e-03 bohr
RMS Displacement         TolRMSD  ....  2.0000e-03 bohr

------------------------------------------------------------------------------
                        ORCA OPTIMIZATION COORDINATE SETUP
------------------------------------------------------------------------------

The optimization will be done in new redundant internal coordinates
Making redundant internal coordinates   ...  (new redundants) done
Evaluating the initial hessian          ...  (Almloef) done
Evaluating the coordinates              ...  done
Calculating the B-matrix                .... done
Calculating the G-matrix                .... done
Diagonalizing the G-matrix              .... done
Small eigenvalue found = 5.521e-03
Small eigenvalue found = 2.254e-02
The first mode is                       ....   50
The number of degrees of freedom        ....   63

    -----------------------------------------------------------------
                    Redundant Internal Coordinates


    -----------------------------------------------------------------
         Definition                    Initial Value    Approx d2E/dq
    -----------------------------------------------------------------
      1. B(C   1,C   0)                  1.4106         0.579180   
      2. B(C   2,C   0)                  1.3986         0.605344   
      3. B(C   3,C   2)                  1.3968         0.609417   
      4. B(C   4,C   3)                  1.3966         0.609746   
      5. B(C   5,C   4)                  1.3982         0.606247   
      6. B(C   5,C   1)                  1.4018         0.598257   
      7. B(O   6,C   1)                  1.3599         0.625102   
      8. B(H   7,C   0)                  1.0809         0.372374   
      9. B(H   8,C   2)                  1.0824         0.370278   
     10. B(H   9,C   3)                  1.0823         0.370367   
     11. B(H  10,C   5)                  1.0829         0.369668   
     12. B(H  11,C   4)                  1.0824         0.370345   
     13. B(C  12,O   6)                  1.3599         0.625109   
     14. B(C  13,C  12)                  1.4106         0.579192   
     15. B(C  14,C  13)                  1.3986         0.605356   
     16. B(C  15,C  14)                  1.3968         0.609431   
     17. B(C  16,C  15)                  1.3966         0.609731   
     18. B(C  17,C  16)                  1.3982         0.606256   
     19. B(C  17,C  12)                  1.4018         0.598266   
     20. B(H  18,C  13)                  1.0809         0.372363   
     21. B(H  19,C  14)                  1.0824         0.370264   
     22. B(H  20,C  15)                  1.0823         0.370365   
     23. B(H  21,C  17)                  1.0829         0.369668   
     24. B(H  22,C  16)                  1.0824         0.370336   
     25. A(C   1,C   0,H   7)          121.3136         0.350851   
     26. A(C   1,C   0,C   2)          120.2785         0.426953   
     27. A(C   2,C   0,H   7)          118.4020         0.353483   
     28. A(C   0,C   1,C   5)          118.9492         0.426053   
     29. A(C   0,C   1,O   6)          122.9603         0.426617   
     30. A(C   5,C   1,O   6)          118.0673         0.429103   
     31. A(C   3,C   2,H   8)          119.8993         0.353546   
     32. A(C   0,C   2,H   8)          119.9521         0.353145   
     33. A(C   0,C   2,C   3)          120.1478         0.430868   
     34. A(C   2,C   3,H   9)          120.0231         0.353561   
     35. A(C   4,C   3,H   9)          120.0208         0.353593   
     36. A(C   2,C   3,C   4)          119.9550         0.431429   
     37. A(C   3,C   4,C   5)          120.0619         0.431025   
     38. A(C   5,C   4,H  11)          119.9761         0.353245   
     39. A(C   3,C   4,H  11)          119.9619         0.353589   
     40. A(C   1,C   5,H  10)          119.9519         0.352344   
     41. A(C   1,C   5,C   4)          120.5986         0.429556   
     42. A(C   4,C   5,H  10)          119.4488         0.353136   
     43. A(C   1,O   6,C  12)          129.2901         0.429673   
     44. A(C  13,C  12,C  17)          118.9491         0.426056   
     45. A(O   6,C  12,C  17)          118.0672         0.429105   
     46. A(O   6,C  12,C  13)          122.9603         0.426620   
     47. A(C  12,C  13,H  18)          121.3137         0.350850   
     48. A(C  12,C  13,C  14)          120.2787         0.426956   
     49. A(C  14,C  13,H  18)          118.4018         0.353482   
     50. A(C  15,C  14,H  19)          119.8985         0.353545   
     51. A(C  13,C  14,H  19)          119.9527         0.353144   
     52. A(C  13,C  14,C  15)          120.1481         0.430871   
     53. A(C  14,C  15,C  16)          119.9546         0.431429   
     54. A(C  16,C  15,H  20)          120.0204         0.353591   
     55. A(C  14,C  15,H  20)          120.0238         0.353562   
     56. A(C  15,C  16,C  17)          120.0618         0.431024   
     57. A(C  17,C  16,H  22)          119.9764         0.353244   
     58. A(C  15,C  16,H  22)          119.9617         0.353586   
     59. A(C  12,C  17,C  16)          120.5987         0.429558   
     60. A(C  16,C  17,H  21)          119.4491         0.353136   
     61. A(C  12,C  17,H  21)          119.9516         0.352344   
     62. D(O   6,C   1,C   0,H   7)      0.1171         0.023044   
     63. D(O   6,C   1,C   0,C   2)    179.2240         0.023044   
     64. D(C   5,C   1,C   0,C   2)      1.0144         0.023044   
     65. D(C   5,C   1,C   0,H   7)   -178.0925         0.023044   
     66. D(C   3,C   2,C   0,H   7)    178.8058         0.025286   
     67. D(H   8,C   2,C   0,C   1)    179.9780         0.025286   
     68. D(H   8,C   2,C   0,H   7)     -0.8894         0.025286   
     69. D(C   3,C   2,C   0,C   1)     -0.3268         0.025286   
     70. D(H   9,C   3,C   2,H   8)     -0.2362         0.025647   
     71. D(H   9,C   3,C   2,C   0)   -179.9315         0.025647   
     72. D(C   4,C   3,C   2,C   0)     -0.3208         0.025647   
     73. D(C   4,C   3,C   2,H   8)    179.3745         0.025647   
     74. D(H  11,C   4,C   3,C   2)   -179.6250         0.025676   
     75. D(C   5,C   4,C   3,H   9)    179.8786         0.025676   
     76. D(C   5,C   4,C   3,C   2)      0.2680         0.025676   
     77. D(H  11,C   4,C   3,H   9)     -0.0143         0.025676   
     78. D(H  10,C   5,C   4,H  11)      0.0323         0.025366   
     79. D(C   1,C   5,C   4,H  11)   -179.6694         0.025366   
     80. D(C   1,C   5,C   4,C   3)      0.4376         0.025366   
     81. D(H  10,C   5,C   1,O   6)      0.9317         0.024666   
     82. D(H  10,C   5,C   1,C   0)    179.2293         0.024666   
     83. D(H  10,C   5,C   4,C   3)   -179.8607         0.025366   
     84. D(C   4,C   5,C   1,O   6)   -179.3681         0.024666   
     85. D(C   4,C   5,C   1,C   0)     -1.0705         0.024666   
     86. D(C  12,O   6,C   1,C   5)   -155.9275         0.028703   
     87. D(C  12,O   6,C   1,C   0)     25.8480         0.028703   
     88. D(C  17,C  12,O   6,C   1)   -155.9300         0.028704   
     89. D(C  13,C  12,O   6,C   1)     25.8463         0.028704   
     90. D(H  18,C  13,C  12,O   6)      0.1168         0.023045   
     91. D(C  14,C  13,C  12,C  17)      1.0152         0.023045   
     92. D(C  14,C  13,C  12,O   6)    179.2240         0.023045   
     93. D(H  18,C  13,C  12,C  17)   -178.0920         0.023045   
     94. D(H  19,C  14,C  13,H  18)     -0.8889         0.025287   
     95. D(H  19,C  14,C  13,C  12)    179.9782         0.025287   
     96. D(C  15,C  14,C  13,H  18)    178.8055         0.025287   
     97. D(C  15,C  14,C  13,C  12)     -0.3274         0.025287   
     98. D(H  20,C  15,C  14,H  19)     -0.2365         0.025648   
     99. D(H  20,C  15,C  14,C  13)   -179.9310         0.025648   
    100. D(C  16,C  15,C  14,H  19)    179.3739         0.025648   
    101. D(C  16,C  15,C  14,C  13)     -0.3207         0.025648   
    102. D(H  22,C  16,C  15,H  20)     -0.0149         0.025675   
    103. D(H  22,C  16,C  15,C  14)   -179.6253         0.025675   
    104. D(C  17,C  16,C  15,H  20)    179.8783         0.025675   
    105. D(C  17,C  16,C  15,C  14)      0.2680         0.025675   
    106. D(H  21,C  17,C  16,H  22)      0.0319         0.025367   
    107. D(H  21,C  17,C  16,C  15)   -179.8613         0.025367   
    108. D(C  12,C  17,C  16,H  22)   -179.6688         0.025367   
    109. D(C  12,C  17,C  16,C  15)      0.4379         0.025367   
    110. D(H  21,C  17,C  12,C  13)    179.2295         0.024667   
    111. D(H  21,C  17,C  12,O   6)      0.9327         0.024667   
    112. D(C  16,C  17,C  12,C  13)     -1.0712         0.024667   
    113. D(C  16,C  17,C  12,O   6)   -179.3680         0.024667   
    -----------------------------------------------------------------

Number of atoms                         .... 23
Number of degrees of freedom            .... 113

         *************************************************************
         *                GEOMETRY OPTIMIZATION CYCLE   1            *
         *************************************************************
---------------------------------
CARTESIAN COORDINATES (ANGSTROEM)
---------------------------------
  C     -2.580050    3.243720   -0.294380
  C     -1.426470    2.681550    0.291380
  C     -3.725110    2.463840   -0.486040
  C     -3.730760    1.120250   -0.104280
  C     -2.588540    0.551940    0.464010
  C     -1.441550    1.328120    0.656190
  O     -0.279440    3.384750    0.489040
  H     -2.600170    4.274810   -0.618020
  H     -4.607480    2.900710   -0.935690
  H     -4.617630    0.518290   -0.254550
  H     -0.560750    0.876770    1.095580
  H     -2.590800   -0.490770    0.754290
  C     -0.107310    4.724060    0.649820
  C     -1.115420    5.572370    1.153770
  C     -0.872070    6.940600    1.311320
  C      0.374460    7.474530    0.976550
  C      1.382710    6.639680    0.489650
  C      1.143540    5.271160    0.331810
  H     -2.083480    5.186050    1.440000
  H     -1.649540    7.586770    1.698160
  H      0.560960    8.533480    1.100330
  H      1.933070    4.632630   -0.044370
  H      2.350640    7.052310    0.235930

----------------------------
CARTESIAN COORDINATES (A.U.)
----------------------------
  NO LB      ZA    FRAG     MASS         X           Y           Z
   0 C     6.0000    0    12.011   -4.875588    6.129742   -0.556298
   1 C     6.0000    0    12.011   -2.695638    5.067395    0.550628
   2 C     6.0000    0    12.011   -7.039438    4.655983   -0.918482
   3 C     6.0000    0    12.011   -7.050115    2.116966   -0.197061
   4 C     6.0000    0    12.011   -4.891632    1.043015    0.876852
   5 C     6.0000    0    12.011   -2.724135    2.509783    1.240019
   6 O     8.0000    0    15.999   -0.528065    6.396251    0.924152
   7 H     1.0000    0     1.008   -4.913609    8.078220   -1.167889
   8 H     1.0000    0     1.008   -8.706875    5.481547   -1.768198
   9 H     1.0000    0     1.008   -8.726056    0.979426   -0.481030
  10 H     1.0000    0     1.008   -1.059664    1.656855    2.070346
  11 H     1.0000    0     1.008   -4.895902   -0.927421    1.425402
  12 C     6.0000    0    12.011   -0.202787    8.927180    1.227982
  13 C     6.0000    0    12.011   -2.107838   10.530253    2.180309
  14 C     6.0000    0    12.011   -1.647973   13.115833    2.478036
  15 C     6.0000    0    12.011    0.707627   14.124815    1.845412
  16 C     6.0000    0    12.011    2.612943   12.547177    0.925304
  17 C     6.0000    0    12.011    2.160977    9.961049    0.627030
  18 H     1.0000    0     1.008   -3.937207    9.800214    2.721206
  19 H     1.0000    0     1.008   -3.117179   14.336918    3.209057
  20 H     1.0000    0     1.008    1.060061   16.125940    2.079322
  21 H     1.0000    0     1.008    3.652973    8.754402   -0.083847
  22 H     1.0000    0     1.008    4.442066   13.326935    0.445843

--------------------------------
INTERNAL COORDINATES (ANGSTROEM)
--------------------------------
 C      0   0   0     0.000000000000     0.00000000     0.00000000
 C      1   0   0     1.410636984805     0.00000000     0.00000000
 C      1   2   0     1.398609585839   120.27854427     0.00000000
 C      3   1   2     1.396784417224   120.14784805   359.67320059
 C      4   3   1     1.396637500785   119.95496333   359.67918414
 C      5   4   3     1.398204064112   120.06188065     0.26795168
 O      2   1   3     1.359866734831   122.96029932   179.22395474
 H      1   2   3     1.080876612801   121.31362242   180.89310530
 H      3   1   2     1.082412738423   119.95211051   179.97803298
 H      4   3   1     1.082347130730   120.02312532   180.06852061
 H      6   5   4     1.082861502963   119.44881333   180.13933545
 H      5   4   3     1.082363954546   119.96189954   180.37498235
 C      7   2   1     1.359864045190   129.29005001    25.84799508
 C     13   7   2     1.410631500676   122.96033668    25.84626517
 C     14  13   7     1.398604503747   120.27869528   179.22403443
 C     15  14  13     1.396778163740   120.14807282   359.67261201
 C     16  15  14     1.396643904150   119.95460196   359.67930991
 C     17  16  15     1.398199822951   120.06183026     0.26797532
 H     14  13   7     1.080884322627   121.31369381     0.11679937
 H     15  14  13     1.082423417799   119.95269802   179.97819624
 H     16  15  14     1.082348761213   120.02383698   180.06896210
 H     18  17  16     1.082861752118   119.44905687   180.13865388
 H     17  16  15     1.082370472713   119.96168968   180.37469465

---------------------------
INTERNAL COORDINATES (A.U.)
---------------------------
 C      0   0   0     0.000000000000     0.00000000     0.00000000
 C      1   0   0     2.665717575662     0.00000000     0.00000000
 C      1   2   0     2.642989085512   120.27854427     0.00000000
 C      3   1   2     2.639540016682   120.14784805   359.67320059
 C      4   3   1     2.639262384849   119.95496333   359.67918414
 C      5   4   3     2.642222760508   120.06188065     0.26795168
 O      2   1   3     2.569775707460   122.96029932   179.22395474
 H      1   2   3     2.042560782754   121.31362242   180.89310530
 H      3   1   2     2.045463639487   119.95211051   179.97803298
 H      4   3   1     2.045339658916   120.02312532   180.06852061
 H      6   5   4     2.046311681567   119.44881333   180.13933545
 H      5   4   3     2.045371451320   119.96189954   180.37498235
 C      7   2   1     2.569770624775   129.29005001    25.84799508
 C     13   7   2     2.665707212160   122.96033668    25.84626517
 C     14  13   7     2.642979481750   120.27869528   179.22403443
 C     15  14  13     2.639528199309   120.14807282   359.67261201
 C     16  15  14     2.639274485454   119.95460196   359.67930991
 C     17  16  15     2.642214745874   120.06183026     0.26797532
 H     14  13   7     2.042575352213   121.31369381     0.11679937
 H     15  14  13     2.045483820583   119.95269802   179.97819624
 H     16  15  14     2.045342740082   120.02383698   180.06896210
 H     18  17  16     2.046312152401   119.44905687   180.13865388
 H     17  16  15     2.045383768870   119.96168968   180.37469465

---------------------
BASIS SET INFORMATION
---------------------
There are 3 groups of distinct atoms

 Group   1 Type C   : 10s4p1d contracted to 3s2p1d pattern {631/31/1}
 Group   2 Type O   : 10s4p1d contracted to 3s2p1d pattern {631/31/1}
 Group   3 Type H   : 4s contracted to 2s pattern {31}

Atom   0C    basis set group =>   1
Atom   1C    basis set group =>   1
Atom   2C    basis set group =>   1
Atom   3C    basis set group =>   1
Atom   4C    basis set group =>   1
Atom   5C    basis set group =>   1
Atom   6O    basis set group =>   2
Atom   7H    basis set group =>   3
Atom   8H    basis set group =>   3
Atom   9H    basis set group =>   3
Atom  10H    basis set group =>   3
Atom  11H    basis set group =>   3
Atom  12C    basis set group =>   1
Atom  13C    basis set group =>   1
Atom  14C    basis set group =>   1
Atom  15C    basis set group =>   1
Atom  16C    basis set group =>   1
Atom  17C    basis set group =>   1
Atom  18H    basis set group =>   3
Atom  19H    basis set group =>   3
Atom  20H    basis set group =>   3
Atom  21H    basis set group =>   3
Atom  22H    basis set group =>   3

-------------------------
BASIS SET IN INPUT FORMAT
-------------------------

 # Basis set for element : H 
 NewGTO H 
 S 3 
   1      18.7311370000      0.0334945995
   2       2.8253937000      0.2347269467
   3       0.6401217000      0.8137573184
 S 1 
   1       0.1612778000      1.0000000000
  end;

 # Basis set for element : C 
 NewGTO C 
 S 6 
   1    3047.5249000000      0.0018347002
   2     457.3695100000      0.0140373012
   3     103.9486900000      0.0688426061
   4      29.2101550000      0.2321844206
   5       9.2866630000      0.4679413416
   6       3.1639270000      0.3623120322
 S 3 
   1       7.8682724000     -0.1193324086
   2       1.8812885000     -0.1608542116
   3       0.5442493000      1.1434564826
 P 3 
   1       7.8682724000      0.0689990956
   2       1.8812885000      0.3164239798
   3       0.5442493000      0.7443082524
 S 1 
   1       0.1687144000      1.0000000000
 P 1 
   1       0.1687144000      1.0000000000
 D 1 
   1       0.8000000000      1.0000000000
  end;

 # Basis set for element : O 
 NewGTO O 
 S 6 
   1    5484.6717000000      0.0018310998
   2     825.2349500000      0.0139500985
   3     188.0469600000      0.0684450927
   4      52.9645000000      0.2327142753
   5      16.8975700000      0.4701929501
   6       5.7996353000      0.3585208619
 S 3 
   1      15.5396160000     -0.1107775038
   2       3.5999336000     -0.1480263051
   3       1.0137618000      1.1307670390
 P 3 
   1      15.5396160000      0.0708742995
   2       3.5999336000      0.3397527978
   3       1.0137618000      0.7271585953
 S 1 
   1       0.2700058000      1.0000000000
 P 1 
   1       0.2700058000      1.0000000000
 D 1 
   1       0.8000000000      1.0000000000
  end;

------------------------------------------------------------------------------
                           ORCA GTO INTEGRAL CALCULATION
------------------------------------------------------------------------------

                         BASIS SET STATISTICS AND STARTUP INFO

 # of primitive gaussian shells          ...  235
 # of primitive gaussian functions       ...  391
 # of contracted shells                  ...   98
 # of contracted basis functions         ...  202
 Highest angular momentum                ...    2
 Maximum contraction depth               ...    6
 Integral package used                   ... LIBINT
 Integral threshhold            Thresh   ...  2.500e-11
 Primitive cut-off              TCut     ...  2.500e-12


------------------------------ INTEGRAL EVALUATION ----------------------------


 * One electron integrals 
 Pre-screening matrix                    ... done
 Shell pair data                         ... done (   0.003 sec)

-------------------------------------------------------------------------------
                                 ORCA SCF
-------------------------------------------------------------------------------

------------
SCF SETTINGS
------------
Hamiltonian:
 Density Functional     Method          .... DFT(GTOs)
 Exchange Functional    Exchange        .... B88
   X-Alpha parameter    XAlpha          ....  0.666667
   Becke's b parameter  XBeta           ....  0.004200
 Correlation Functional Correlation     .... LYP
 LDA part of GGA corr.  LDAOpt          .... VWN-5
 Gradients option       PostSCFGGA      .... off
 Hybrid DFT is turned on
   Fraction HF Exchange ScalHFX         ....  0.200000
   Scaling of DF-GGA-X  ScalDFX         ....  0.720000
   Scaling of DF-GGA-C  ScalDFC         ....  0.810000
   Scaling of DF-LDA-C  ScalLDAC        ....  1.000000
   Perturbative correction              ....  0.000000
   Density functional embedding theory  .... OFF
   NL short-range parameter             ....  4.800000


General Settings:
 Integral files         IntName         .... /Users/lailaal-madhagi/Desktop/Testing_XAS_Analysis_code/PhenylEther//Results_dir_PhenylEther_geom_element_C_2019-11-18_18-47-34//GTE1_PhenylEther_geom_2019-11-18_18-48-25//opt
 Hartree-Fock type      HFTyp           .... RHF
 Total Charge           Charge          ....    0
 Multiplicity           Mult            ....    1
 Number of Electrons    NEL             ....   90
 Basis Dimension        Dim             ....  202
 Nuclear Repulsion      ENuc            ....    696.2006096000 Eh

Convergence Acceleration:
 DIIS                   CNVDIIS         .... on
   Start iteration      DIISMaxIt       ....    12
   Startup error        DIISStart       ....  0.200000
   # of expansion vecs  DIISMaxEq       ....     5
   Bias factor          DIISBfac        ....   1.050
   Max. coefficient     DIISMaxC        ....  10.000
 Newton-Raphson         CNVNR           .... off
 SOSCF                  CNVSOSCF        .... on
   Start iteration      SOSCFMaxIt      ....   150
   Startup grad/error   SOSCFStart      ....  0.003300
 Level Shifting         CNVShift        .... on
   Level shift para.    LevelShift      ....    0.2500
   Turn off err/grad.   ShiftErr        ....    0.0010
 Zerner damping         CNVZerner       .... off
 Static damping         CNVDamp         .... on
   Fraction old density DampFac         ....    0.7000
   Max. Damping (<1)    DampMax         ....    0.9800
   Min. Damping (>=0)   DampMin         ....    0.0000
   Turn off err/grad.   DampErr         ....    0.1000
 Fernandez-Rico         CNVRico         .... off

SCF Procedure:
 Maximum # iterations   MaxIter         ....   125
 SCF integral mode      SCFMode         .... Direct
   Integral package                     .... LIBINT
 Reset frequency        DirectResetFreq ....    20
 Integral Threshold     Thresh          ....  2.500e-11 Eh
 Primitive CutOff       TCut            ....  2.500e-12 Eh

Convergence Tolerance:
 Convergence Check Mode ConvCheckMode   .... Total+1el-Energy
 Convergence forced     ConvForced      .... 0
 Energy Change          TolE            ....  1.000e-08 Eh
 1-El. energy change                    ....  1.000e-05 Eh
 Orbital Gradient       TolG            ....  1.000e-05
 Orbital Rotation angle TolX            ....  1.000e-05
 DIIS Error             TolErr          ....  5.000e-07


Diagonalization of the overlap matrix:
Smallest eigenvalue                        ... 4.698e-04
Time for diagonalization                   ...    0.011 sec
Threshold for overlap eigenvalues          ... 1.000e-08
Number of eigenvalues below threshold      ... 0
Time for construction of square roots      ...    0.007 sec
Total time needed                          ...    0.019 sec

-------------------
DFT GRID GENERATION
-------------------

General Integration Accuracy     IntAcc      ...  4.340
Radial Grid Type                 RadialGrid  ... Gauss-Chebyshev
Angular Grid (max. acc.)         AngularGrid ... Lebedev-194
Angular grid pruning method      GridPruning ... 3 (G Style)
Weight generation scheme         WeightScheme... Becke
Basis function cutoff            BFCut       ...    1.0000e-11
Integration weight cutoff        WCut        ...    1.0000e-14
Grids for H and He will be reduced by one unit

# of grid points (after initial pruning)     ...  57946 (   0.0 sec)
# of grid points (after weights+screening)   ...  52586 (   0.3 sec)
nearest neighbour list constructed           ...    0.0 sec
Grid point re-assignment to atoms done       ...    0.0 sec
Grid point division into batches done        ...    0.1 sec
Reduced shell lists constructed in    0.6 sec

Total number of grid points                  ...    52586
Total number of batches                      ...      835
Average number of points per batch           ...       62
Average number of grid points per atom       ...     2286
Average number of shells per batch           ...    54.56 (55.67%)
Average number of basis functions per batch  ...   113.96 (56.41%)
Average number of large shells per batch     ...    38.92 (71.33%)
Average number of large basis fcns per batch ...    82.51 (72.41%)
Maximum spatial batch extension              ...  18.45, 19.41, 22.72 au
Average spatial batch extension              ...   2.97,  2.84,  3.30 au

Time for grid setup =    0.877 sec

------------------------------
INITIAL GUESS: MODEL POTENTIAL
------------------------------
Loading Hartree-Fock densities                     ... done
Calculating cut-offs                               ... done
Setting up the integral package                    ... done
Initializing the effective Hamiltonian             ... done
Starting the Coulomb interaction                   ... done (   0.3 sec)
Reading the grid                                   ... done
Mapping shells                                     ... done
Starting the XC term evaluation                    ... done (   0.7 sec)
  promolecular density results
     # of electrons  =     89.994760111
     EX              =    -72.864169859
     EC              =     -3.028545616
     EX+EC           =    -75.892715475
Transforming the Hamiltonian                       ... done (   0.0 sec)
Diagonalizing the Hamiltonian                      ... done (   0.0 sec)
Back transforming the eigenvectors                 ... done (   0.0 sec)
Now organizing SCF variables                       ... done
                      ------------------
                      INITIAL GUESS DONE (   1.9 sec)
                      ------------------
--------------
SCF ITERATIONS
--------------
               ***  Starting incremental Fock matrix formation  ***

                         ----------------------------
                         !        ITERATION     0   !
                         ----------------------------
   Total Energy        :    -537.883738154000 Eh
   Energy Change       :    -537.883738154000 Eh
   MAX-DP              :       0.045190867886
   RMS-DP              :       0.001874185297
   Actual Damping      :       0.7000
   Actual Level Shift  :       0.2500 Eh
   Int. Num. El.       :    89.99948649 (UP=   44.99974324 DN=   44.99974324)
   Exchange            :   -59.57687332
   Correlation         :    -3.60867592


                         ----------------------------
                         !        ITERATION     1   !
                         ----------------------------
   Total Energy        :    -538.009632341048 Eh
   Energy Change       :      -0.125894187047 Eh
   MAX-DP              :       0.031363778110
   RMS-DP              :       0.001386658281
   Actual Damping      :       0.7000
   Actual Level Shift  :       0.2500 Eh
   Int. Num. El.       :    89.99945182 (UP=   44.99972591 DN=   44.99972591)
   Exchange            :   -59.24651383
   Correlation         :    -3.59463082

                               ***Turning on DIIS***

                         ----------------------------
                         !        ITERATION     2   !
                         ----------------------------
   Total Energy        :    -538.064771040293 Eh
   Energy Change       :      -0.055138699245 Eh
   MAX-DP              :       0.053419449455
   RMS-DP              :       0.002417961571
   Actual Damping      :       0.0000
   Actual Level Shift  :       0.2500 Eh
   Int. Num. El.       :    89.99943434 (UP=   44.99971717 DN=   44.99971717)
   Exchange            :   -59.01405874
   Correlation         :    -3.58437253
   DIIS-Error          :       0.036126022901


                         ----------------------------
                         !        ITERATION     3   !
                         ----------------------------
   Total Energy        :    -538.144443861551 Eh
   Energy Change       :      -0.079672821258 Eh
   MAX-DP              :       0.024599601878
   RMS-DP              :       0.000954844393
   Actual Damping      :       0.0000
   Actual Level Shift  :       0.2500 Eh
   Int. Num. El.       :    89.99940828 (UP=   44.99970414 DN=   44.99970414)
   Exchange            :   -58.62316533
   Correlation         :    -3.56681032
   DIIS-Error          :       0.040335321675
   DIIS coefficients:
      0.56008   0.43992


                         ----------------------------
                         !        ITERATION     4   !
                         ----------------------------
   Total Energy        :    -538.164121543918 Eh
   Energy Change       :      -0.019677682367 Eh
   MAX-DP              :       0.009601010705
   RMS-DP              :       0.000334815950
   Actual Damping      :       0.0000
   Actual Level Shift  :       0.2500 Eh
   Int. Num. El.       :    89.99941358 (UP=   44.99970679 DN=   44.99970679)
   Exchange            :   -58.75437838
   Correlation         :    -3.57330742
   DIIS-Error          :       0.011057228196
   DIIS coefficients:
      0.19228   0.01532   0.79240

                      *** Initiating the SOSCF procedure ***
                           *** Shutting down DIIS ***
                      *** Re-Reading the Fockian *** 
                      *** Removing any level shift *** 

                         ----------------------------
                         !        ITERATION     5   !
                         ----------------------------
   Total Energy        :    -538.165234400137 Eh
   Energy Change       :      -0.001112856219 Eh
   MAX-DP              :       0.002976204915
   RMS-DP              :       0.000095729839
   Orbital gradient    :       0.000856737622
   Orbital Rotation    :       0.000856737622
   Actual Damping      :       0.0000
   Int. Num. El.       :    89.99941026 (UP=   44.99970513 DN=   44.99970513)
   Exchange            :   -58.79778382
   Correlation         :    -3.57527429

               *** Restarting incremental Fock matrix formation ***

                         ----------------------------
                         !        ITERATION     6   !
                         ----------------------------
   Total Energy        :    -538.165306863075 Eh
   Energy Change       :      -0.000072462939 Eh
   MAX-DP              :       0.001388563652
   RMS-DP              :       0.000045794265
   Orbital gradient    :       0.000206972032
   Orbital Rotation    :       0.000856312746
   Actual Damping      :       0.0000
   Int. Num. El.       :    89.99940874 (UP=   44.99970437 DN=   44.99970437)
   Exchange            :   -58.80315600
   Correlation         :    -3.57554700


                         ----------------------------
                         !        ITERATION     7   !
                         ----------------------------
   Total Energy        :    -538.165308301593 Eh
   Energy Change       :      -0.000001438517 Eh
   MAX-DP              :       0.000936558272
   RMS-DP              :       0.000014760200
   Orbital gradient    :       0.000297978979
   Orbital Rotation    :       0.000372110383
   Actual Damping      :       0.0000
   Int. Num. El.       :    89.99940729 (UP=   44.99970364 DN=   44.99970364)
   Exchange            :   -58.80562634
   Correlation         :    -3.57562763


                         ----------------------------
                         !        ITERATION     8   !
                         ----------------------------
   Total Energy        :    -538.165310426245 Eh
   Energy Change       :      -0.000002124652 Eh
   MAX-DP              :       0.000306224749
   RMS-DP              :       0.000011614252
   Orbital gradient    :       0.000100416755
   Orbital Rotation    :       0.000317418546
   Actual Damping      :       0.0000
   Int. Num. El.       :    89.99940700 (UP=   44.99970350 DN=   44.99970350)
   Exchange            :   -58.80457557
   Correlation         :    -3.57559984


                         ----------------------------
                         !        ITERATION     9   !
                         ----------------------------
   Total Energy        :    -538.165310468245 Eh
   Energy Change       :      -0.000000042000 Eh
   MAX-DP              :       0.000167550163
   RMS-DP              :       0.000003922642
   Orbital gradient    :       0.000102563184
   Orbital Rotation    :       0.000167557169
   Actual Damping      :       0.0000
   Int. Num. El.       :    89.99940730 (UP=   44.99970365 DN=   44.99970365)
   Exchange            :   -58.80414663
   Correlation         :    -3.57557769


                         ----------------------------
                         !        ITERATION    10   !
                         ----------------------------
   Total Energy        :    -538.165310654607 Eh
   Energy Change       :      -0.000000186362 Eh
   MAX-DP              :       0.000113422940
   RMS-DP              :       0.000003433301
   Orbital gradient    :       0.000018908542
   Orbital Rotation    :       0.000040666064
   Actual Damping      :       0.0000
   Int. Num. El.       :    89.99940732 (UP=   44.99970366 DN=   44.99970366)
   Exchange            :   -58.80436464
   Correlation         :    -3.57558791


                         ----------------------------
                         !        ITERATION    11   !
                         ----------------------------
   Total Energy        :    -538.165310661396 Eh
   Energy Change       :      -0.000000006789 Eh
   MAX-DP              :       0.000041961004
   RMS-DP              :       0.000001271329
   Orbital gradient    :       0.000022206094
   Orbital Rotation    :       0.000040623607
   Actual Damping      :       0.0000
   Int. Num. El.       :    89.99940723 (UP=   44.99970361 DN=   44.99970361)
   Exchange            :   -58.80452103
   Correlation         :    -3.57559588


                         ----------------------------
                         !        ITERATION    12   !
                         ----------------------------
   Total Energy        :    -538.165310678560 Eh
   Energy Change       :      -0.000000017164 Eh
   MAX-DP              :       0.000023039989
   RMS-DP              :       0.000000929780
   Orbital gradient    :       0.000007674782
   Orbital Rotation    :       0.000020987689
   Actual Damping      :       0.0000
   Int. Num. El.       :    89.99940724 (UP=   44.99970362 DN=   44.99970362)
   Exchange            :   -58.80442447
   Correlation         :    -3.57559062


                         ----------------------------
                         !        ITERATION    13   !
                         ----------------------------
   Total Energy        :    -538.165310678185 Eh
   Energy Change       :       0.000000000376 Eh
   MAX-DP              :       0.000011005333
   RMS-DP              :       0.000000398968
   Orbital gradient    :       0.000004690471
   Orbital Rotation    :       0.000009222715
   Actual Damping      :       0.0000
   Int. Num. El.       :    89.99940726 (UP=   44.99970363 DN=   44.99970363)
   Exchange            :   -58.80439156
   Correlation         :    -3.57558929

                  ***Gradient check signals convergence***
              ***Rediagonalizing the Fockian in SOSCF/NRSCF***

               *****************************************************
               *                     SUCCESS                       *
               *           SCF CONVERGED AFTER  14 CYCLES          *
               *****************************************************

Setting up the final grid:

General Integration Accuracy     IntAcc      ...  5.010
Radial Grid Type                 RadialGrid  ... Gauss-Chebyshev
Angular Grid (max. acc.)         AngularGrid ... Lebedev-434
Angular grid pruning method      GridPruning ... 3 (G Style)
Weight generation scheme         WeightScheme... Becke
Basis function cutoff            BFCut       ...    1.0000e-11
Integration weight cutoff        WCut        ...    1.0000e-14
Grids for H and He will be reduced by one unit

# of grid points (after initial pruning)     ... 206138 (   0.1 sec)
# of grid points (after weights+screening)   ... 185257 (   0.6 sec)
nearest neighbour list constructed           ...    0.0 sec
Grid point re-assignment to atoms done       ...    0.0 sec
Grid point division into batches done        ...    1.0 sec
Reduced shell lists constructed in    2.2 sec

Total number of grid points                  ...   185257
Total number of batches                      ...     2906
Average number of points per batch           ...       63
Average number of grid points per atom       ...     8055
Average number of shells per batch           ...    50.06 (51.08%)
Average number of basis functions per batch  ...   104.32 (51.65%)
Average number of large shells per batch     ...    35.26 (70.43%)
Average number of large basis fcns per batch ...    74.41 (71.32%)
Maximum spatial batch extension              ...  20.90, 18.95, 22.15 au
Average spatial batch extension              ...   2.01,  1.96,  2.10 au

Final grid set up in    3.0 sec
Final integration                            ... done (   2.0 sec)
Change in XC energy                          ...    -0.000214855
Integrated number of electrons               ...    89.999982897
Previous integrated no of electrons          ...    89.999407258

----------------
TOTAL SCF ENERGY
----------------

Total Energy       :         -538.16552554 Eh          -14644.22845 eV

Components:
Nuclear Repulsion  :          696.20060960 Eh           18944.58171 eV
Electronic Energy  :        -1234.36613514 Eh          -33588.81016 eV
One Electron Energy:        -2108.61622037 Eh          -57378.36442 eV
Two Electron Energy:          874.25008523 Eh           23789.55426 eV

Virial components:
Potential Energy   :        -1073.12965138 Eh          -29201.34238 eV
Kinetic Energy     :          534.96412584 Eh           14557.11393 eV
Virial Ratio       :            2.00598433


DFT components:
N(Alpha)           :       44.999991448407 electrons
N(Beta)            :       44.999991448407 electrons
N(Total)           :       89.999982896813 electrons
E(X)               :      -58.804666824940 Eh       
E(C)               :       -3.575561761728 Eh       
E(XC)              :      -62.380228586667 Eh       
DFET-embed. en.    :        0.000000000000 Eh       

---------------
SCF CONVERGENCE
---------------

  Last Energy change         ...   -2.3166e-09  Tolerance :   1.0000e-08
  Last MAX-Density change    ...    3.2097e-06  Tolerance :   1.0000e-07
  Last RMS-Density change    ...    1.6400e-07  Tolerance :   5.0000e-09
  Last Orbital Gradient      ...    8.9457e-07  Tolerance :   1.0000e-05
  Last Orbital Rotation      ...    4.0437e-06  Tolerance :   1.0000e-05

             **** THE GBW FILE WAS UPDATED (/Users/lailaal-madhagi/Desktop/Testing_XAS_Analysis_code/PhenylEther//Results_dir_PhenylEther_geom_element_C_2019-11-18_18-47-34//GTE1_PhenylEther_geom_2019-11-18_18-48-25//opt.gbw) ****
             **** DENSITY FILE WAS UPDATED (/Users/lailaal-madhagi/Desktop/Testing_XAS_Analysis_code/PhenylEther//Results_dir_PhenylEther_geom_element_C_2019-11-18_18-47-34//GTE1_PhenylEther_geom_2019-11-18_18-48-25//opt.scfp.tmp) ****
             **** ENERGY FILE WAS UPDATED (/Users/lailaal-madhagi/Desktop/Testing_XAS_Analysis_code/PhenylEther//Results_dir_PhenylEther_geom_element_C_2019-11-18_18-47-34//GTE1_PhenylEther_geom_2019-11-18_18-48-25//opt.en.tmp) ****
----------------
ORBITAL ENERGIES
----------------

  NO   OCC          E(Eh)            E(eV) 
   0   2.0000     -19.183323      -522.0048 
   1   2.0000     -10.249412      -278.9007 
   2   2.0000     -10.249401      -278.9004 
   3   2.0000     -10.183045      -277.0947 
   4   2.0000     -10.183015      -277.0939 
   5   2.0000     -10.182951      -277.0922 
   6   2.0000     -10.182906      -277.0909 
   7   2.0000     -10.180205      -277.0175 
   8   2.0000     -10.180149      -277.0159 
   9   2.0000     -10.179608      -277.0012 
  10   2.0000     -10.179602      -277.0010 
  11   2.0000     -10.175600      -276.8921 
  12   2.0000     -10.175579      -276.8916 
  13   2.0000      -1.083826       -29.4924 
  14   2.0000      -0.855215       -23.2716 
  15   2.0000      -0.839485       -22.8435 
  16   2.0000      -0.765032       -20.8176 
  17   2.0000      -0.745646       -20.2901 
  18   2.0000      -0.740301       -20.1446 
  19   2.0000      -0.717838       -19.5334 
  20   2.0000      -0.638598       -17.3771 
  21   2.0000      -0.615375       -16.7452 
  22   2.0000      -0.598712       -16.2918 
  23   2.0000      -0.576583       -15.6896 
  24   2.0000      -0.545888       -14.8544 
  25   2.0000      -0.504234       -13.7209 
  26   2.0000      -0.483594       -13.1593 
  27   2.0000      -0.474974       -12.9247 
  28   2.0000      -0.457887       -12.4597 
  29   2.0000      -0.446425       -12.1478 
  30   2.0000      -0.438495       -11.9321 
  31   2.0000      -0.421314       -11.4645 
  32   2.0000      -0.420246       -11.4355 
  33   2.0000      -0.405864       -11.0441 
  34   2.0000      -0.384582       -10.4650 
  35   2.0000      -0.365026        -9.9329 
  36   2.0000      -0.359864        -9.7924 
  37   2.0000      -0.355356        -9.6697 
  38   2.0000      -0.346955        -9.4411 
  39   2.0000      -0.327972        -8.9246 
  40   2.0000      -0.324554        -8.8316 
  41   2.0000      -0.248998        -6.7756 
  42   2.0000      -0.246856        -6.7173 
  43   2.0000      -0.246606        -6.7105 
  44   2.0000      -0.207798        -5.6545 
  45   0.0000      -0.004842        -0.1318 
  46   0.0000       0.000560         0.0152 
  47   0.0000       0.002318         0.0631 
  48   0.0000       0.025213         0.6861 
  49   0.0000       0.090081         2.4512 
  50   0.0000       0.101101         2.7511 
  51   0.0000       0.143669         3.9094 
  52   0.0000       0.149423         4.0660 
  53   0.0000       0.150187         4.0868 
  54   0.0000       0.156784         4.2663 
  55   0.0000       0.162617         4.4250 
  56   0.0000       0.172730         4.7002 
  57   0.0000       0.180156         4.9023 
  58   0.0000       0.190856         5.1935 
  59   0.0000       0.194007         5.2792 
  60   0.0000       0.197211         5.3664 
  61   0.0000       0.200658         5.4602 
  62   0.0000       0.262445         7.1415 
  63   0.0000       0.276960         7.5365 
  64   0.0000       0.303273         8.2525 
  65   0.0000       0.307219         8.3598 
  66   0.0000       0.317534         8.6405 
  67   0.0000       0.329759         8.9732 
  68   0.0000       0.332779         9.0554 
  69   0.0000       0.357717         9.7340 
  70   0.0000       0.386207        10.5092 
  71   0.0000       0.461719        12.5640 
  72   0.0000       0.485456        13.2099 
  73   0.0000       0.486787        13.2461 
  74   0.0000       0.521448        14.1893 
  75   0.0000       0.532529        14.4908 
  76   0.0000       0.544757        14.8236 
  77   0.0000       0.549261        14.9462 
  78   0.0000       0.554101        15.0778 
  79   0.0000       0.559581        15.2270 
  80   0.0000       0.574272        15.6267 
  81   0.0000       0.589402        16.0384 
  82   0.0000       0.597024        16.2458 
  83   0.0000       0.597770        16.2661 
  84   0.0000       0.600583        16.3427 
  85   0.0000       0.606058        16.4917 
  86   0.0000       0.608737        16.5646 
  87   0.0000       0.619026        16.8446 
  88   0.0000       0.620203        16.8766 
  89   0.0000       0.624223        16.9860 
  90   0.0000       0.624430        16.9916 
  91   0.0000       0.633792        17.2464 
  92   0.0000       0.634541        17.2667 
  93   0.0000       0.658546        17.9200 
  94   0.0000       0.660542        17.9743 
  95   0.0000       0.665843        18.1185 
  96   0.0000       0.687026        18.6949 
  97   0.0000       0.703295        19.1376 
  98   0.0000       0.762479        20.7481 
  99   0.0000       0.780480        21.2379 
 100   0.0000       0.831332        22.6217 
 101   0.0000       0.832148        22.6439 
 102   0.0000       0.842520        22.9261 
 103   0.0000       0.847239        23.0545 
 104   0.0000       0.853031        23.2122 
 105   0.0000       0.856015        23.2933 
 106   0.0000       0.874190        23.7879 
 107   0.0000       0.877823        23.8868 
 108   0.0000       0.886113        24.1124 
 109   0.0000       0.921979        25.0883 
 110   0.0000       0.922796        25.1106 
 111   0.0000       0.933305        25.3965 
 112   0.0000       0.939298        25.5596 
 113   0.0000       0.952649        25.9229 
 114   0.0000       0.960958        26.1490 
 115   0.0000       0.979045        26.6412 
 116   0.0000       0.979868        26.6636 
 117   0.0000       1.030886        28.0518 
 118   0.0000       1.054494        28.6942 
 119   0.0000       1.074713        29.2444 
 120   0.0000       1.089123        29.6366 
 121   0.0000       1.114041        30.3146 
 122   0.0000       1.128706        30.7137 
 123   0.0000       1.167098        31.7583 
 124   0.0000       1.173089        31.9214 
 125   0.0000       1.188695        32.3460 
 126   0.0000       1.194799        32.5121 
 127   0.0000       1.199258        32.6335 
 128   0.0000       1.243820        33.8461 
 129   0.0000       1.276886        34.7458 
 130   0.0000       1.287144        35.0250 
 131   0.0000       1.325052        36.0565 
 132   0.0000       1.411434        38.4071 
 133   0.0000       1.424687        38.7677 
 134   0.0000       1.433300        39.0021 
 135   0.0000       1.434222        39.0272 
 136   0.0000       1.453793        39.5597 
 137   0.0000       1.463241        39.8168 
 138   0.0000       1.467486        39.9323 
 139   0.0000       1.483915        40.3794 
 140   0.0000       1.498229        40.7689 
 141   0.0000       1.498710        40.7820 
 142   0.0000       1.514262        41.2052 
 143   0.0000       1.516635        41.2697 
 144   0.0000       1.539036        41.8793 
 145   0.0000       1.688138        45.9366 
 146   0.0000       1.740064        47.3496 
 147   0.0000       1.762893        47.9707 
 148   0.0000       1.772544        48.2334 
 149   0.0000       1.814801        49.3833 
 150   0.0000       1.831671        49.8423 
 151   0.0000       1.877931        51.1011 
 152   0.0000       1.884727        51.2860 
 153   0.0000       1.906579        51.8807 
 154   0.0000       1.915972        52.1362 
 155   0.0000       1.920080        52.2480 
 156   0.0000       1.952279        53.1242 
 157   0.0000       1.958044        53.2811 
 158   0.0000       1.976359        53.7794 
 159   0.0000       1.981930        53.9310 
 160   0.0000       1.982701        53.9520 
 161   0.0000       2.008812        54.6625 
 162   0.0000       2.071406        56.3658 
 163   0.0000       2.071554        56.3699 
 164   0.0000       2.120456        57.7006 
 165   0.0000       2.132526        58.0290 
 166   0.0000       2.133777        58.0630 
 167   0.0000       2.146648        58.4133 
 168   0.0000       2.148429        58.4617 
 169   0.0000       2.162713        58.8504 
 170   0.0000       2.181677        59.3665 
 171   0.0000       2.226970        60.5989 
 172   0.0000       2.247208        61.1496 
 173   0.0000       2.255286        61.3694 
 174   0.0000       2.298345        62.5412 
 175   0.0000       2.306438        62.7614 
 176   0.0000       2.307998        62.8038 
 177   0.0000       2.314706        62.9863 
 178   0.0000       2.385915        64.9241 
 179   0.0000       2.459534        66.9273 
 180   0.0000       2.530493        68.8582 
 181   0.0000       2.565202        69.8027 
 182   0.0000       2.584079        70.3164 
 183   0.0000       2.595468        70.6263 
 184   0.0000       2.603253        70.8381 
 185   0.0000       2.637073        71.7584 
 186   0.0000       2.648616        72.0725 
 187   0.0000       2.687212        73.1228 
 188   0.0000       2.724077        74.1259 
 189   0.0000       2.727164        74.2099 
 190   0.0000       2.727821        74.2278 
 191   0.0000       2.738445        74.5169 
 192   0.0000       2.741324        74.5952 
 193   0.0000       2.751056        74.8600 
 194   0.0000       2.786422        75.8224 
 195   0.0000       2.838046        77.2272 
 196   0.0000       2.945136        80.1412 
 197   0.0000       2.966252        80.7158 
 198   0.0000       3.134396        85.2913 
 199   0.0000       3.318716        90.3069 
 200   0.0000       3.409944        92.7893 
 201   0.0000       3.449247        93.8588 
------------------
MOLECULAR ORBITALS
------------------
                      0         1         2         3         4         5   
                 -19.18332 -10.24941 -10.24940 -10.18304 -10.18302 -10.18295
                   2.00000   2.00000   2.00000   2.00000   2.00000   2.00000
                  --------  --------  --------  --------  --------  --------
  0C   1s         0.000025  0.002000  0.001779 -0.000334  0.073900 -0.000070
  0C   2s         0.000322 -0.001958 -0.001031  0.000050  0.000559  0.000003
  0C   1pz        0.000038 -0.000296 -0.000306  0.000013  0.000189 -0.000004
  0C   1px       -0.000072 -0.000402 -0.000653  0.000006  0.001076 -0.000003
  0C   1py       -0.000034  0.000478  0.000392 -0.000019  0.000720  0.000009
  0C   3s        -0.005268  0.020089  0.008203 -0.000626  0.010953 -0.000208
  0C   2pz       -0.000679  0.003908  0.001584 -0.000199  0.000740 -0.000057
  0C   2px        0.003239  0.002347 -0.000034 -0.000024 -0.001957 -0.000104
  0C   2py        0.006050 -0.009485 -0.006542  0.000622 -0.005068  0.000048
  0C   1dz2       0.000048  0.000102  0.000180  0.000008  0.000542 -0.000003
  0C   1dxz       0.000065 -0.000417 -0.000507 -0.000006 -0.000231 -0.000001
  0C   1dyz       0.000142  0.000145  0.000170  0.000002 -0.000215  0.000002
  0C   1dx2y2     0.000316 -0.000411 -0.000478  0.000020 -0.000458  0.000005
  0C   1dxy       0.000089  0.000572  0.000323  0.000014 -0.000980  0.000006
  1C   1s        -0.000129  0.763153  0.638715 -0.000010 -0.000167  0.000023
  1C   2s        -0.001153  0.029340  0.024047  0.000004 -0.000195 -0.000098
  1C   1pz       -0.000043  0.000191  0.000195  0.000023  0.000103 -0.000007
  1C   1px       -0.000231  0.001150  0.000934 -0.000013  0.000240 -0.000049
  1C   1py       -0.000163  0.001065  0.000369  0.000061 -0.000010 -0.000024
  1C   3s        -0.000942 -0.019761 -0.019819  0.000439 -0.004898 -0.000184
  1C   2pz       -0.001254  0.004946  0.000851 -0.000192  0.000412 -0.000164
  1C   2px       -0.009889  0.017496  0.008539 -0.000835  0.001376 -0.000462
  1C   2py       -0.008990  0.002381  0.009499 -0.000786  0.000348  0.000029
  1C   1dz2       0.000012 -0.000878 -0.000798  0.000022  0.000032  0.000017
  1C   1dxz      -0.000071  0.000463  0.000510 -0.000003 -0.000085 -0.000016
  1C   1dyz       0.000102 -0.000175 -0.000052 -0.000015 -0.000020 -0.000005
  1C   1dx2y2     0.000234  0.000261  0.000402 -0.000032 -0.000157 -0.000027
  1C   1dxy       0.000050  0.000886  0.000654 -0.000013  0.000011 -0.000024
  2C   1s        -0.000018  0.000038 -0.000020 -0.005518  0.990897 -0.001400
  2C   2s        -0.000064  0.000156 -0.000089 -0.000221  0.036116 -0.000038
  2C   1pz        0.000051 -0.000094 -0.000083 -0.000008  0.000320 -0.000001
  2C   1px        0.000193 -0.000339 -0.000217  0.000005  0.000629  0.000005
  2C   1py       -0.000010 -0.000168  0.000005  0.000002 -0.000310 -0.000000
  2C   3s         0.005923 -0.008861 -0.005717  0.000677 -0.031357 -0.000016
  2C   2pz        0.000752 -0.001921 -0.000908  0.000171 -0.002793 -0.000010
  2C   2px        0.002369 -0.004046 -0.002172  0.000276 -0.005480 -0.000057
  2C   2py        0.000701  0.001416  0.000789 -0.000166  0.002865 -0.000004
  2C   1dz2       0.000009  0.000024 -0.000040  0.000002 -0.000450  0.000004
  2C   1dxz       0.000022 -0.000014  0.000038  0.000002  0.000141 -0.000003
  2C   1dyz       0.000015 -0.000056 -0.000026 -0.000000 -0.000205  0.000002
  2C   1dx2y2     0.000041 -0.000065 -0.000030  0.000003 -0.000246 -0.000000
  2C   1dxy      -0.000001 -0.000092  0.000009 -0.000002  0.000336 -0.000001
  3C   1s         0.000031 -0.000178 -0.000145 -0.000110  0.030224  0.000079
  3C   2s         0.000278 -0.000602 -0.000490  0.000043 -0.001094  0.000002
  3C   1pz        0.000016 -0.000085  0.000006 -0.000002  0.000323 -0.000001
  3C   1px        0.000081 -0.000206 -0.000083  0.000004 -0.000083 -0.000000
  3C   1py        0.000057 -0.000018 -0.000124  0.000009 -0.001241  0.000007
  3C   3s        -0.002577  0.004970  0.004667 -0.000537  0.012312  0.000070
  3C   2pz       -0.000507  0.000394  0.000407 -0.000033 -0.000108  0.000013
  3C   2px       -0.001958  0.002795  0.002673 -0.000250  0.003628  0.000042
  3C   2py       -0.000827  0.002365  0.001827 -0.000194  0.004956 -0.000007
  3C   1dz2       0.000034 -0.000082 -0.000059  0.000005  0.000459  0.000001
  3C   1dxz      -0.000034  0.000052  0.000056 -0.000004 -0.000024 -0.000003
  3C   1dyz       0.000025 -0.000070 -0.000053 -0.000000  0.000615  0.000001
  3C   1dx2y2     0.000004 -0.000058 -0.000004 -0.000004  0.001019 -0.000002
  3C   1dxy       0.000023 -0.000010 -0.000025  0.000002  0.000126  0.000004
  4C   1s        -0.000016 -0.000061  0.000041  0.000316  0.044734  0.003631
  4C   2s        -0.000025 -0.000261  0.000161 -0.000001  0.001546  0.000147
  4C   1pz       -0.000014  0.000049 -0.000008  0.000002  0.000109 -0.000001
  4C   1px        0.000114 -0.000066 -0.000187  0.000007  0.000176  0.000002
  4C   1py        0.000174 -0.000284 -0.000205  0.000011 -0.000157  0.000009
  4C   3s         0.005364 -0.005910 -0.007528  0.000532 -0.006030 -0.000102
  4C   2pz       -0.000424  0.000156  0.000805 -0.000103  0.000709  0.000026
  4C   2px        0.000412 -0.000756 -0.000748  0.000011 -0.000037  0.000028
  4C   2py        0.002077 -0.001768 -0.003736  0.000280 -0.002606 -0.000062
  4C   1dz2      -0.000001 -0.000085  0.000015 -0.000002 -0.000061  0.000001
  4C   1dxz      -0.000017  0.000044  0.000017 -0.000001  0.000014 -0.000000
  4C   1dyz       0.000001 -0.000046 -0.000021 -0.000003  0.000002  0.000001
  4C   1dx2y2    -0.000019 -0.000003 -0.000005  0.000004  0.000006  0.000002
  4C   1dxy       0.000017  0.000012 -0.000079  0.000000  0.000093 -0.000001
  5C   1s         0.000045  0.002262  0.001800  0.000029  0.000372  0.000220
  5C   2s         0.000472 -0.001278 -0.001514  0.000051 -0.000588  0.000005
  5C   1pz       -0.000018  0.000229  0.000202 -0.000011  0.000080 -0.000001
  5C   1px       -0.000057 -0.000034  0.000157 -0.000000  0.000180  0.000005
  5C   1py       -0.000004 -0.001004 -0.000558 -0.000017 -0.000060  0.000005
  5C   3s        -0.007240  0.006919  0.014826 -0.000822  0.003984  0.000131
  5C   2pz        0.002411 -0.002251 -0.003412  0.000301 -0.001078  0.000020
  5C   2px        0.005354 -0.006232 -0.006149  0.000425 -0.002392  0.000096
  5C   2py       -0.001701  0.001154  0.004195 -0.000264  0.000846  0.000060
  5C   1dz2       0.000026  0.000381  0.000242  0.000010 -0.000043  0.000005
  5C   1dxz      -0.000150  0.000069  0.000080 -0.000009  0.000031 -0.000004
  5C   1dyz       0.000088  0.000363  0.000259  0.000018 -0.000035  0.000003
  5C   1dx2y2    -0.000118  0.000818  0.000607  0.000007 -0.000015 -0.000002
  5C   1dxy       0.000217 -0.000260 -0.000076  0.000003 -0.000013  0.000001
  6O   1s        -0.995244  0.000027  0.000305  0.000006 -0.000006  0.000006
  6O   2s        -0.031910  0.000266  0.003001  0.000091 -0.000089  0.000099
  6O   1pz        0.000053  0.000160 -0.000012  0.000018  0.000020 -0.000007
  6O   1px        0.001405 -0.000123  0.000082  0.000005  0.000048  0.000062
  6O   1py       -0.000917 -0.000193 -0.000029  0.000056  0.000028  0.000060
  6O   3s         0.031124 -0.001335 -0.015054  0.000036 -0.000037 -0.000147
  6O   2pz       -0.000189  0.000659  0.000098 -0.000165 -0.000179  0.000011
  6O   2px       -0.004988  0.007484  0.003478 -0.000223 -0.000527 -0.000546
  6O   2py        0.003255  0.010711 -0.003652 -0.000684 -0.000487 -0.000660
  6O   1dz2      -0.000425  0.000146  0.001830  0.000045 -0.000041  0.000023
  6O   1dxz       0.000149 -0.000331 -0.000409  0.000010  0.000034  0.000003
  6O   1dyz       0.000204  0.000048 -0.000590 -0.000027  0.000005 -0.000002
  6O   1dx2y2    -0.000129 -0.002150  0.000893  0.000089  0.000062  0.000072
  6O   1dxy       0.000273 -0.001119 -0.001440  0.000004  0.000064 -0.000003
  7H   1s        -0.000365  0.000126  0.000091 -0.000033 -0.000254 -0.000003
  7H   2s        -0.001838  0.002357  0.002372 -0.000257  0.001242 -0.000003
  8H   1s        -0.000058 -0.000103 -0.000016  0.000018 -0.001379  0.000001
  8H   2s         0.000157 -0.000776 -0.000297  0.000065  0.002793 -0.000033
  9H   1s        -0.000097  0.000133  0.000112 -0.000006 -0.000182  0.000000
  9H   2s        -0.000607  0.001067  0.000906 -0.000082  0.001329  0.000003
 10H   1s        -0.000244  0.000113  0.000151 -0.000017  0.000078 -0.000008
 10H   2s        -0.001847  0.002030  0.001983 -0.000167  0.000795 -0.000033
 11H   1s        -0.000008  0.000041 -0.000065  0.000008 -0.000115 -0.000008
 11H   2s         0.000232  0.000078 -0.000633  0.000057 -0.000192 -0.000012
 12C   1s        -0.000129 -0.638791  0.763089  0.000170  0.000013  0.000121
 12C   2s        -0.001153 -0.024649  0.028837  0.000198 -0.000003  0.000176
 12C   1pz        0.000036  0.000136 -0.000184  0.000089  0.000026 -0.000043
 12C   1px        0.000054  0.000503 -0.000042 -0.000110  0.000058  0.000191
 12C   1py        0.000278  0.001287 -0.001256  0.000221  0.000016  0.000126
 12C   3s        -0.000941  0.015963 -0.022988  0.004934 -0.000381  0.004911
 12C   2pz        0.001039  0.003900 -0.001434  0.000350 -0.000169 -0.000144
 12C   2px        0.004185 -0.005945 -0.004233 -0.000241 -0.000378  0.001305
 12C   2py        0.012712  0.014808 -0.014502  0.001433 -0.001066  0.001402
 12C   1dz2       0.000024  0.000765 -0.000995 -0.000039 -0.000021 -0.000051
 12C   1dxz       0.000114  0.000277 -0.000275 -0.000014  0.000013  0.000005
 12C   1dyz      -0.000037 -0.000220  0.000423  0.000074  0.000007 -0.000034
 12C   1dx2y2    -0.000201  0.000677 -0.000889 -0.000100 -0.000033 -0.000014
 12C   1dxy      -0.000133 -0.000351  0.000180 -0.000127 -0.000016  0.000151
 13C   1s         0.000025 -0.001657  0.002105 -0.074528 -0.000485  0.007123
 13C   2s         0.000322  0.001745 -0.001360 -0.000579 -0.000056  0.000650
 13C   1pz       -0.000040 -0.000208  0.000299  0.000156  0.000014 -0.000057
 13C   1px        0.000004  0.000492 -0.000735  0.000217 -0.000018  0.000152
 13C   1py        0.000078 -0.000103  0.000475  0.001281  0.000012 -0.000023
 13C   3s        -0.005268 -0.018331  0.011612 -0.010961  0.000502 -0.002893
 13C   2pz        0.000640  0.003155 -0.001942  0.000671 -0.000166  0.000500
 13C   2px       -0.004268 -0.008604  0.007686 -0.003907  0.000541 -0.002048
 13C   2py       -0.005379 -0.001060  0.002846 -0.003818  0.000182 -0.001163
 13C   1dz2       0.000050 -0.000103  0.000256 -0.000548 -0.000015  0.000103
 13C   1dxz       0.000091 -0.000196  0.000365  0.000088 -0.000001  0.000033
 13C   1dyz       0.000100  0.000218 -0.000394  0.000245  0.000008 -0.000037
 13C   1dx2y2    -0.000288  0.000160  0.000052 -0.001046  0.000012  0.000076
 13C   1dxy      -0.000176 -0.000598  0.000719  0.000313  0.000008 -0.000024
 14C   1s        -0.000018 -0.000041 -0.000013 -0.990464 -0.005405  0.052910
 14C   2s        -0.000064 -0.000169 -0.000060 -0.036098 -0.000177  0.002005
 14C   1pz       -0.000040 -0.000068  0.000085  0.000274 -0.000005 -0.000104
 14C   1px        0.000090 -0.000029 -0.000092 -0.000551 -0.000005  0.000304
 14C   1py       -0.000174 -0.000340  0.000264  0.000460  0.000010 -0.000004
 14C   3s         0.005923  0.007717 -0.007188  0.031379 -0.000329  0.003134
 14C   2pz       -0.000650 -0.001494  0.001043 -0.002403  0.000123 -0.000745
 14C   2px        0.000350  0.002685 -0.002148  0.004981 -0.000215  0.001452
 14C   2py       -0.002475 -0.002846  0.002235 -0.003962  0.000147 -0.001364
 14C   1dz2       0.000008 -0.000029 -0.000040  0.000473  0.000004  0.000012
 14C   1dxz       0.000004  0.000034 -0.000042  0.000219  0.000003 -0.000017
 14C   1dyz       0.000024  0.000035  0.000018 -0.000038 -0.000002 -0.000029
 14C   1dx2y2    -0.000028 -0.000111  0.000034  0.000071  0.000001  0.000083
 14C   1dxy      -0.000032  0.000018  0.000023 -0.000398 -0.000001  0.000038
 15C   1s         0.000031  0.000150 -0.000174 -0.030404 -0.000244 -0.027731
 15C   2s         0.000278  0.000506 -0.000588  0.001104 -0.000030  0.000988
 15C   1pz       -0.000013 -0.000075  0.000007  0.000280  0.000001 -0.000470
 15C   1px       -0.000019  0.000084  0.000067 -0.001111 -0.000005  0.000985
 15C   1py       -0.000097 -0.000173  0.000159 -0.000572  0.000000 -0.000776
 15C   3s        -0.002577 -0.004071  0.005469 -0.012404  0.000392 -0.011375
 15C   2pz        0.000431  0.000264 -0.000380 -0.000116 -0.000027  0.001465
 15C   2px       -0.000057  0.000903 -0.000747  0.003069 -0.000041 -0.001496
 15C   2py        0.002142  0.002906 -0.003765  0.005359 -0.000245  0.005496
 15C   1dz2       0.000039  0.000078 -0.000082 -0.000499 -0.000011 -0.000335
 15C   1dxz       0.000032  0.000063 -0.000076 -0.000513 -0.000007 -0.000537
 15C   1dyz      -0.000018 -0.000012  0.000029 -0.000189  0.000001  0.000445
 15C   1dx2y2    -0.000021 -0.000045  0.000032  0.000819  0.000008  0.000237
 15C   1dxy       0.000014 -0.000035 -0.000012  0.000651  0.000002 -0.001001
 16C   1s        -0.000016  0.000068  0.000030 -0.052494 -0.001518 -0.991261
 16C   2s        -0.000025  0.000285  0.000113 -0.001829 -0.000042 -0.036173
 16C   1pz        0.000014  0.000043 -0.000002  0.000093  0.000003 -0.000191
 16C   1px       -0.000114 -0.000212  0.000152 -0.000215  0.000005  0.000725
 16C   1py       -0.000174 -0.000126  0.000280  0.000104  0.000012  0.000298
 16C   3s         0.005364  0.004493 -0.008451  0.006279 -0.000442  0.031204
 16C   2pz        0.000373  0.000007 -0.000726  0.000633 -0.000086  0.001662
 16C   2px       -0.001756 -0.000745  0.003342 -0.002455  0.000226 -0.006137
 16C   2py       -0.001200 -0.000997  0.002376 -0.001079  0.000105 -0.002378
 16C   1dz2       0.000001  0.000092 -0.000004  0.000066  0.000004  0.000435
 16C   1dxz       0.000007  0.000048 -0.000031  0.000006  0.000002  0.000245
 16C   1dyz      -0.000014 -0.000015  0.000010 -0.000013  0.000002 -0.000276
 16C   1dx2y2     0.000000  0.000016  0.000061  0.000075  0.000004  0.000269
 16C   1dxy       0.000027 -0.000016 -0.000048 -0.000057  0.000002  0.000217
 17C   1s         0.000045 -0.001910  0.002171 -0.000854 -0.000078 -0.063695
 17C   2s         0.000472  0.000992 -0.001716  0.000588 -0.000044 -0.000195
 17C   1pz        0.000015  0.000162 -0.000206  0.000069 -0.000010  0.000139
 17C   1px       -0.000020 -0.000799  0.000736 -0.000129 -0.000016  0.000247
 17C   1py        0.000055 -0.000408  0.000149  0.000154 -0.000005  0.001279
 17C   3s        -0.007240 -0.004201  0.015812 -0.004081  0.000769 -0.011507
 17C   2pz       -0.002063 -0.001330  0.003218 -0.000936  0.000257 -0.001668
 17C   2px        0.003832  0.002477 -0.007031  0.001816 -0.000406  0.002655
 17C   2py       -0.004293 -0.004515  0.004920 -0.001920  0.000266 -0.004455
 17C   1dz2       0.000044 -0.000346  0.000316  0.000044 -0.000011 -0.000563
 17C   1dxz       0.000125 -0.000240  0.000226  0.000040 -0.000018  0.000086
 17C   1dyz      -0.000090 -0.000149  0.000182 -0.000011  0.000001  0.000205
 17C   1dx2y2    -0.000085  0.000312 -0.000432 -0.000029  0.000007 -0.001024
 17C   1dxy       0.000243  0.000679 -0.000630  0.000003  0.000002  0.000425
 18H   1s        -0.000365 -0.000108  0.000112  0.000253  0.000036 -0.000117
 18H   2s        -0.001839 -0.001902  0.002750 -0.001253  0.000241 -0.000722
 19H   1s        -0.000058  0.000098 -0.000034  0.001379 -0.000003 -0.000020
 19H   2s         0.000157  0.000712 -0.000428 -0.002788 -0.000096  0.000487
 20H   1s        -0.000097 -0.000111  0.000134  0.000183  0.000008  0.000164
 20H   2s        -0.000607 -0.000891  0.001080 -0.001339  0.000067 -0.001227
 21H   1s        -0.000244 -0.000084  0.000168 -0.000076  0.000016  0.000256
 21H   2s        -0.001847 -0.001649  0.002309 -0.000807  0.000156 -0.001251
 22H   1s        -0.000008 -0.000052 -0.000057  0.000126 -0.000006  0.001383
 22H   2s         0.000232 -0.000189 -0.000610  0.000171 -0.000057 -0.002763
                      6         7         8         9        10        11   
                 -10.18291 -10.18020 -10.18015 -10.17961 -10.17960 -10.17560
                   2.00000   2.00000   2.00000   2.00000   2.00000   2.00000
                  --------  --------  --------  --------  --------  --------
  0C   1s        -0.006498  0.083342  0.988878 -0.000297 -0.001803  0.000050
  0C   2s        -0.000644  0.003314  0.036751 -0.000029  0.000011  0.000018
  0C   1pz       -0.000064 -0.000069  0.000400 -0.000004  0.000082 -0.000009
  0C   1px       -0.000071 -0.000149 -0.000008  0.000009  0.000102  0.000001
  0C   1py        0.000134  0.000033 -0.000812  0.000005 -0.000166 -0.000008
  0C   3s         0.002974 -0.003268 -0.035018  0.000119  0.004598 -0.000408
  0C   2pz        0.000573  0.001484 -0.002928 -0.000118  0.000679 -0.000098
  0C   2px       -0.000283  0.002969 -0.000743 -0.000469 -0.000182 -0.000031
  0C   2py       -0.002362 -0.001552  0.007515 -0.000290 -0.002563  0.000451
  0C   1dz2      -0.000094 -0.000025 -0.000446 -0.000013  0.000063  0.000006
  0C   1dxz       0.000054  0.000089  0.000435 -0.000008 -0.000030 -0.000002
  0C   1dyz      -0.000018 -0.000074 -0.000093  0.000009  0.000002  0.000010
  0C   1dx2y2     0.000028  0.000026  0.000413 -0.000012 -0.000003  0.000007
  0C   1dxy       0.000068 -0.000162  0.000241  0.000014 -0.000068  0.000008
  1C   1s        -0.000125 -0.000208 -0.002855  0.000071  0.003061  0.000001
  1C   2s        -0.000179  0.000038 -0.002155 -0.000057  0.002254 -0.000024
  1C   1pz       -0.000048  0.000015  0.000583 -0.000025  0.000346 -0.000001
  1C   1px        0.000043  0.000069  0.000972 -0.000020 -0.000024  0.000017
  1C   1py        0.000225 -0.000116 -0.000441 -0.000083 -0.001314  0.000019
  1C   3s        -0.004936 -0.001654  0.013643 -0.000096 -0.013972  0.000229
  1C   2pz       -0.000160  0.000935 -0.002672 -0.000077 -0.000511 -0.000122
  1C   2px        0.000776  0.002472 -0.007664  0.000140  0.002965 -0.000788
  1C   2py        0.001751  0.000231 -0.001062  0.001129  0.005819 -0.000622
  1C   1dz2       0.000054  0.000038  0.000317 -0.000021 -0.000492  0.000013
  1C   1dxz       0.000037 -0.000122 -0.000790 -0.000004  0.000007 -0.000001
  1C   1dyz       0.000010  0.000059  0.000397 -0.000016 -0.000605 -0.000007
  1C   1dx2y2     0.000100 -0.000051 -0.000568 -0.000022 -0.001055 -0.000012
  1C   1dxy      -0.000111  0.000119  0.000751 -0.000012 -0.000117 -0.000018
  2C   1s        -0.045149 -0.006181 -0.073964 -0.000042 -0.002398 -0.000266
  2C   2s        -0.001723 -0.000538 -0.004831  0.000025  0.000438 -0.000017
  2C   1pz       -0.000118  0.000012 -0.000249  0.000000  0.000053  0.000005
  2C   1px       -0.000115 -0.000078 -0.001135 -0.000005  0.000131  0.000010
  2C   1py        0.000270 -0.000052 -0.000671  0.000004 -0.000027  0.000014
  2C   3s        -0.003374  0.002268  0.015637 -0.000521 -0.004596  0.000395
  2C   2pz       -0.000888 -0.000224  0.002800 -0.000054 -0.001300  0.000059
  2C   2px       -0.001830  0.000982  0.006311 -0.000263 -0.002599  0.000137
  2C   2py        0.000772  0.001868 -0.000929 -0.000136  0.001262 -0.000132
  2C   1dz2      -0.000015  0.000002  0.000644  0.000006  0.000072  0.000005
  2C   1dxz       0.000025 -0.000006 -0.000178 -0.000003 -0.000040 -0.000003
  2C   1dyz       0.000029 -0.000009 -0.000157  0.000001  0.000042  0.000004
  2C   1dx2y2     0.000080 -0.000033 -0.000326 -0.000003  0.000025  0.000009
  2C   1dxy       0.000038 -0.000017 -0.001105 -0.000007 -0.000016 -0.000003
  3C   1s         0.028068 -0.000251 -0.003470  0.000034  0.003551  0.007699
  3C   2s        -0.000993  0.000007  0.000047 -0.000021  0.000009  0.000303
  3C   1pz       -0.000546  0.000010  0.000005  0.000004  0.000049 -0.000000
  3C   1px       -0.001081  0.000023 -0.000093 -0.000000  0.000171  0.000007
  3C   1py        0.000562 -0.000014 -0.000124 -0.000003  0.000032  0.000008
  3C   3s         0.011463  0.000401 -0.006571  0.000324  0.006239 -0.000528
  3C   2pz        0.001730 -0.000343 -0.000323  0.000075  0.000589 -0.000014
  3C   2px        0.005575 -0.000564 -0.002572  0.000266  0.002778 -0.000168
  3C   2py        0.000937  0.000560 -0.002351  0.000034  0.001452 -0.000131
  3C   1dz2       0.000257 -0.000006 -0.000052 -0.000002  0.000063 -0.000001
  3C   1dxz      -0.000710 -0.000001  0.000052  0.000002 -0.000048  0.000000
  3C   1dyz       0.000359 -0.000003 -0.000067 -0.000000  0.000059  0.000001
  3C   1dx2y2    -0.000546 -0.000015 -0.000023  0.000004  0.000032 -0.000001
  3C   1dxy       0.000810 -0.000003 -0.000031 -0.000001  0.000029 -0.000001
  4C   1s         0.991590  0.000310  0.003198  0.001398  0.064492 -0.000244
  4C   2s         0.036183 -0.000009 -0.000419  0.000115  0.004501 -0.000032
  4C   1pz       -0.000218 -0.000008  0.000023  0.000003  0.000141  0.000006
  4C   1px       -0.000008 -0.000043 -0.000016  0.000017  0.001056  0.000019
  4C   1py        0.000775 -0.000030 -0.000111  0.000014  0.000837  0.000005
  4C   3s        -0.031240 -0.000544  0.005446 -0.000681 -0.015142  0.000505
  4C   2pz        0.001906 -0.000162 -0.000811  0.000116  0.001102 -0.000064
  4C   2px        0.000202 -0.000705  0.000357  0.000012 -0.001967  0.000019
  4C   2py       -0.006528 -0.000252  0.003334 -0.000329 -0.006453  0.000245
  4C   1dz2      -0.000393  0.000003 -0.000075 -0.000010 -0.000607  0.000002
  4C   1dxz       0.000404  0.000013  0.000056  0.000006  0.000298 -0.000005
  4C   1dyz      -0.000123 -0.000008 -0.000036  0.000007  0.000202  0.000003
  4C   1dx2y2     0.000325  0.000001  0.000022  0.000009  0.000534 -0.000005
  4C   1dxy       0.000071 -0.000028  0.000009  0.000021  0.001008  0.000008
  5C   1s         0.064466  0.000099 -0.001434 -0.021788 -0.992800 -0.000023
  5C   2s         0.000218 -0.000077 -0.000091 -0.000839 -0.036630  0.000040
  5C   1pz        0.000170  0.000020  0.000073  0.000011  0.000410  0.000002
  5C   1px        0.001064  0.000048  0.000085  0.000021  0.000792 -0.000009
  5C   1py        0.000746  0.000036 -0.000215  0.000005 -0.000401 -0.000005
  5C   3s         0.011511  0.000928 -0.005324  0.001506  0.034056 -0.000646
  5C   2pz       -0.001966 -0.000477  0.001407 -0.000282 -0.003111  0.000208
  5C   2px       -0.005065 -0.001367  0.003151 -0.000299 -0.005989  0.000444
  5C   2py        0.000575 -0.000269 -0.000671  0.000376  0.003574 -0.000200
  5C   1dz2       0.000557 -0.000015 -0.000052  0.000011  0.000553  0.000009
  5C   1dxz      -0.000188  0.000022  0.000029  0.000003 -0.000165 -0.000007
  5C   1dyz      -0.000196 -0.000018  0.000022 -0.000010  0.000183  0.000009
  5C   1dx2y2    -0.000363  0.000008  0.000032  0.000004  0.000230  0.000002
  5C   1dxy      -0.001039 -0.000007  0.000061 -0.000008 -0.000489  0.000007
  6O   1s        -0.000006 -0.000004 -0.000003  0.000001 -0.000001  0.000009
  6O   2s        -0.000101 -0.000190 -0.000161 -0.000142  0.000148  0.000144
  6O   1pz       -0.000008 -0.000033  0.000041 -0.000016 -0.000016  0.000009
  6O   1px        0.000031 -0.000032  0.000107 -0.000032 -0.000049  0.000025
  6O   1py        0.000081 -0.000125  0.000103 -0.000070 -0.000055  0.000030
  6O   3s         0.000148  0.000483  0.000408  0.000184 -0.000192 -0.000981
  6O   2pz        0.000016 -0.000001  0.000012  0.000128  0.000122 -0.000112
  6O   2px       -0.000385  0.000736 -0.000596 -0.000032 -0.000054 -0.000327
  6O   2py       -0.000765  0.000830 -0.001164 -0.000067 -0.000049 -0.000628
  6O   1dz2      -0.000023 -0.000089 -0.000068 -0.000060  0.000053 -0.000006
  6O   1dxz       0.000006 -0.000083  0.000040 -0.000090 -0.000051  0.000003
[...]
 4 C  dx2y2           4.3       0.4       1.2       0.5       0.0       0.3
 4 C  dxy             0.6       1.3       0.1       4.4       1.0       4.6
 5 C  s               1.1       1.2       0.7       1.0       0.5       0.4
 5 C  pz              0.1       0.2       0.0       0.1       0.0       0.0
 5 C  px              0.0       0.1       0.1       0.2       0.0       0.7
 5 C  py              0.3       0.7       0.6       0.1       0.3       0.9
 5 C  dz2             0.5       0.6       0.5       0.0       0.1       0.1
 5 C  dxz             1.4       0.2       0.0       1.5       0.0       1.1
 5 C  dyz             0.9       2.6       0.0       1.1       2.9       0.6
 5 C  dx2y2           0.8       4.7       0.3       0.3       0.8       1.7
 5 C  dxy             0.0       2.2       2.6       0.7       0.2       0.4
 6 O  s               0.0       0.1       0.0       3.0      14.7       0.0
 6 O  pz              0.1       0.0       0.4       0.0       0.0       0.0
 6 O  px              0.4       0.0       0.1       0.7       0.8       1.5
 6 O  py              0.8       0.0       0.3       0.3       0.4       3.5
 6 O  dz2             0.0       0.0       0.0       1.0       5.8       0.0
 6 O  dxz             0.6       0.9       2.1       0.8       1.2       0.0
 6 O  dyz             0.3       2.2       0.8       1.4       2.5       0.0
 6 O  dx2y2           2.7       0.1       0.3       0.3       0.7       8.0
 6 O  dxy             0.5       0.3       0.1       1.6       3.1       1.5
 7 H  s               0.0       0.0       0.5       0.0       0.1       0.0
 8 H  s               0.4       0.3       0.2       0.0       0.0       0.0
 9 H  s               0.8       0.2       0.0       0.0       0.0       0.0
10 H  s               0.2       0.1       0.0       0.4       0.0       0.0
11 H  s               0.7       0.0       0.0       0.1       0.0       0.0
12 C  s               1.4       1.3       0.2       1.4       3.3       1.6
12 C  pz              0.1       0.3       0.0       0.0       0.1       0.1
12 C  px              0.0       0.7       0.0       0.0       0.4       0.8
12 C  py              0.5       0.5       0.1       0.0       0.6       0.9
12 C  dz2             1.5       0.0       0.1       1.9       4.7       0.2
12 C  dxz             2.6       1.7       0.2       0.0       0.2       0.0
12 C  dyz             0.2       0.8       4.0       0.4       0.1       2.5
12 C  dx2y2           0.7       1.5       1.0       0.4       2.6       3.5
12 C  dxy             0.0       1.2       3.6       4.5       0.3       0.6
13 C  s               2.4       1.0       0.3       0.3       0.5       0.1
13 C  px              0.1       0.0       0.2       0.1       0.0       0.1
13 C  py              0.1       1.5       0.0       0.1       0.4       0.3
13 C  dz2             0.9       0.3       0.0       0.0       0.0       0.0
13 C  dxz             1.6       0.0       0.8       0.4       0.4       1.5
13 C  dyz             0.6       0.4       0.8       0.5       0.0       0.1
13 C  dx2y2           1.9       3.3       1.9       0.0       0.1       1.4
13 C  dxy             0.4       0.1       2.4       0.2       1.8       1.1
14 C  s               1.9       0.7       0.3       1.0       0.2       0.6
14 C  pz              0.0       0.0       0.1       0.2       0.0       0.1
14 C  px              0.0       0.0       0.2       0.8       0.1       0.6
14 C  py              0.5       0.8       0.2       0.4       0.3       0.6
14 C  dz2             0.3       1.6       0.0       0.1       0.2       0.2
14 C  dxz             3.2       0.4       0.0       2.4       0.0       1.2
14 C  dyz             0.5       0.0       1.8       1.1       0.5       0.4
14 C  dx2y2           0.0       6.8       2.0       2.2       2.4       1.2
14 C  dxy             0.4       2.5       3.5       1.8       0.3       1.5
15 C  s               0.9       0.2       0.4       0.4       0.3       0.3
15 C  pz              0.0       0.1       0.6       0.6       0.3       0.3
15 C  px              0.1       0.2       1.6       1.8       0.7       1.0
15 C  dz2             2.4       0.2       0.1       0.7       0.0       0.1
15 C  dxz             0.1       0.4       0.6       0.1       0.4       0.7
15 C  dyz             0.2       0.0       2.0       1.9       1.2       1.2
15 C  dx2y2           5.3       1.7       0.1       0.2       0.0       1.0
15 C  dxy             0.9       0.6       3.5       6.5       2.3       3.0
16 C  s               0.7       0.1       2.5       0.3       0.6       0.4
16 C  pz              0.0       0.1       0.2       0.2       0.2       0.1
16 C  px              0.0       0.0       0.6       0.2       0.3       0.0
16 C  py              0.2       0.2       0.0       0.4       0.4       1.0
16 C  dz2             0.3       0.0       0.3       0.5       0.0       1.2
16 C  dxz             1.3       1.1       2.1       0.2       1.7       0.3
16 C  dyz             0.5       0.4       2.2       0.4       0.8       0.0
16 C  dx2y2           0.9       0.2       0.2       1.1       0.5       3.9
16 C  dxy             4.2       1.7       1.4       4.0       0.8       1.1
17 C  s               1.1       1.2       0.7       1.0       0.5       0.4
17 C  pz              0.1       0.2       0.0       0.1       0.0       0.0
17 C  px              0.3       0.5       0.4       0.2       0.2       0.3
17 C  py              0.1       0.3       0.4       0.1       0.2       1.3
17 C  dz2             0.7       0.7       0.5       0.0       0.2       0.2
17 C  dxz             1.7       1.7       0.0       1.9       2.3       0.1
17 C  dyz             0.4       1.0       0.0       0.4       0.3       1.3
17 C  dx2y2           0.4       0.2       2.5       0.1       1.0       2.0
17 C  dxy             0.4       6.9       0.5       1.2       0.2       0.4
18 H  s               0.0       0.0       0.5       0.0       0.1       0.0
19 H  s               0.4       0.3       0.2       0.0       0.0       0.0
20 H  s               0.8       0.2       0.0       0.0       0.0       0.0
21 H  s               0.2       0.1       0.0       0.4       0.0       0.0
22 H  s               0.7       0.0       0.0       0.1       0.0       0.0

                    198       199       200       201   
                   3.10253   3.26954   3.40499   3.44299
                   0.00000   0.00000   0.00000   0.00000
                  --------  --------  --------  --------
 0 C  s               0.5       0.2       0.7       0.7
 0 C  pz              0.2       0.4       0.0       0.0
 0 C  px              1.1       0.8       0.0       0.0
 0 C  dz2             1.3       0.4       0.2       0.0
 0 C  dxz             0.0       0.5       2.2       2.2
 0 C  dyz             0.2       1.6       0.5       0.4
 0 C  dx2y2           0.4       0.3       4.2       3.8
 0 C  dxy             2.6       2.3       0.0       0.0
 1 C  s               2.3       0.6       0.5       0.1
 1 C  pz              0.3       0.1       0.0       0.0
 1 C  px              1.6       0.1       0.1       0.4
 1 C  py              0.1       0.5       0.0       0.2
 1 C  dz2             0.9       0.0       0.3       0.2
 1 C  dxz             0.3       5.6       0.4       0.2
 1 C  dyz             0.4       0.0       2.7       3.0
 1 C  dx2y2           0.7      11.6       1.9       1.4
 1 C  dxy             7.1       2.2       2.1       4.4
 2 C  s               0.8       0.0       0.8       0.6
 2 C  px              0.5       0.2       0.0       0.0
 2 C  py              0.3       0.3       0.0       0.0
 2 C  dz2             0.9       0.0       1.1       0.8
 2 C  dxz             0.1       0.0       0.7       0.8
 2 C  dyz             0.2       0.3       0.0       0.0
 2 C  dx2y2           0.5       0.3       0.9       0.9
 2 C  dxy             2.5       0.3       4.5       3.6
 3 C  s               0.2       0.0       0.9       0.8
 3 C  pz              0.1       0.1       0.0       0.0
 3 C  px              0.1       0.0       0.0       0.0
 3 C  py              0.1       0.1       0.0       0.0
 3 C  dz2             0.1       0.0       0.1       0.1
 3 C  dxz             1.0       0.1       0.4       0.3
 3 C  dyz             0.4       0.1       3.1       2.6
 3 C  dx2y2           0.2       0.4       1.2       1.1
 3 C  dxy             1.2       0.1       2.4       2.0
 4 C  s               0.3       0.2       0.8       0.7
 4 C  pz              0.2       0.1       0.0       0.0
 4 C  px              0.5       0.5       0.0       0.0
 4 C  dz2             0.0       0.2       0.1       0.1
 4 C  dxz             0.6       0.0       2.4       2.1
 4 C  dyz             0.3       0.2       0.4       0.4
 4 C  dx2y2           0.1       0.2       4.4       3.8
 4 C  dxy             0.5       0.9       0.0       0.0
 5 C  s               0.1       0.1       0.8       0.8
 5 C  px              0.0       0.3       0.0       0.0
 5 C  py              0.3       0.9       0.0       0.0
 5 C  dz2             0.0       0.5       1.0       1.1
 5 C  dxz             0.1       0.0       0.7       0.8
 5 C  dyz             1.0       1.1       0.0       0.0
 5 C  dx2y2           1.8       1.5       1.0       0.7
 5 C  dxy             0.7       1.7       4.3       4.5
 6 O  s               0.0       3.3       0.3       0.0
 6 O  pz              0.5       0.0       0.0       0.0
 6 O  px              1.4       0.2       0.1       0.5
 6 O  py              3.4       0.1       0.0       1.1
 6 O  dz2             0.0       2.0       0.1       0.0
 6 O  dxz             1.6       0.2       0.1       0.0
 6 O  dyz             0.4       0.3       0.2       0.0
 6 O  dx2y2          17.1       2.7       0.0       3.4
 6 O  dxy             3.5      14.2       0.2       0.7
 7 H  s               0.0       0.0       0.3       0.3
 8 H  s               0.0       0.0       0.3       0.3
 9 H  s               0.1       0.0       0.3       0.2
10 H  s               0.0       0.0       0.3       0.3
11 H  s               0.0       0.0       0.3       0.3
12 C  s               2.3       0.6       0.5       0.2
12 C  pz              0.2       0.1       0.0       0.0
12 C  px              0.2       0.3       0.0       0.0
12 C  py              1.6       0.3       0.1       0.6
12 C  dz2             0.9       0.1       0.1       0.1
12 C  dxz             0.2       0.5       2.8       2.7
12 C  dyz             0.6       4.0       0.0       0.1
12 C  dx2y2           1.8       1.5       4.4       6.0
12 C  dxy             6.0      13.4       0.0       0.4
13 C  s               0.5       0.2       0.7       0.7
13 C  pz              0.2       0.4       0.0       0.0
13 C  px              0.1       0.4       0.0       0.0
13 C  py              1.1       0.6       0.0       0.0
13 C  dz2             1.2       0.3       0.2       0.1
13 C  dxz             0.2       2.0       0.0       0.0
13 C  dyz             0.0       0.0       2.2       2.1
13 C  dx2y2           2.7       2.4       2.4       2.1
13 C  dxy             0.4       0.5       2.2       2.1
14 C  s               0.8       0.0       0.8       0.6
14 C  py              0.7       0.4       0.0       0.0
14 C  dz2             0.9       0.0       1.0       0.7
14 C  dxz             0.1       0.2       0.0       0.0
14 C  dyz             0.2       0.1       0.7       0.7
14 C  dx2y2           2.8       0.6       0.8       0.6
14 C  dxy             0.3       0.0       4.8       4.1
15 C  s               0.2       0.0       0.9       0.8
15 C  pz              0.1       0.0       0.0       0.0
15 C  px              0.2       0.1       0.0       0.0
15 C  dxz             0.9       0.0       3.1       2.6
15 C  dyz             0.4       0.2       0.0       0.0
15 C  dx2y2           0.3       0.1       4.0       3.4
15 C  dxy             1.2       0.5       0.1       0.1
16 C  s               0.3       0.2       0.8       0.7
16 C  pz              0.1       0.1       0.0       0.0
16 C  px              0.1       0.0       0.0       0.0
16 C  py              0.4       0.6       0.0       0.0
16 C  dz2             0.0       0.2       0.2       0.1
16 C  dxz             0.6       0.1       0.0       0.0
16 C  dyz             0.2       0.0       2.2       2.1
16 C  dx2y2           0.1       1.0       2.4       2.1
16 C  dxy             0.7       0.1       2.4       2.1
17 C  s               0.1       0.1       0.8       0.8
17 C  px              0.2       0.5       0.0       0.0
17 C  py              0.1       0.7       0.0       0.0
17 C  dz2             0.0       0.4       0.8       1.0
17 C  dxz             0.9       0.7       0.0       0.0
17 C  dyz             0.0       0.2       0.6       0.8
17 C  dx2y2           2.5       3.5       0.7       1.0
17 C  dxy             0.1       0.0       4.8       4.5
18 H  s               0.0       0.0       0.3       0.3
19 H  s               0.0       0.0       0.3       0.3
20 H  s               0.1       0.0       0.3       0.2
21 H  s               0.0       0.0       0.3       0.3
22 H  s               0.0       0.0       0.3       0.3


                      *****************************
                      * MAYER POPULATION ANALYSIS *
                      *****************************

  NA   - Mulliken gross atomic population
  ZA   - Total nuclear charge
  QA   - Mulliken gross atomic charge
  VA   - Mayer's total valence
  BVA  - Mayer's bonded valence
  FA   - Mayer's free valence

  ATOM       NA         ZA         QA         VA         BVA        FA
  0 C      6.1746     6.0000    -0.1746     3.8906     3.8906     0.0000
  1 C      5.6678     6.0000     0.3322     3.8992     3.8992    -0.0000
  2 C      6.1352     6.0000    -0.1352     3.9566     3.9566     0.0000
  3 C      6.1266     6.0000    -0.1266     3.9373     3.9373     0.0000
  4 C      6.1344     6.0000    -0.1344     3.9500     3.9500     0.0000
  5 C      6.1730     6.0000    -0.1730     3.9089     3.9089    -0.0000
  6 O      8.5362     8.0000    -0.5362     1.9740     1.9740    -0.0000
  7 H      0.8522     1.0000     0.1478     0.9412     0.9412    -0.0000
  8 H      0.8678     1.0000     0.1322     0.9373     0.9373     0.0000
  9 H      0.8727     1.0000     0.1273     0.9381     0.9381    -0.0000
 10 H      0.8596     1.0000     0.1404     0.9394     0.9394     0.0000
 11 H      0.8680     1.0000     0.1320     0.9371     0.9371    -0.0000
 12 C      5.6675     6.0000     0.3325     3.8993     3.8993    -0.0000
 13 C      6.1749     6.0000    -0.1749     3.8912     3.8912     0.0000
 14 C      6.1343     6.0000    -0.1343     3.9565     3.9565     0.0000
 15 C      6.1276     6.0000    -0.1276     3.9376     3.9376     0.0000
 16 C      6.1347     6.0000    -0.1347     3.9510     3.9510     0.0000
 17 C      6.1731     6.0000    -0.1731     3.9093     3.9093    -0.0000
 18 H      0.8523     1.0000     0.1477     0.9413     0.9413    -0.0000
 19 H      0.8678     1.0000     0.1322     0.9373     0.9373    -0.0000
 20 H      0.8725     1.0000     0.1275     0.9381     0.9381    -0.0000
 21 H      0.8594     1.0000     0.1406     0.9394     0.9394     0.0000
 22 H      0.8679     1.0000     0.1321     0.9371     0.9371     0.0000

  Mayer bond orders larger than 0.1
B(  0-C ,  1-C ) :   1.3955 B(  0-C ,  2-C ) :   1.4411 B(  0-C ,  7-H ) :   0.9142 
B(  1-C ,  5-C ) :   1.4196 B(  1-C ,  6-O ) :   0.8910 B(  2-C ,  3-C ) :   1.4509 
B(  2-C ,  8-H ) :   0.9294 B(  3-C ,  4-C ) :   1.4485 B(  3-C ,  9-H ) :   0.9310 
B(  4-C ,  5-C ) :   1.4412 B(  4-C , 11-H ) :   0.9297 B(  5-C , 10-H ) :   0.9207 
B(  6-O , 12-C ) :   0.8908 B( 12-C , 13-C ) :   1.3959 B( 12-C , 17-C ) :   1.4197 
B( 13-C , 14-C ) :   1.4414 B( 13-C , 18-H ) :   0.9141 B( 14-C , 15-C ) :   1.4509 
B( 14-C , 19-H ) :   0.9293 B( 15-C , 16-C ) :   1.4489 B( 15-C , 20-H ) :   0.9309 
B( 16-C , 17-C ) :   1.4418 B( 16-C , 22-H ) :   0.9296 B( 17-C , 21-H ) :   0.9206 


-------
TIMINGS
-------

Total SCF time: 0 days 0 hours 0 min 58 sec 

Total time                  ....      58.193 sec
Sum of individual times     ....      57.848 sec  ( 99.4%)

Fock matrix formation       ....      53.796 sec  ( 92.4%)
  XC integration            ....       6.878 sec  ( 12.8% of F)
    Basis function eval.    ....       2.368 sec  ( 34.4% of XC)
    Density eval.           ....       2.131 sec  ( 31.0% of XC)
    XC-Functional eval.     ....       0.379 sec  (  5.5% of XC)
    XC-Potential eval.      ....       1.625 sec  ( 23.6% of XC)
Diagonalization             ....       0.007 sec  (  0.0%)
Density matrix formation    ....       0.007 sec  (  0.0%)
Population analysis         ....       0.113 sec  (  0.2%)
Initial guess               ....       0.008 sec  (  0.0%)
Orbital Transformation      ....       0.000 sec  (  0.0%)
Orbital Orthonormalization  ....       0.003 sec  (  0.0%)
DIIS solution               ....       0.001 sec  (  0.0%)
SOSCF solution              ....       0.036 sec  (  0.1%)
Grid generation             ....       3.880 sec  (  6.7%)

-------------------------   --------------------
FINAL SINGLE POINT ENERGY      -538.170019802748
-------------------------   --------------------

                                *** OPTIMIZATION RUN DONE ***

                            ***************************************
                            *     ORCA property calculations      *
                            ***************************************

                                    ---------------------
                                    Active property flags
                                    ---------------------
   (+) Dipole Moment


------------------------------------------------------------------------------
                       ORCA ELECTRIC PROPERTIES CALCULATION
------------------------------------------------------------------------------

Dipole Moment Calculation                       ... on
Quadrupole Moment Calculation                   ... off
Polarizability Calculation                      ... off
GBWName                                         ... /Users/lailaal-madhagi/Desktop/Testing_XAS_Analysis_code/PhenylEther//Results_dir_PhenylEther_geom_element_C_2019-11-18_18-47-34//GTE1_PhenylEther_geom_2019-11-18_18-48-25//opt.gbw
Electron density file                           ... /Users/lailaal-madhagi/Desktop/Testing_XAS_Analysis_code/PhenylEther//Results_dir_PhenylEther_geom_element_C_2019-11-18_18-47-34//GTE1_PhenylEther_geom_2019-11-18_18-48-25//opt.scfp.tmp
The origin for moment calculation is the CENTER OF MASS  = (-2.145017,  7.451311  0.862866)

-------------
DIPOLE MOMENT
-------------
                                X             Y             Z
Electronic contribution:      2.12747      -1.38892       0.07876
Nuclear contribution   :     -2.44447       1.59478      -0.09107
                        -----------------------------------------
Total Dipole Moment    :     -0.31700       0.20586      -0.01231
                        -----------------------------------------
Magnitude (a.u.)       :      0.37817
Magnitude (Debye)      :      0.96124



--------------------
Rotational spectrum 
--------------------
 
Rotational constants in cm-1:     0.080293     0.014270     0.013376 
Rotational constants in MHz :  2407.130364   427.790872   401.009301 

 Dipole components along the rotational axes: 
x,y,z [a.u.] :    -0.000877    -0.378171    -0.000302 
x,y,z [Debye]:    -0.002228    -0.961235    -0.000767 

 

Timings for individual modules:

Sum of individual times         ...     1062.210 sec (=  17.704 min)
GTO integral calculation        ...        8.235 sec (=   0.137 min)   0.8 %
SCF iterations                  ...      710.509 sec (=  11.842 min)  66.9 %
SCF Gradient evaluation         ...      337.407 sec (=   5.623 min)  31.8 %
Geometry relaxation             ...        6.059 sec (=   0.101 min)   0.6 %
                             ****ORCA TERMINATED NORMALLY****
TOTAL RUN TIME: 0 days 0 hours 17 minutes 44 seconds 487 msec
