
                                 *****************
                                 * O   R   C   A *
                                 *****************

           --- An Ab Initio, DFT and Semiempirical electronic structure package ---

                  #######################################################
                  #                        -***-                        #
                  #          Department of theory and spectroscopy      #
                  #               Directorship: Frank Neese             #
                  #        Max Planck Institute fuer Kohlenforschung    #
                  #                Kaiser Wilhelm Platz 1               #
                  #                 D-45470 Muelheim/Ruhr               #
                  #                      Germany                        #
                  #                                                     #
                  #                  All rights reserved                #
                  #                        -***-                        #
                  #######################################################


                         Program Version 4.1.0  - RELEASE  -


 With contributions from (in alphabetic order):
   Daniel Aravena         : Magnetic Properties
   Michael Atanasov       : Ab Initio Ligand Field Theory
   Alexander A. Auer      : GIAO ZORA
   Ute Becker             : Parallelization
   Giovanni Bistoni       : ED, Open-shell LED
   Martin Brehm           : Molecular dynamics
   Dmytro Bykov           : SCF Hessian
   Vijay G. Chilkuri      : MRCI spin determinant printing
   Dipayan Datta          : RHF DLPNO-CCSD density
   Achintya Kumar Dutta   : EOM-CC, STEOM-CC
   Dmitry Ganyushin       : Spin-Orbit,Spin-Spin,Magnetic field MRCI
   Miquel Garcia          : C-PCM Hessian
   Yang Guo               : DLPNO-NEVPT2, CIM, IAO-localization
   Andreas Hansen         : Spin unrestricted coupled pair/coupled cluster methods
   Benjamin Helmich-Paris : CASSCF linear response (MC-RPA)
   Lee Huntington         : MR-EOM, pCC
   Robert Izsak           : Overlap fitted RIJCOSX, COSX-SCS-MP3, EOM
   Christian Kollmar      : KDIIS, OOCD, Brueckner-CCSD(T), CCSD density
   Simone Kossmann        : Meta GGA functionals, TD-DFT gradient, OOMP2, MP2 Hessian
   Martin Krupicka        : AUTO-CI
   Lucas Lang             : DCDCAS
   Dagmar Lenk            : GEPOL surface, SMD
   Dimitrios Liakos       : Extrapolation schemes; parallel MDCI
   Dimitrios Manganas     : ROCIS; embedding schemes
   Dimitrios Pantazis     : SARC Basis sets
   Taras Petrenko         : DFT Hessian,TD-DFT gradient, ASA, ECA, R-Raman, ABS, FL, XAS/XES, NRVS
   Peter Pinski           : DLPNO-MP2, DLPNO-MP2 Gradient
   Christoph Reimann      : Effective Core Potentials
   Marius Retegan         : Local ZFS, SOC
   Christoph Riplinger    : Optimizer, TS searches, QM/MM, DLPNO-CCSD(T), (RO)-DLPNO pert. Triples
   Tobias Risthaus        : Range-separated hybrids, TD-DFT gradient, RPA, STAB
   Michael Roemelt        : Restricted open shell CIS
   Masaaki Saitow         : Open-shell DLPNO
   Barbara Sandhoefer     : DKH picture change effects
   Avijit Sen             : IP-ROCIS
   Kantharuban Sivalingam : CASSCF convergence, NEVPT2, FIC-MRCI
   Bernardo de Souza      : ESD, SOC TD-DFT
   Georgi Stoychev        : AutoAux, RI-MP2 NMR
   Willem Van den Heuvel  : Paramagnetic NMR
   Boris Wezisla          : Elementary symmetry handling
   Frank Wennmohs         : Technical directorship


 We gratefully acknowledge several colleagues who have allowed us to
 interface, adapt or use parts of their codes:
   Stefan Grimme, W. Hujo, H. Kruse,             : VdW corrections, initial TS optimization,
                  C. Bannwarth                     DFT functionals, gCP, sTDA/sTD-DF
   Ed Valeev                                     : LibInt (2-el integral package), F12 methods
   Garnet Chan, S. Sharma, J. Yang, R. Olivares  : DMRG
   Ulf Ekstrom                                   : XCFun DFT Library
   Mihaly Kallay                                 : mrcc  (arbitrary order and MRCC methods)
   Andreas Klamt, Michael Diedenhofen            : otool_cosmo (COSMO solvation model)
   Jiri Pittner, Ondrej Demel                    : Mk-CCSD
   Frank Weinhold                                : gennbo (NPA and NBO analysis)
   Christopher J. Cramer and Donald G. Truhlar   : smd solvation model
   Lars Goerigk                                  : TD-DFT with DH, B97 family of functionals
   V. Asgeirsson, H. Jonsson                     : NEB implementation
   FAccTs GmbH                                   : IRC, NEB, NEB-TS, Multilevel


 Your calculation uses the libint2 library for the computation of 2-el integrals
 For citations please refer to: http://libint.valeyev.net

 This ORCA versions uses:
   CBLAS   interface :  Fast vector & matrix operations
   LAPACKE interface :  Fast linear algebra routines
   SCALAPACK package :  Parallel linear algebra routines




***************************************
The coordinates will be read from file: /Users/lailaal-madhagi/Desktop/Testing_XAS_Analysis_code/PhenylEther//Results_dir_PhenylEther_geom_element_C_2019-11-18_18-47-34//GTE1_PhenylEther_geom_2019-11-18_18-48-25//opt.xyz
***************************************


----- Orbital basis set information -----
Your calculation utilizes the basis: 6-31G*
   H-He, Li-Ne : W. J. Hehre, R. Ditchfield and J.A. Pople, J. Chem. Phys. 56, 2257 (1972).
                 Note: He and Ne are unpublished basis sets taken from the Gaussian program.
                 Note: Li and B from J. D. Dill and J. A. Pople, J. Chem. Phys. 62, 2921 (1975).
   Na - Ar     : M. M. Francl, W. J. Pietro, W. J. Hehre, J. S. Binkley, M. S. Gordon, 
                 D. J. DeFrees and J. A. Pople, J. Chem. Phys. 77, 3654 (1982).
   K - Zn      : V. A. Rassolov, J. A. Pople, M. A. Ratner, and T. L. Windus, J. Chem. Phys. 109, 1223 (1998).

================================================================================
                                        WARNINGS
                       Please study these warnings very carefully!
================================================================================

INFO   : Checking CIS options ...

WARNING: CIS/ROCIS methods need fully converged wavefunctions
  ===> : Setting SCFConvForced true
         You can overwrite this default with %scf ConvForced false 


INFO   : the flag for use of LIBINT has been found!

================================================================================
                                       INPUT FILE
================================================================================
NAME = /Users/lailaal-madhagi/Desktop/Testing_XAS_Analysis_code/PhenylEther//Results_dir_PhenylEther_geom_element_C_2019-11-18_18-47-34//GTE1_PhenylEther_geom_2019-11-18_18-48-25//TDDFT_C-edge.inp
|  1> #This is C K-edge calculation 
|  2> ! B3LYP 6-31G* TIGHTSCF Grid3 FinalGrid5 
|  3> !NormalPrint 
|  4> %output 
|  5> Print[P_Basis] 2 
|  6> Print[P_MOS] 1 
|  7> end 
|  8> 
|  9> %tddft 
| 10> orbwin[0]=1,12,-1,-1 
| 11> nroots=20 
| 12> maxdim=200 
| 13> end 
| 14> *xyzfile 0 1 /Users/lailaal-madhagi/Desktop/Testing_XAS_Analysis_code/PhenylEther//Results_dir_PhenylEther_geom_element_C_2019-11-18_18-47-34//GTE1_PhenylEther_geom_2019-11-18_18-48-25//opt.xyz                           ****END OF INPUT****
================================================================================

                       ****************************
                       * Single Point Calculation *
                       ****************************

---------------------------------
CARTESIAN COORDINATES (ANGSTROEM)
---------------------------------
  C     -2.379610    3.220411   -0.522630
  C     -1.376857    2.681437    0.290282
  C     -3.549388    2.489164   -0.737073
  C     -3.719438    1.229390   -0.157692
  C     -2.705762    0.698550    0.644248
  C     -1.535149    1.421813    0.873959
  O     -0.162018    3.308256    0.492920
  H     -2.242038    4.194407   -0.981206
  H     -4.328300    2.907743   -1.369444
  H     -4.632013    0.666076   -0.331440
  H     -0.735927    1.028553    1.494784
  H     -2.825912   -0.281434    1.098944
  C     -0.087260    4.678846    0.652820
  C     -1.025921    5.406161    1.392225
  C     -0.838115    6.778040    1.570282
  C      0.276508    7.421797    1.027393
  C      1.211476    6.681598    0.299123
  C      1.032176    5.311644    0.106198
  H     -1.885911    4.903127    1.822614
  H     -1.567303    7.343078    2.145559
  H      0.416166    8.489456    1.172448
  H      1.745838    4.718182   -0.457193
  H      2.083568    7.171327   -0.126621

----------------------------
CARTESIAN COORDINATES (A.U.)
----------------------------
  NO LB      ZA    FRAG     MASS         X           Y           Z
   0 C     6.0000    0    12.011   -4.496812    6.085696   -0.987627
   1 C     6.0000    0    12.011   -2.601882    5.067181    0.548553
   2 C     6.0000    0    12.011   -6.707371    4.703838   -1.392866
   3 C     6.0000    0    12.011   -7.028719    2.323210   -0.297996
   4 C     6.0000    0    12.011   -5.113148    1.320067    1.217451
   5 C     6.0000    0    12.011   -2.901011    2.686836    1.651544
   6 O     8.0000    0    15.999   -0.306170    6.251697    0.931484
   7 H     1.0000    0     1.008   -4.236838    7.926281   -1.854211
   8 H     1.0000    0     1.008   -8.179301    5.494837   -2.587875
   9 H     1.0000    0     1.008   -8.753236    1.258701   -0.626331
  10 H     1.0000    0     1.008   -1.390701    1.943683    2.824733
  11 H     1.0000    0     1.008   -5.340199   -0.531834    2.076704
  12 C     6.0000    0    12.011   -0.164898    8.841738    1.233651
  13 C     6.0000    0    12.011   -1.938710   10.216164    2.630924
  14 C     6.0000    0    12.011   -1.583808   12.808639    2.967403
  15 C     6.0000    0    12.011    0.522525   14.025164    1.941491
  16 C     6.0000    0    12.011    2.289357   12.626390    0.565261
  17 C     6.0000    0    12.011    1.950530   10.037553    0.200686
  18 H     1.0000    0     1.008   -3.563856    9.265567    3.444241
  19 H     1.0000    0     1.008   -2.961773   13.876407    4.054519
  20 H     1.0000    0     1.008    0.786439   16.042747    2.215606
  21 H     1.0000    0     1.008    3.299155    8.916073   -0.863970
  22 H     1.0000    0     1.008    3.937374   13.551844   -0.239280

--------------------------------
INTERNAL COORDINATES (ANGSTROEM)
--------------------------------
 C      0   0   0     0.000000000000     0.00000000     0.00000000
 C      1   0   0     1.398868605749     0.00000000     0.00000000
 C      1   2   0     1.396097546956   119.21442709     0.00000000
 C      3   1   2     1.397007388743   120.70483455   359.54682960
 C      4   3   1     1.397296967254   119.49202985     0.00000000
 C      5   4   3     1.395066634909   120.41627205     0.41735075
 O      2   1   3     1.381953779829   122.72442816   176.38529515
 H      1   2   3     1.085304729797   120.03009560   180.22550441
 H      3   1   2     1.087108685235   119.21068667   180.04680129
 H      4   3   1     1.086417737396   120.23126220   180.13109251
 H      6   5   4     1.085740395459   121.60392334   179.91431408
 H      5   4   3     1.086992863832   120.15846813   180.10995116
 C      7   2   1     1.381909743671   120.95614014    39.81071166
 C     13   7   2     1.398853386001   122.72032133    39.76521402
 C     14  13   7     1.396075299956   119.21394410   176.36909291
 C     15  14  13     1.396974415929   120.70417615   359.55057026
 C     16  15  14     1.397296016778   119.49302410     0.00000000
 C     17  16  15     1.395041570449   120.41690784     0.41245540
 H     14  13   7     1.085292954618   120.02279102   356.58230610
 H     15  14  13     1.087164436263   119.20843301   180.04401404
 H     16  15  14     1.086480823966   120.23291130   180.12894566
 H     18  17  16     1.085780710948   121.60273439   179.93537595
 H     17  16  15     1.087032047727   120.15191613   180.10194745

---------------------------
INTERNAL COORDINATES (A.U.)
---------------------------
 C      0   0   0     0.000000000000     0.00000000     0.00000000
 C      1   0   0     2.643478562206     0.00000000     0.00000000
 C      1   2   0     2.638242019985   119.21442709     0.00000000
 C      3   1   2     2.639961371788   120.70483455   359.54682960
 C      4   3   1     2.640508595868   119.49202985     0.00000000
 C      5   4   3     2.636293878550   120.41627205     0.41735075
 O      2   1   3     2.611514173615   122.72442816   176.38529515
 H      1   2   3     2.050928711165   120.03009560   180.22550441
 H      3   1   2     2.054337692902   119.21068667   180.04680129
 H      4   3   1     2.053031990713   120.23126220   180.13109251
 H      6   5   4     2.051751999953   121.60392334   179.91431408
 H      5   4   3     2.054118822170   120.15846813   180.10995116
 C      7   2   1     2.611430957336   120.95614014    39.81071166
 C     13   7   2     2.643449801050   122.72032133    39.76521402
 C     14  13   7     2.638199979250   119.21394410   176.36909291
 C     15  14  13     2.639899062201   120.70417615   359.55057026
 C     16  15  14     2.640506799729   119.49302410     0.00000000
 C     17  16  15     2.636246513584   120.41690784     0.41245540
 H     14  13   7     2.050906459302   120.02279102   356.58230610
 H     15  14  13     2.054443047076   119.20843301   180.04401404
 H     16  15  14     2.053151207054   120.23291130   180.12894566
 H     18  17  16     2.051828185187   121.60273439   179.93537595
 H     17  16  15     2.054192869000   120.15191613   180.10194745

---------------------
BASIS SET INFORMATION
---------------------
There are 3 groups of distinct atoms

 Group   1 Type C   : 10s4p1d contracted to 3s2p1d pattern {631/31/1}
 Group   2 Type O   : 10s4p1d contracted to 3s2p1d pattern {631/31/1}
 Group   3 Type H   : 4s contracted to 2s pattern {31}

Atom   0C    basis set group =>   1
Atom   1C    basis set group =>   1
Atom   2C    basis set group =>   1
Atom   3C    basis set group =>   1
Atom   4C    basis set group =>   1
Atom   5C    basis set group =>   1
Atom   6O    basis set group =>   2
Atom   7H    basis set group =>   3
Atom   8H    basis set group =>   3
Atom   9H    basis set group =>   3
Atom  10H    basis set group =>   3
Atom  11H    basis set group =>   3
Atom  12C    basis set group =>   1
Atom  13C    basis set group =>   1
Atom  14C    basis set group =>   1
Atom  15C    basis set group =>   1
Atom  16C    basis set group =>   1
Atom  17C    basis set group =>   1
Atom  18H    basis set group =>   3
Atom  19H    basis set group =>   3
Atom  20H    basis set group =>   3
Atom  21H    basis set group =>   3
Atom  22H    basis set group =>   3

-------------------------
BASIS SET IN INPUT FORMAT
-------------------------

 # Basis set for element : H 
 NewGTO H 
 S 3 
   1      18.7311370000      0.0334945995
   2       2.8253937000      0.2347269467
   3       0.6401217000      0.8137573184
 S 1 
   1       0.1612778000      1.0000000000
  end;

 # Basis set for element : C 
 NewGTO C 
 S 6 
   1    3047.5249000000      0.0018347002
   2     457.3695100000      0.0140373012
   3     103.9486900000      0.0688426061
   4      29.2101550000      0.2321844206
   5       9.2866630000      0.4679413416
   6       3.1639270000      0.3623120322
 S 3 
   1       7.8682724000     -0.1193324086
   2       1.8812885000     -0.1608542116
   3       0.5442493000      1.1434564826
 P 3 
   1       7.8682724000      0.0689990956
   2       1.8812885000      0.3164239798
   3       0.5442493000      0.7443082524
 S 1 
   1       0.1687144000      1.0000000000
 P 1 
   1       0.1687144000      1.0000000000
 D 1 
   1       0.8000000000      1.0000000000
  end;

 # Basis set for element : O 
 NewGTO O 
 S 6 
   1    5484.6717000000      0.0018310998
   2     825.2349500000      0.0139500985
   3     188.0469600000      0.0684450927
   4      52.9645000000      0.2327142753
   5      16.8975700000      0.4701929501
   6       5.7996353000      0.3585208619
 S 3 
   1      15.5396160000     -0.1107775038
   2       3.5999336000     -0.1480263051
   3       1.0137618000      1.1307670390
 P 3 
   1      15.5396160000      0.0708742995
   2       3.5999336000      0.3397527978
   3       1.0137618000      0.7271585953
 S 1 
   1       0.2700058000      1.0000000000
 P 1 
   1       0.2700058000      1.0000000000
 D 1 
   1       0.8000000000      1.0000000000
  end;

------------------------------------------------------------------------------
                           ORCA GTO INTEGRAL CALCULATION
------------------------------------------------------------------------------

                         BASIS SET STATISTICS AND STARTUP INFO

 # of primitive gaussian shells          ...  235
 # of primitive gaussian functions       ...  391
 # of contracted shells                  ...   98
 # of contracted basis functions         ...  202
 Highest angular momentum                ...    2
 Maximum contraction depth               ...    6
 Integral package used                   ... LIBINT
 Integral threshhold            Thresh   ...  2.500e-11
 Primitive cut-off              TCut     ...  2.500e-12


------------------------------ INTEGRAL EVALUATION ----------------------------


 * One electron integrals 
 Pre-screening matrix                    ... done
 Shell pair data                         ... done (   0.005 sec)

-------------------------------------------------------------------------------
                                 ORCA SCF
-------------------------------------------------------------------------------

------------
SCF SETTINGS
------------
Hamiltonian:
 Density Functional     Method          .... DFT(GTOs)
 Exchange Functional    Exchange        .... B88
   X-Alpha parameter    XAlpha          ....  0.666667
   Becke's b parameter  XBeta           ....  0.004200
 Correlation Functional Correlation     .... LYP
 LDA part of GGA corr.  LDAOpt          .... VWN-5
 Gradients option       PostSCFGGA      .... off
 Hybrid DFT is turned on
   Fraction HF Exchange ScalHFX         ....  0.200000
   Scaling of DF-GGA-X  ScalDFX         ....  0.720000
   Scaling of DF-GGA-C  ScalDFC         ....  0.810000
   Scaling of DF-LDA-C  ScalLDAC        ....  1.000000
   Perturbative correction              ....  0.000000
   Density functional embedding theory  .... OFF
   NL short-range parameter             ....  4.800000


General Settings:
 Integral files         IntName         .... /Users/lailaal-madhagi/Desktop/Testing_XAS_Analysis_code/PhenylEther//Results_dir_PhenylEther_geom_element_C_2019-11-18_18-47-34//GTE1_PhenylEther_geom_2019-11-18_18-48-25//TDDFT_C-edge
 Hartree-Fock type      HFTyp           .... RHF
 Total Charge           Charge          ....    0
 Multiplicity           Mult            ....    1
 Number of Electrons    NEL             ....   90
 Basis Dimension        Dim             ....  202
 Nuclear Repulsion      ENuc            ....    699.8430316646 Eh

Convergence Acceleration:
 DIIS                   CNVDIIS         .... on
   Start iteration      DIISMaxIt       ....    12
   Startup error        DIISStart       ....  0.200000
   # of expansion vecs  DIISMaxEq       ....     5
   Bias factor          DIISBfac        ....   1.050
   Max. coefficient     DIISMaxC        ....  10.000
 Newton-Raphson         CNVNR           .... off
 SOSCF                  CNVSOSCF        .... on
   Start iteration      SOSCFMaxIt      ....   150
   Startup grad/error   SOSCFStart      ....  0.003300
 Level Shifting         CNVShift        .... on
   Level shift para.    LevelShift      ....    0.2500
   Turn off err/grad.   ShiftErr        ....    0.0010
 Zerner damping         CNVZerner       .... off
 Static damping         CNVDamp         .... on
   Fraction old density DampFac         ....    0.7000
   Max. Damping (<1)    DampMax         ....    0.9800
   Min. Damping (>=0)   DampMin         ....    0.0000
   Turn off err/grad.   DampErr         ....    0.1000
 Fernandez-Rico         CNVRico         .... off

SCF Procedure:
 Maximum # iterations   MaxIter         ....   125
 SCF integral mode      SCFMode         .... Direct
   Integral package                     .... LIBINT
 Reset frequency        DirectResetFreq ....    20
 Integral Threshold     Thresh          ....  2.500e-11 Eh
 Primitive CutOff       TCut            ....  2.500e-12 Eh

Convergence Tolerance:
 Convergence Check Mode ConvCheckMode   .... Total+1el-Energy
 Convergence forced     ConvForced      .... 1
 Energy Change          TolE            ....  1.000e-08 Eh
 1-El. energy change                    ....  1.000e-05 Eh
 Orbital Gradient       TolG            ....  1.000e-05
 Orbital Rotation angle TolX            ....  1.000e-05
 DIIS Error             TolErr          ....  5.000e-07


Diagonalization of the overlap matrix:
Smallest eigenvalue                        ... 4.828e-04
Time for diagonalization                   ...    0.006 sec
Threshold for overlap eigenvalues          ... 1.000e-08
Number of eigenvalues below threshold      ... 0
Time for construction of square roots      ...    0.003 sec
Total time needed                          ...    0.010 sec

-------------------
DFT GRID GENERATION
-------------------

General Integration Accuracy     IntAcc      ...  4.340
Radial Grid Type                 RadialGrid  ... Gauss-Chebyshev
Angular Grid (max. acc.)         AngularGrid ... Lebedev-194
Angular grid pruning method      GridPruning ... 3 (G Style)
Weight generation scheme         WeightScheme... Becke
Basis function cutoff            BFCut       ...    1.0000e-11
Integration weight cutoff        WCut        ...    1.0000e-14
Grids for H and He will be reduced by one unit

# of grid points (after initial pruning)     ...  57946 (   0.0 sec)
# of grid points (after weights+screening)   ...  52571 (   0.2 sec)
nearest neighbour list constructed           ...    0.0 sec
Grid point re-assignment to atoms done       ...    0.0 sec
Grid point division into batches done        ...    0.1 sec
Reduced shell lists constructed in    0.4 sec

Total number of grid points                  ...    52571
Total number of batches                      ...      829
Average number of points per batch           ...       63
Average number of grid points per atom       ...     2286
Average number of shells per batch           ...    55.19 (56.32%)
Average number of basis functions per batch  ...   115.33 (57.09%)
Average number of large shells per batch     ...    39.31 (71.23%)
Average number of large basis fcns per batch ...    83.33 (72.25%)
Maximum spatial batch extension              ...  19.42, 18.46, 18.93 au
Average spatial batch extension              ...   3.09,  2.89,  3.24 au

Time for grid setup =    0.704 sec

------------------------------
INITIAL GUESS: MODEL POTENTIAL
------------------------------
Loading Hartree-Fock densities                     ... done
Calculating cut-offs                               ... done
Setting up the integral package                    ... done
Initializing the effective Hamiltonian             ... done
Starting the Coulomb interaction                   ... done (   0.2 sec)
Reading the grid                                   ... done
Mapping shells                                     ... done
Starting the XC term evaluation                    ... done (   0.5 sec)
  promolecular density results
     # of electrons  =     89.995846940
     EX              =    -72.856313661
     EC              =     -3.027633944
     EX+EC           =    -75.883947605
Transforming the Hamiltonian                       ... done (   0.0 sec)
Diagonalizing the Hamiltonian                      ... done (   0.0 sec)
Back transforming the eigenvectors                 ... done (   0.0 sec)
Now organizing SCF variables                       ... done
                      ------------------
                      INITIAL GUESS DONE (   1.5 sec)
                      ------------------
--------------
SCF ITERATIONS
--------------
               ***  Starting incremental Fock matrix formation  ***

                         ----------------------------
                         !        ITERATION     0   !
                         ----------------------------
   Total Energy        :    -537.892682272822 Eh
   Energy Change       :    -537.892682272822 Eh
   MAX-DP              :       0.044567458235
   RMS-DP              :       0.001850772449
   Actual Damping      :       0.7000
   Actual Level Shift  :       0.2500 Eh
   Int. Num. El.       :    89.99992998 (UP=   44.99996499 DN=   44.99996499)
   Exchange            :   -59.57172241
   Correlation         :    -3.60824252


                         ----------------------------
                         !        ITERATION     1   !
                         ----------------------------
   Total Energy        :    -538.016092614691 Eh
   Energy Change       :      -0.123410341869 Eh
   MAX-DP              :       0.030507361730
   RMS-DP              :       0.001369923430
   Actual Damping      :       0.7000
   Actual Level Shift  :       0.2500 Eh
   Int. Num. El.       :    89.99996731 (UP=   44.99998366 DN=   44.99998366)
   Exchange            :   -59.24023289
   Correlation         :    -3.59409799

                               ***Turning on DIIS***

                         ----------------------------
                         !        ITERATION     2   !
                         ----------------------------
   Total Energy        :    -538.070626893481 Eh
   Energy Change       :      -0.054534278790 Eh
   MAX-DP              :       0.052676006638
   RMS-DP              :       0.002402842421
   Actual Damping      :       0.0000
   Actual Level Shift  :       0.2500 Eh
   Int. Num. El.       :    89.99999819 (UP=   44.99999909 DN=   44.99999909)
   Exchange            :   -59.00699514
   Correlation         :    -3.58376157
   DIIS-Error          :       0.034208625807


                         ----------------------------
                         !        ITERATION     3   !
                         ----------------------------
   Total Energy        :    -538.149413910437 Eh
   Energy Change       :      -0.078787016956 Eh
   MAX-DP              :       0.023795699805
   RMS-DP              :       0.000933789945
   Actual Damping      :       0.0000
   Actual Level Shift  :       0.2500 Eh
   Int. Num. El.       :    90.00005635 (UP=   45.00002818 DN=   45.00002818)
   Exchange            :   -58.61585940
   Correlation         :    -3.56608809
   DIIS-Error          :       0.040102974782
   DIIS coefficients:
      0.55535   0.44465


                         ----------------------------
                         !        ITERATION     4   !
                         ----------------------------
   Total Energy        :    -538.168656796199 Eh
   Energy Change       :      -0.019242885762 Eh
   MAX-DP              :       0.009473218007
   RMS-DP              :       0.000330533481
   Actual Damping      :       0.0000
   Actual Level Shift  :       0.2500 Eh
   Int. Num. El.       :    90.00003896 (UP=   45.00001948 DN=   45.00001948)
   Exchange            :   -58.74934171
   Correlation         :    -3.57271269
   DIIS-Error          :       0.009748641730
   DIIS coefficients:
      0.18601   0.01120   0.80279

                      *** Initiating the SOSCF procedure ***
                           *** Shutting down DIIS ***
                      *** Re-Reading the Fockian *** 
                      *** Removing any level shift *** 

                         ----------------------------
                         !        ITERATION     5   !
                         ----------------------------
   Total Energy        :    -538.169720791879 Eh
   Energy Change       :      -0.001063995680 Eh
   MAX-DP              :       0.002909056829
   RMS-DP              :       0.000094296036
   Orbital gradient    :       0.000880304270
   Orbital Rotation    :       0.000880304270
   Actual Damping      :       0.0000
   Int. Num. El.       :    90.00003170 (UP=   45.00001585 DN=   45.00001585)
   Exchange            :   -58.79129710
   Correlation         :    -3.57464800

               *** Restarting incremental Fock matrix formation ***

                         ----------------------------
                         !        ITERATION     6   !
                         ----------------------------
   Total Energy        :    -538.169790899734 Eh
   Energy Change       :      -0.000070107855 Eh
   MAX-DP              :       0.001217017193
   RMS-DP              :       0.000043410557
   Orbital gradient    :       0.000192614586
   Orbital Rotation    :       0.000739325209
   Actual Damping      :       0.0000
   Int. Num. El.       :    90.00003051 (UP=   45.00001525 DN=   45.00001525)
   Exchange            :   -58.79691379
   Correlation         :    -3.57492314


                         ----------------------------
                         !        ITERATION     7   !
                         ----------------------------
   Total Energy        :    -538.169792719730 Eh
   Energy Change       :      -0.000001819996 Eh
   MAX-DP              :       0.000666600011
   RMS-DP              :       0.000013622256
   Orbital gradient    :       0.000183774271
   Orbital Rotation    :       0.000343860442
   Actual Damping      :       0.0000
   Int. Num. El.       :    90.00002992 (UP=   45.00001496 DN=   45.00001496)
   Exchange            :   -58.79895382
   Correlation         :    -3.57499637


                         ----------------------------
                         !        ITERATION     8   !
                         ----------------------------
   Total Energy        :    -538.169793625195 Eh
   Energy Change       :      -0.000000905466 Eh
   MAX-DP              :       0.000299255724
   RMS-DP              :       0.000011516626
   Orbital gradient    :       0.000106532004
   Orbital Rotation    :       0.000333952485
   Actual Damping      :       0.0000
   Int. Num. El.       :    90.00002992 (UP=   45.00001496 DN=   45.00001496)
   Exchange            :   -58.79806790
   Correlation         :    -3.57496955


                         ----------------------------
                         !        ITERATION     9   !
                         ----------------------------
   Total Energy        :    -538.169793803334 Eh
   Energy Change       :      -0.000000178139 Eh
   MAX-DP              :       0.000131254154
   RMS-DP              :       0.000003846965
   Orbital gradient    :       0.000076461160
   Orbital Rotation    :       0.000132707869
   Actual Damping      :       0.0000
   Int. Num. El.       :    90.00003009 (UP=   45.00001504 DN=   45.00001504)
   Exchange            :   -58.79774276
   Correlation         :    -3.57495132


                         ----------------------------
                         !        ITERATION    10   !
                         ----------------------------
   Total Energy        :    -538.169793896688 Eh
   Energy Change       :      -0.000000093354 Eh
   MAX-DP              :       0.000103271366
   RMS-DP              :       0.000003449530
   Orbital gradient    :       0.000026501910
   Orbital Rotation    :       0.000028813931
   Actual Damping      :       0.0000
   Int. Num. El.       :    90.00003005 (UP=   45.00001503 DN=   45.00001503)
   Exchange            :   -58.79800861
   Correlation         :    -3.57496365


                         ----------------------------
                         !        ITERATION    11   !
                         ----------------------------
   Total Energy        :    -538.169793927536 Eh
   Energy Change       :      -0.000000030848 Eh
   MAX-DP              :       0.000031989603
   RMS-DP              :       0.000001101521
   Orbital gradient    :       0.000014952525
   Orbital Rotation    :       0.000028516876
   Actual Damping      :       0.0000
   Int. Num. El.       :    90.00003001 (UP=   45.00001500 DN=   45.00001500)
   Exchange            :   -58.79806998
   Correlation         :    -3.57496763


                         ----------------------------
                         !        ITERATION    12   !
                         ----------------------------
   Total Energy        :    -538.169793933246 Eh
   Energy Change       :      -0.000000005711 Eh
   MAX-DP              :       0.000019646623
   RMS-DP              :       0.000000858932
   Orbital gradient    :       0.000010128114
   Orbital Rotation    :       0.000024070683
   Actual Damping      :       0.0000
   Int. Num. El.       :    90.00003003 (UP=   45.00001501 DN=   45.00001501)
   Exchange            :   -58.79797063
   Correlation         :    -3.57496181


                         ----------------------------
                         !        ITERATION    13   !
                         ----------------------------
   Total Energy        :    -538.169793936068 Eh
   Energy Change       :      -0.000000002821 Eh
   MAX-DP              :       0.000008181205
   RMS-DP              :       0.000000328295
   Orbital gradient    :       0.000003725137
   Orbital Rotation    :       0.000008077787
   Actual Damping      :       0.0000
   Int. Num. El.       :    90.00003003 (UP=   45.00001502 DN=   45.00001502)
   Exchange            :   -58.79797774
   Correlation         :    -3.57496265

                  ***Gradient check signals convergence***
              ***Rediagonalizing the Fockian in SOSCF/NRSCF***

               *****************************************************
               *                     SUCCESS                       *
               *           SCF CONVERGED AFTER  14 CYCLES          *
               *****************************************************

Setting up the final grid:

General Integration Accuracy     IntAcc      ...  5.010
Radial Grid Type                 RadialGrid  ... Gauss-Chebyshev
Angular Grid (max. acc.)         AngularGrid ... Lebedev-434
Angular grid pruning method      GridPruning ... 3 (G Style)
Weight generation scheme         WeightScheme... Becke
Basis function cutoff            BFCut       ...    1.0000e-11
Integration weight cutoff        WCut        ...    1.0000e-14
Grids for H and He will be reduced by one unit

# of grid points (after initial pruning)     ... 206138 (   0.1 sec)
# of grid points (after weights+screening)   ... 185205 (   0.6 sec)
nearest neighbour list constructed           ...    0.0 sec
Grid point re-assignment to atoms done       ...    0.0 sec
Grid point division into batches done        ...    1.0 sec
Reduced shell lists constructed in    2.2 sec

Total number of grid points                  ...   185205
Total number of batches                      ...     2906
Average number of points per batch           ...       63
Average number of grid points per atom       ...     8052
Average number of shells per batch           ...    50.73 (51.77%)
Average number of basis functions per batch  ...   105.71 (52.33%)
Average number of large shells per batch     ...    35.55 (70.08%)
Average number of large basis fcns per batch ...    74.97 (70.92%)
Maximum spatial batch extension              ...  21.60, 17.97, 20.83 au
Average spatial batch extension              ...   1.99,  1.95,  2.07 au

Final grid set up in    3.0 sec
Final integration                            ... done (   2.1 sec)
Change in XC energy                          ...    -0.000225863
Integrated number of electrons               ...    89.999985524
Previous integrated no of electrons          ...    90.000030027

----------------
TOTAL SCF ENERGY
----------------

Total Energy       :         -538.17001980 Eh          -14644.35074 eV

Components:
Nuclear Repulsion  :          699.84303166 Eh           19043.69705 eV
Electronic Energy  :        -1238.01305147 Eh          -33688.04780 eV
One Electron Energy:        -2116.02615872 Eh          -57579.99909 eV
Two Electron Energy:          878.01310725 Eh           23891.95129 eV

Virial components:
Potential Energy   :        -1073.13833008 Eh          -29201.57854 eV
Kinetic Energy     :          534.96831028 Eh           14557.22780 eV
Virial Ratio       :            2.00598486


DFT components:
N(Alpha)           :       44.999992761841 electrons
N(Beta)            :       44.999992761841 electrons
N(Total)           :       89.999985523683 electrons
E(X)               :      -58.798245263556 Eh       
E(C)               :       -3.574954999900 Eh       
E(XC)              :      -62.373200263457 Eh       
DFET-embed. en.    :        0.000000000000 Eh       

---------------
SCF CONVERGENCE
---------------

  Last Energy change         ...   -1.8870e-09  Tolerance :   1.0000e-08
  Last MAX-Density change    ...    3.2717e-06  Tolerance :   1.0000e-07
  Last RMS-Density change    ...    1.6261e-07  Tolerance :   5.0000e-09
  Last Orbital Gradient      ...    1.8111e-06  Tolerance :   1.0000e-05
  Last Orbital Rotation      ...    2.8563e-06  Tolerance :   1.0000e-05

             **** THE GBW FILE WAS UPDATED (/Users/lailaal-madhagi/Desktop/Testing_XAS_Analysis_code/PhenylEther//Results_dir_PhenylEther_geom_element_C_2019-11-18_18-47-34//GTE1_PhenylEther_geom_2019-11-18_18-48-25//TDDFT_C-edge.gbw) ****
             **** DENSITY FILE WAS UPDATED (/Users/lailaal-madhagi/Desktop/Testing_XAS_Analysis_code/PhenylEther//Results_dir_PhenylEther_geom_element_C_2019-11-18_18-47-34//GTE1_PhenylEther_geom_2019-11-18_18-48-25//TDDFT_C-edge.scfp.tmp) ****
             **** ENERGY FILE WAS UPDATED (/Users/lailaal-madhagi/Desktop/Testing_XAS_Analysis_code/PhenylEther//Results_dir_PhenylEther_geom_element_C_2019-11-18_18-47-34//GTE1_PhenylEther_geom_2019-11-18_18-48-25//TDDFT_C-edge.en.tmp) ****
----------------
ORBITAL ENERGIES
----------------

  NO   OCC          E(Eh)            E(eV) 
   0   2.0000     -19.177469      -521.8455 
   1   2.0000     -10.242167      -278.7035 
   2   2.0000     -10.242153      -278.7031 
   3   2.0000     -10.183966      -277.1198 
   4   2.0000     -10.183963      -277.1197 
   5   2.0000     -10.183381      -277.1039 
   6   2.0000     -10.183379      -277.1038 
   7   2.0000     -10.180726      -277.0316 
   8   2.0000     -10.180689      -277.0306 
   9   2.0000     -10.178603      -276.9739 
  10   2.0000     -10.178597      -276.9737 
  11   2.0000     -10.177714      -276.9497 
  12   2.0000     -10.177703      -276.9494 
  13   2.0000      -1.070648       -29.1338 
  14   2.0000      -0.854957       -23.2646 
  15   2.0000      -0.840879       -22.8815 
  16   2.0000      -0.758674       -20.6446 
  17   2.0000      -0.745592       -20.2886 
  18   2.0000      -0.741947       -20.1894 
  19   2.0000      -0.718224       -19.5439 
  20   2.0000      -0.629792       -17.1375 
  21   2.0000      -0.612429       -16.6651 
  22   2.0000      -0.601328       -16.3630 
  23   2.0000      -0.575156       -15.6508 
  24   2.0000      -0.540573       -14.7097 
  25   2.0000      -0.504429       -13.7262 
  26   2.0000      -0.483196       -13.1484 
  27   2.0000      -0.469329       -12.7711 
  28   2.0000      -0.460086       -12.5196 
  29   2.0000      -0.442412       -12.0386 
  30   2.0000      -0.436722       -11.8838 
  31   2.0000      -0.420758       -11.4494 
  32   2.0000      -0.420069       -11.4307 
  33   2.0000      -0.395935       -10.7740 
  34   2.0000      -0.389489       -10.5985 
  35   2.0000      -0.365186        -9.9372 
  36   2.0000      -0.357066        -9.7163 
  37   2.0000      -0.356991        -9.7142 
  38   2.0000      -0.348693        -9.4884 
  39   2.0000      -0.331643        -9.0245 
  40   2.0000      -0.321026        -8.7356 
  41   2.0000      -0.252147        -6.8613 
  42   2.0000      -0.246725        -6.7137 
  43   2.0000      -0.243955        -6.6383 
  44   2.0000      -0.212657        -5.7867 
  45   0.0000      -0.005002        -0.1361 
  46   0.0000       0.000752         0.0205 
  47   0.0000       0.007113         0.1936 
  48   0.0000       0.018584         0.5057 
  49   0.0000       0.092031         2.5043 
  50   0.0000       0.097911         2.6643 
  51   0.0000       0.145682         3.9642 
  52   0.0000       0.146290         3.9807 
  53   0.0000       0.152657         4.1540 
  54   0.0000       0.158725         4.3191 
  55   0.0000       0.160274         4.3613 
  56   0.0000       0.171249         4.6599 
  57   0.0000       0.176717         4.8087 
  58   0.0000       0.187863         5.1120 
  59   0.0000       0.189578         5.1587 
  60   0.0000       0.191665         5.2155 
  61   0.0000       0.196279         5.3410 
  62   0.0000       0.262807         7.1513 
  63   0.0000       0.284696         7.7470 
  64   0.0000       0.301583         8.2065 
  65   0.0000       0.304423         8.2838 
  66   0.0000       0.306733         8.3466 
  67   0.0000       0.337211         9.1760 
  68   0.0000       0.340798         9.2736 
  69   0.0000       0.360384         9.8066 
  70   0.0000       0.380277        10.3479 
  71   0.0000       0.465448        12.6655 
  72   0.0000       0.475190        12.9306 
  73   0.0000       0.501211        13.6386 
  74   0.0000       0.517417        14.0796 
  75   0.0000       0.526802        14.3350 
  76   0.0000       0.539110        14.6699 
  77   0.0000       0.553560        15.0631 
  78   0.0000       0.564763        15.3680 
  79   0.0000       0.565443        15.3865 
  80   0.0000       0.578854        15.7514 
  81   0.0000       0.581988        15.8367 
  82   0.0000       0.597916        16.2701 
  83   0.0000       0.598317        16.2810 
  84   0.0000       0.603655        16.4263 
  85   0.0000       0.606937        16.5156 
  86   0.0000       0.614316        16.7164 
  87   0.0000       0.615901        16.7595 
  88   0.0000       0.619844        16.8668 
  89   0.0000       0.621797        16.9199 
  90   0.0000       0.625540        17.0218 
  91   0.0000       0.629484        17.1291 
  92   0.0000       0.630758        17.1638 
  93   0.0000       0.645228        17.5576 
  94   0.0000       0.667339        18.1592 
  95   0.0000       0.669941        18.2300 
  96   0.0000       0.694561        18.9000 
  97   0.0000       0.703533        19.1441 
  98   0.0000       0.761919        20.7329 
  99   0.0000       0.787823        21.4378 
 100   0.0000       0.814593        22.1662 
 101   0.0000       0.840465        22.8702 
 102   0.0000       0.840601        22.8739 
 103   0.0000       0.842709        22.9313 
 104   0.0000       0.847603        23.0645 
 105   0.0000       0.851596        23.1731 
 106   0.0000       0.864354        23.5203 
 107   0.0000       0.870284        23.6816 
 108   0.0000       0.876112        23.8402 
 109   0.0000       0.909760        24.7558 
 110   0.0000       0.923497        25.1296 
 111   0.0000       0.925584        25.1864 
 112   0.0000       0.944309        25.6959 
 113   0.0000       0.950825        25.8733 
 114   0.0000       0.970259        26.4021 
 115   0.0000       0.989525        26.9263 
 116   0.0000       0.993871        27.0446 
 117   0.0000       1.021178        27.7877 
 118   0.0000       1.045778        28.4571 
 119   0.0000       1.086418        29.5629 
 120   0.0000       1.087212        29.5845 
 121   0.0000       1.111657        30.2497 
 122   0.0000       1.123565        30.5737 
 123   0.0000       1.158720        31.5304 
 124   0.0000       1.176193        32.0058 
 125   0.0000       1.180244        32.1161 
 126   0.0000       1.200788        32.6751 
 127   0.0000       1.200988        32.6805 
 128   0.0000       1.231111        33.5002 
 129   0.0000       1.288403        35.0592 
 130   0.0000       1.320588        35.9350 
 131   0.0000       1.324641        36.0453 
 132   0.0000       1.401808        38.1451 
 133   0.0000       1.403297        38.1857 
 134   0.0000       1.427862        38.8541 
 135   0.0000       1.440662        39.2024 
 136   0.0000       1.441075        39.2137 
 137   0.0000       1.458112        39.6772 
 138   0.0000       1.477157        40.1955 
 139   0.0000       1.485935        40.4344 
 140   0.0000       1.491183        40.5772 
 141   0.0000       1.495024        40.6817 
 142   0.0000       1.509036        41.0630 
 143   0.0000       1.514866        41.2216 
 144   0.0000       1.526397        41.5354 
 145   0.0000       1.691814        46.0366 
 146   0.0000       1.740955        47.3738 
 147   0.0000       1.771561        48.2066 
 148   0.0000       1.783258        48.5249 
 149   0.0000       1.821537        49.5665 
 150   0.0000       1.825886        49.6849 
 151   0.0000       1.854603        50.4663 
 152   0.0000       1.884712        51.2856 
 153   0.0000       1.902264        51.7632 
 154   0.0000       1.920897        52.2703 
 155   0.0000       1.937148        52.7125 
 156   0.0000       1.960017        53.3348 
 157   0.0000       1.962573        53.4043 
 158   0.0000       1.965442        53.4824 
 159   0.0000       1.974990        53.7422 
 160   0.0000       1.985262        54.0217 
 161   0.0000       2.017041        54.8865 
 162   0.0000       2.075039        56.4647 
 163   0.0000       2.076101        56.4936 
 164   0.0000       2.113115        57.5008 
 165   0.0000       2.134695        58.0880 
 166   0.0000       2.143874        58.3378 
 167   0.0000       2.154570        58.6288 
 168   0.0000       2.157380        58.7053 
 169   0.0000       2.157994        58.7220 
 170   0.0000       2.187405        59.5223 
 171   0.0000       2.242768        61.0288 
 172   0.0000       2.251847        61.2759 
 173   0.0000       2.275518        61.9200 
 174   0.0000       2.305251        62.7291 
 175   0.0000       2.307921        62.8017 
 176   0.0000       2.308234        62.8102 
 177   0.0000       2.323031        63.2129 
 178   0.0000       2.390741        65.0554 
 179   0.0000       2.439139        66.3723 
 180   0.0000       2.523063        68.6560 
 181   0.0000       2.572447        69.9998 
 182   0.0000       2.576692        70.1154 
 183   0.0000       2.609021        70.9951 
 184   0.0000       2.609631        71.0117 
 185   0.0000       2.640378        71.8483 
 186   0.0000       2.655810        72.2683 
 187   0.0000       2.677631        72.8620 
 188   0.0000       2.710982        73.7696 
 189   0.0000       2.728345        74.2420 
 190   0.0000       2.739342        74.5413 
 191   0.0000       2.739395        74.5427 
 192   0.0000       2.751716        74.8780 
 193   0.0000       2.757484        75.0350 
 194   0.0000       2.785533        75.7982 
 195   0.0000       2.855413        77.6997 
 196   0.0000       2.952294        80.3360 
 197   0.0000       2.993742        81.4639 
 198   0.0000       3.102538        84.4243 
 199   0.0000       3.269543        88.9688 
 200   0.0000       3.404990        92.6545 
 201   0.0000       3.442998        93.6887 
------------------
MOLECULAR ORBITALS
------------------
                      0         1         2         3         4         5   
                 -19.17747 -10.24217 -10.24215 -10.18397 -10.18396 -10.18338
                   2.00000   2.00000   2.00000   2.00000   2.00000   2.00000
                  --------  --------  --------  --------  --------  --------
  0C   1s         0.000040 -0.003397  0.000292 -0.066821  0.002768  0.000109
  0C   2s         0.000456  0.002027 -0.000511 -0.000303  0.000058  0.000005
  0C   1pz       -0.000000  0.000611  0.000076 -0.000224  0.000023  0.000007
  0C   1px       -0.000137  0.000723  0.000167 -0.001121  0.000040 -0.000001
  0C   1py       -0.000065 -0.000601  0.000083 -0.000686  0.000003 -0.000019
  0C   3s        -0.006841 -0.017928  0.006622 -0.010950 -0.000236  0.000186
  0C   2pz       -0.001034 -0.005094  0.000498 -0.001174 -0.000221  0.000097
  0C   2px        0.004745 -0.000742 -0.000528  0.002482  0.000122  0.000151
  0C   2py        0.006437  0.008820 -0.000954  0.004659  0.000540 -0.000000
  0C   1dz2       0.000031  0.000013 -0.000035 -0.000555  0.000035  0.000005
  0C   1dxz       0.000118  0.000848 -0.000040  0.000285 -0.000017 -0.000002
  0C   1dyz       0.000211 -0.000321  0.000085  0.000239 -0.000005 -0.000005
  0C   1dx2y2     0.000262  0.000470  0.000078  0.000530 -0.000005 -0.000007
  0C   1dxy      -0.000014 -0.000582  0.000264  0.000926 -0.000037 -0.000009
  1C   1s        -0.000092 -0.990089  0.100133  0.000201 -0.000023 -0.000003
  1C   2s        -0.001037 -0.037447  0.003959  0.000231  0.000072  0.000076
  1C   1pz        0.000007 -0.000209 -0.000046 -0.000140  0.000038  0.000004
  1C   1px       -0.000310 -0.001126  0.000131 -0.000228  0.000014  0.000022
  1C   1py       -0.000145 -0.000777  0.000363  0.000009  0.000062 -0.000022
  1C   3s        -0.001830  0.028918 -0.000564  0.004489 -0.000212  0.000348
  1C   2pz       -0.001629 -0.003967  0.002183 -0.000549 -0.000295  0.000294
  1C   2px       -0.011278 -0.015202  0.002465 -0.001074 -0.001006  0.000554
  1C   2py       -0.008067 -0.005635 -0.003862 -0.000097 -0.000731 -0.000058
  1C   1dz2       0.000035  0.000830 -0.000016 -0.000004  0.000037 -0.000021
  1C   1dxz      -0.000098 -0.000685 -0.000013  0.000089 -0.000012  0.000013
  1C   1dyz       0.000167  0.000440 -0.000150  0.000030 -0.000012  0.000006
  1C   1dx2y2     0.000146 -0.000515  0.000092  0.000131 -0.000032  0.000034
  1C   1dxy      -0.000151 -0.000855  0.000047 -0.000039 -0.000015  0.000021
  2C   1s        -0.000028  0.000009  0.000059 -0.991361  0.041208  0.001094
  2C   2s        -0.000123  0.000085  0.000220 -0.036133  0.001476  0.000042
  2C   1pz        0.000099  0.000155 -0.000024 -0.000460  0.000018  0.000012
  2C   1px        0.000214  0.000349 -0.000076 -0.000598  0.000039 -0.000003
  2C   1py        0.000017  0.000103 -0.000092  0.000292 -0.000008 -0.000021
  2C   3s         0.007238  0.008216 -0.002505  0.031183 -0.000585  0.000232
  2C   2pz        0.000972  0.002043 -0.000442  0.003808  0.000056  0.000063
  2C   2px        0.002926  0.002914 -0.001550  0.004774  0.000106  0.000127
  2C   2py        0.001065 -0.001202 -0.000651 -0.002591  0.000023 -0.000013
  2C   1dz2      -0.000014 -0.000001  0.000068  0.000355 -0.000017  0.000000
  2C   1dxz       0.000028 -0.000051 -0.000035 -0.000111  0.000008 -0.000002
  2C   1dyz       0.000026  0.000083 -0.000018  0.000304 -0.000014 -0.000005
  2C   1dx2y2     0.000039  0.000042 -0.000042  0.000170 -0.000004 -0.000005
  2C   1dxy       0.000027  0.000025 -0.000096 -0.000451  0.000023 -0.000001
  3C   1s         0.000035  0.000231 -0.000024 -0.034663  0.001491 -0.002979
  3C   2s         0.000312  0.000708 -0.000072  0.000864 -0.000001  0.000044
  3C   1pz        0.000036  0.000062 -0.000077 -0.000524  0.000024  0.000058
  3C   1px        0.000113  0.000193 -0.000062  0.000193 -0.000000  0.000071
  3C   1py        0.000041  0.000099  0.000053  0.001179 -0.000050 -0.000041
  3C   3s        -0.002447 -0.005545  0.000030 -0.011619  0.000080 -0.000830
  3C   2pz       -0.000702 -0.000516  0.000340  0.000465 -0.000045 -0.000187
  3C   2px       -0.002144 -0.003265  0.000423 -0.003781 -0.000085 -0.000396
  3C   2py       -0.000788 -0.002266 -0.000159 -0.004548  0.000024 -0.000033
  3C   1dz2       0.000019  0.000045 -0.000007 -0.000256  0.000016  0.000002
  3C   1dxz      -0.000040 -0.000080  0.000003 -0.000110  0.000002  0.000072
  3C   1dyz       0.000049  0.000114 -0.000013 -0.000852  0.000041 -0.000042
  3C   1dx2y2     0.000010  0.000031 -0.000012 -0.000911  0.000040  0.000028
  3C   1dxy       0.000006 -0.000014  0.000010  0.000139 -0.000006 -0.000055
  4C   1s        -0.000008  0.000029 -0.000049 -0.010516  0.000603 -0.078636
  4C   2s         0.000040  0.000162 -0.000210 -0.000267  0.000010 -0.002882
  4C   1pz       -0.000040 -0.000052  0.000035 -0.000172  0.000006  0.000026
  4C   1px        0.000117  0.000188  0.000087 -0.000152  0.000012 -0.000013
  4C   1py        0.000187  0.000294 -0.000021  0.000175  0.000006 -0.000067
  4C   3s         0.005511  0.007556  0.001371  0.004801  0.000374  0.002381
  4C   2pz       -0.000483 -0.000831 -0.000176 -0.000928 -0.000038 -0.000225
  4C   2px        0.000696  0.001000  0.000800  0.000320  0.000109  0.000024
  4C   2py        0.001638  0.002755  0.001038  0.002087  0.000108  0.000477
  4C   1dz2       0.000006  0.000039 -0.000057  0.000051 -0.000004  0.000018
  4C   1dxz      -0.000017 -0.000056  0.000008  0.000010 -0.000001 -0.000038
  4C   1dyz       0.000015  0.000084 -0.000011 -0.000001 -0.000001  0.000012
  4C   1dx2y2    -0.000005  0.000006  0.000015  0.000004  0.000005 -0.000027
  4C   1dxy       0.000000  0.000007  0.000068 -0.000094  0.000004 -0.000010
  5C   1s         0.000033 -0.003301  0.000380  0.001098 -0.000074 -0.003601
  5C   2s         0.000383  0.001957  0.000050  0.000553 -0.000007  0.000029
  5C   1pz       -0.000019 -0.000508  0.000053 -0.000107 -0.000003 -0.000013
  5C   1px       -0.000049  0.000075 -0.000165 -0.000129  0.000003 -0.000093
  5C   1py       -0.000002  0.001096 -0.000300  0.000078 -0.000024 -0.000052
  5C   3s        -0.006382 -0.013568 -0.004353 -0.003306 -0.000470 -0.000905
  5C   2pz        0.003193  0.004765  0.001158  0.001352  0.000308  0.000111
  5C   2px        0.005156  0.006311  0.000851  0.001934  0.000396  0.000199
  5C   2py       -0.000955 -0.003531 -0.000704 -0.000642  0.000010 -0.000051
  5C   1dz2      -0.000051 -0.000300  0.000047  0.000041 -0.000008 -0.000047
  5C   1dxz      -0.000188 -0.000227 -0.000001 -0.000041 -0.000006  0.000024
  5C   1dyz       0.000094 -0.000690  0.000089  0.000040  0.000015  0.000007
  5C   1dx2y2    -0.000100 -0.000827  0.000085 -0.000003 -0.000003  0.000032
  5C   1dxy       0.000201  0.000420 -0.000129 -0.000039  0.000006  0.000073
  6O   1s        -0.995275 -0.000216 -0.000177  0.000004  0.000004 -0.000006
  6O   2s        -0.032032 -0.002156 -0.001761  0.000077  0.000071 -0.000108
  6O   1pz        0.000054 -0.000161  0.000195 -0.000021  0.000021  0.000019
  6O   1px        0.001449 -0.000011 -0.000072 -0.000048  0.000008 -0.000053
  6O   1py       -0.000945  0.000066 -0.000024 -0.000027  0.000058 -0.000070
  6O   3s         0.032025  0.009775  0.007982  0.000122  0.000113  0.000211
  6O   2pz       -0.000210 -0.000001 -0.000225  0.000199 -0.000206 -0.000084
  6O   2px       -0.005589 -0.006030  0.001361  0.000516 -0.000300  0.000526
  6O   2py        0.003645 -0.002785  0.007345  0.000518 -0.000733  0.000754
  6O   1dz2      -0.000577 -0.001316 -0.001096  0.000030  0.000030 -0.000020
  6O   1dxz       0.000184  0.000474  0.000007 -0.000033  0.000010 -0.000000
  6O   1dyz       0.000241  0.000301  0.000376 -0.000008 -0.000027 -0.000004
  6O   1dx2y2    -0.000123  0.001005 -0.002056 -0.000070  0.000093 -0.000081
  6O   1dxy       0.000257  0.001508 -0.000048 -0.000053  0.000022 -0.000002
  7H   1s        -0.000419 -0.000049  0.000174  0.000236 -0.000043 -0.000007
  7H   2s        -0.001815 -0.002635 -0.001040 -0.001159 -0.000302 -0.000000
  8H   1s        -0.000079  0.000064 -0.000006  0.001343 -0.000050  0.000000
  8H   2s         0.000145  0.000385 -0.000154 -0.002809  0.000203  0.000031
  9H   1s        -0.000121 -0.000136  0.000030  0.000183 -0.000019  0.000015
  9H   2s        -0.000683 -0.001171  0.000135 -0.001292 -0.000025 -0.000085
 10H   1s        -0.000266 -0.000073 -0.000114 -0.000086 -0.000024  0.000027
 10H   2s        -0.001867 -0.002343 -0.000176 -0.000727 -0.000150 -0.000020
 11H   1s        -0.000039  0.000013  0.000037  0.000064 -0.000004  0.000108
 11H   2s         0.000057  0.000160  0.000318  0.000230  0.000016 -0.000207
 12C   1s        -0.000092 -0.100077 -0.990094 -0.000006  0.000200 -0.000097
 12C   2s        -0.001037 -0.003617 -0.037481  0.000090  0.000223 -0.000186
 12C   1pz       -0.000019  0.000075  0.000164 -0.000029  0.000129  0.000052
 12C   1px        0.000009 -0.000227  0.000299 -0.000058 -0.000102 -0.000161
 12C   1py        0.000341  0.000011  0.001376 -0.000022  0.000212 -0.000152
 12C   3s        -0.001830  0.005241  0.028440  0.000165  0.004500 -0.004974
 12C   2pz        0.001310 -0.001205  0.003672  0.000308  0.000474  0.000433
 12C   2px        0.002764  0.004314 -0.002064  0.000217 -0.000393 -0.001217
 12C   2py        0.013620  0.002514  0.016137  0.001310  0.000939 -0.001242
 12C   1dz2       0.000054  0.000160  0.000903  0.000037 -0.000013  0.000045
 12C   1dxz       0.000196  0.000000  0.000670 -0.000009 -0.000006 -0.000017
 12C   1dyz      -0.000030 -0.000152 -0.000351 -0.000005  0.000085  0.000058
 12C   1dx2y2     0.000003  0.000107  0.000954  0.000029 -0.000065  0.000037
 12C   1dxy      -0.000201 -0.000066 -0.000143  0.000003 -0.000128 -0.000098
 13C   1s         0.000040 -0.000393 -0.003385 -0.002760 -0.066140 -0.003900
 13C   2s         0.000456 -0.000095  0.002089  0.000034 -0.000281 -0.000600
 13C   1pz       -0.000005 -0.000179 -0.000526 -0.000005  0.000189  0.000074
 13C   1px        0.000005  0.000170  0.000856  0.000028  0.000164 -0.000146
 13C   1py        0.000152 -0.000273 -0.000393  0.000070  0.001309 -0.000050
 13C   3s        -0.006839  0.002902 -0.018894 -0.001147 -0.010917  0.003065
 13C   2pz        0.001055  0.000469  0.004736  0.000304  0.001120 -0.000763
 13C   2px       -0.004035 -0.001058 -0.008598 -0.000734 -0.003283  0.001811
 13C   2py       -0.006903  0.000293 -0.002823 -0.000662 -0.004070  0.001546
 13C   1dz2       0.000033 -0.000042 -0.000075 -0.000011 -0.000567 -0.000059
 13C   1dxz       0.000141 -0.000043 -0.000603  0.000009  0.000091 -0.000052
 13C   1dyz       0.000178  0.000116  0.000597  0.000010  0.000301  0.000031
 13C   1dx2y2    -0.000181 -0.000222  0.000171 -0.000056 -0.001056 -0.000047
 13C   1dxy      -0.000207 -0.000038 -0.000804 -0.000002  0.000222  0.000013
 14C   1s        -0.000028  0.000059 -0.000003 -0.041223 -0.991401 -0.011665
 14C   2s        -0.000123  0.000233  0.000040 -0.001529 -0.036134 -0.000531
 14C   1pz       -0.000088 -0.000006 -0.000141  0.000019  0.000416  0.000148
 14C   1px        0.000076  0.000062  0.000042 -0.000021 -0.000531 -0.000263
 14C   1py       -0.000206  0.000032 -0.000380  0.000004  0.000447 -0.000048
 14C   3s         0.007240 -0.000811  0.008554  0.002007  0.031135 -0.004267
 14C   2pz       -0.000853  0.000005 -0.001883 -0.000339 -0.003444  0.001146
 14C   2px        0.000252  0.000429  0.002339  0.000399  0.004474 -0.001405
 14C   2py       -0.003139  0.001212 -0.002544 -0.000394 -0.003432  0.001323
 14C   1dz2      -0.000015  0.000071 -0.000006  0.000013  0.000384 -0.000026
 14C   1dxz       0.000011  0.000017  0.000093  0.000011  0.000315  0.000011
 14C   1dyz       0.000033 -0.000036 -0.000008  0.000004  0.000027  0.000053
 14C   1dx2y2    -0.000049  0.000088 -0.000070  0.000004  0.000200 -0.000080
 14C   1dxy      -0.000012 -0.000033 -0.000003 -0.000017 -0.000421 -0.000040
 15C   1s         0.000035  0.000023  0.000231 -0.001395 -0.034766  0.037340
 15C   2s         0.000312  0.000071  0.000709  0.000071  0.000858 -0.000718
 15C   1pz       -0.000032  0.000059 -0.000069  0.000019  0.000492  0.000679
 15C   1px        0.000009 -0.000077  0.000006 -0.000038 -0.001029 -0.000870
 15C   1py       -0.000121 -0.000007 -0.000222 -0.000033 -0.000634  0.000697
 15C   3s        -0.002448 -0.001082 -0.005438 -0.000887 -0.011590  0.011498
 15C   2pz        0.000616 -0.000221  0.000476 -0.000002 -0.000505 -0.002036
 15C   2px       -0.000178  0.000475  0.000653  0.000163  0.002663  0.001414
 15C   2py        0.002302  0.000457  0.003906  0.000508  0.005253 -0.005424
 15C   1dz2       0.000025  0.000004  0.000060 -0.000007 -0.000299  0.000069
 15C   1dxz       0.000058  0.000013  0.000132 -0.000023 -0.000708  0.000769
 15C   1dyz      -0.000016 -0.000007 -0.000025 -0.000017 -0.000401 -0.000578
 15C   1dx2y2    -0.000014 -0.000002 -0.000017  0.000022  0.000566 -0.000276
 15C   1dxy      -0.000000  0.000010 -0.000029  0.000030  0.000764  0.000795
 16C   1s        -0.000008 -0.000042  0.000038 -0.000278 -0.010672  0.990184
 16C   2s         0.000040 -0.000174  0.000201 -0.000013 -0.000272  0.036140
 16C   1pz        0.000040 -0.000019  0.000056  0.000008  0.000157  0.000298
 16C   1px       -0.000126  0.000016 -0.000204 -0.000019 -0.000230 -0.000659
 16C   1py       -0.000181 -0.000129 -0.000268 -0.000008  0.000075 -0.000404
 16C   3s         0.005511  0.002858  0.007130  0.000774  0.004760 -0.031365
 16C   2pz        0.000461  0.000335  0.000732  0.000113  0.000864 -0.002690
 16C   2px       -0.001244 -0.001058 -0.001990 -0.000210 -0.001821  0.005538
 16C   2py       -0.001281 -0.001522 -0.001729 -0.000234 -0.001089  0.002950
 16C   1dz2       0.000009 -0.000048  0.000060  0.000001  0.000050 -0.000310
 16C   1dxz       0.000020  0.000007  0.000095 -0.000001 -0.000004 -0.000340
 16C   1dyz      -0.000009 -0.000003 -0.000014 -0.000001  0.000011  0.000356
 16C   1dx2y2     0.000003 -0.000061 -0.000002 -0.000001  0.000067 -0.000331
 16C   1dxy       0.000005  0.000034 -0.000003 -0.000007 -0.000067 -0.000173
 17C   1s         0.000033 -0.000288 -0.003311  0.000017  0.001093  0.045527
 17C   2s         0.000383  0.000441  0.001907  0.000039  0.000551 -0.000499
 17C   1pz        0.000017  0.000044  0.000473  0.000012  0.000097 -0.000180
 17C   1px       -0.000019  0.000006 -0.001022  0.000012 -0.000130 -0.000172
 17C   1py        0.000047  0.000166 -0.000538  0.000015  0.000089 -0.001316
 17C   3s        -0.006383 -0.006988 -0.012421 -0.000746 -0.003260  0.012008
 17C   2pz       -0.002880 -0.001926 -0.003995 -0.000388 -0.001198  0.002492
 17C   2px        0.003114  0.002233  0.005684  0.000286  0.001418 -0.002566
 17C   2py       -0.004438 -0.001427 -0.004313 -0.000506 -0.001522  0.004233
 17C   1dz2      -0.000029 -0.000013 -0.000326 -0.000002  0.000047  0.000586
 17C   1dxz       0.000154 -0.000023 -0.000534  0.000020  0.000050 -0.000095
 17C   1dyz      -0.000128 -0.000059 -0.000445 -0.000002 -0.000019 -0.000249
 17C   1dx2y2    -0.000085  0.000090  0.000281 -0.000001  0.000029  0.001040
 17C   1dxy       0.000222  0.000034  0.000911  0.000005 -0.000022 -0.000334
 18H   1s        -0.000419  0.000160 -0.000083 -0.000023  0.000238  0.000108
 18H   2s        -0.001815 -0.001551 -0.002374 -0.000399 -0.001128  0.000729
 19H   1s        -0.000079  0.000007  0.000064  0.000062  0.001342 -0.000034
 19H   2s         0.000145 -0.000073  0.000408 -0.000030 -0.002815 -0.000313
 20H   1s        -0.000121  0.000002 -0.000139 -0.000004  0.000184 -0.000183
 20H   2s        -0.000683 -0.000103 -0.001175 -0.000133 -0.001286  0.001287
 21H   1s        -0.000266 -0.000127 -0.000049 -0.000031 -0.000083 -0.000221
 21H   2s        -0.001867 -0.000642 -0.002261 -0.000210 -0.000713  0.001190
 22H   1s        -0.000039  0.000039  0.000005  0.000002  0.000064 -0.001352
 22H   2s         0.000058  0.000343  0.000092  0.000035  0.000228  0.002748
                      6         7         8         9        10        11   
                 -10.18338 -10.18073 -10.18069 -10.17860 -10.17860 -10.17771
                   2.00000   2.00000   2.00000   2.00000   2.00000   2.00000
                  --------  --------  --------  --------  --------  --------
  0C   1s         0.003977  0.992206  0.036675  0.000354 -0.000595 -0.000022
  0C   2s         0.000609  0.036856  0.001326  0.000004 -0.000042 -0.000028
  0C   1pz        0.000080  0.000549 -0.000135 -0.000114 -0.000016  0.000005
  0C   1px        0.000009 -0.000113 -0.000073 -0.000070  0.000025 -0.000004
  0C   1py       -0.000150 -0.000825 -0.000121  0.000151  0.000071 -0.000005
  0C   3s        -0.003137 -0.035316 -0.000879 -0.004940  0.000490  0.000361
  0C   2pz       -0.000832 -0.003991  0.001777 -0.001213  0.000131  0.000147
  0C   2px        0.000713  0.000602  0.002245  0.000491 -0.000568  0.000010
  0C   2py        0.002282  0.007500 -0.000124  0.002724 -0.000941 -0.000272
  0C   1dz2       0.000052 -0.000304  0.000033 -0.000048 -0.000026 -0.000001
  0C   1dxz      -0.000054  0.000553  0.000081  0.000035  0.000005  0.000005
  0C   1dyz       0.000036 -0.000145 -0.000111  0.000003 -0.000001 -0.000012
  0C   1dx2y2    -0.000019  0.000403 -0.000030  0.000036 -0.000010 -0.000009
  0C   1dxy      -0.000046  0.000266 -0.000115  0.000069  0.000016 -0.000003
  1C   1s         0.000099 -0.003581 -0.000117 -0.003489 -0.000197 -0.000003
  1C   2s         0.000176 -0.002113  0.000034 -0.002279 -0.000169  0.000012
  1C   1pz        0.000055  0.000858  0.000018 -0.000563 -0.000065  0.000003
  1C   1px       -0.000082  0.000869  0.000004  0.000162 -0.000011 -0.000023
  1C   1py       -0.000206 -0.000422 -0.000056  0.001235  0.000029 -0.000017
  1C   3s         0.004982  0.013389 -0.000963  0.014271  0.000578 -0.000258
  1C   2pz        0.000414 -0.003685  0.001191  0.000951  0.000184  0.000057
  1C   2px       -0.000767 -0.007366  0.002019 -0.003741  0.000713  0.000681
  1C   2py       -0.001609 -0.001049 -0.000683 -0.005541  0.000834  0.000534
  1C   1dz2      -0.000047  0.000018 -0.000016  0.000267 -0.000000 -0.000012
  1C   1dxz      -0.000064 -0.000973 -0.000079  0.000074 -0.000012  0.000001
  1C   1dyz      -0.000009  0.000563  0.000057  0.000891  0.000054  0.000010
  1C   1dx2y2    -0.000050 -0.000403 -0.000015  0.000914  0.000044  0.000011
  1C   1dxy       0.000089  0.000617  0.000094 -0.000108  0.000001  0.000010
  2C   1s         0.011483 -0.066922 -0.002511  0.001846  0.000126  0.000543
  2C   2s         0.000525 -0.004601 -0.000274 -0.000440  0.000037  0.000036
  2C   1pz        0.000160 -0.000278  0.000039 -0.000069 -0.000006  0.000002
  2C   1px        0.000055 -0.001152 -0.000037 -0.000107 -0.000021 -0.000010
  2C   1py       -0.000254 -0.000642  0.000011  0.000024 -0.000009 -0.000017
  2C   3s         0.004289  0.015992  0.001866  0.004809 -0.000958 -0.000354
  2C   2pz        0.001271  0.003651 -0.000296  0.001860 -0.000214 -0.000084
  2C   2px        0.001716  0.006033  0.001134  0.002331 -0.000474 -0.000065
  2C   2py       -0.000718 -0.000699  0.001005 -0.001230 -0.000012  0.000108
  2C   1dz2       0.000024  0.000641 -0.000030 -0.000050  0.000008 -0.000007
  2C   1dxz      -0.000050 -0.000214 -0.000009  0.000044 -0.000007  0.000001
  2C   1dyz      -0.000034 -0.000168 -0.000020 -0.000067  0.000001 -0.000013
  2C   1dx2y2    -0.000080 -0.000426  0.000014 -0.000022 -0.000012 -0.000012
  2C   1dxy      -0.000032 -0.001063  0.000008  0.000037 -0.000008  0.000007
  3C   1s        -0.037279 -0.004650 -0.000186 -0.011154 -0.000959 -0.014512
  3C   2s         0.000723  0.000019  0.000003 -0.000293 -0.000076 -0.000553
  3C   1pz        0.000748  0.000016  0.000001 -0.000082 -0.000006 -0.000001
  3C   1px        0.000951 -0.000094  0.000003 -0.000179 -0.000016 -0.000014
  3C   1py       -0.000490 -0.000124 -0.000016 -0.000022  0.000004 -0.000013
  3C   3s        -0.011515 -0.006489 -0.000087 -0.005943  0.000368  0.000682
  3C   2pz       -0.002292 -0.000330 -0.000328 -0.000652  0.000060  0.000037
  3C   2px       -0.005427 -0.002835 -0.000503 -0.002791  0.000284  0.000188
  3C   2py       -0.000973 -0.002204  0.000379 -0.001473  0.000127  0.000115
  3C   1dz2       0.000039 -0.000014 -0.000010 -0.000025 -0.000006  0.000002
  3C   1dxz       0.000886  0.000053 -0.000000  0.000031  0.000007 -0.000003
  3C   1dyz      -0.000496 -0.000079  0.000003 -0.000064 -0.000012  0.000006
  3C   1dx2y2     0.000371 -0.000019 -0.000018 -0.000035 -0.000002  0.000003
  3C   1dxy      -0.000685 -0.000018 -0.000001  0.000002  0.000002  0.000001
  4C   1s        -0.990185  0.003260  0.000301 -0.045432 -0.002576  0.000571
  4C   2s        -0.036138 -0.000403 -0.000051 -0.003809 -0.000177  0.000054
  4C   1pz        0.000319  0.000034  0.000009 -0.000178 -0.000009 -0.000013
  4C   1px       -0.000120 -0.000032 -0.000029 -0.001116 -0.000071 -0.000025
  4C   1py       -0.000755 -0.000094 -0.000030 -0.000764 -0.000051 -0.000000
  4C   3s         0.031384  0.005630 -0.000137  0.014835 -0.000045 -0.000524
  4C   2pz       -0.002881 -0.001243 -0.000377 -0.001701  0.000089  0.000113
  4C   2px        0.000619  0.000773 -0.000547  0.002770  0.000072 -0.000003
  4C   2py        0.006162  0.003059  0.000098  0.005961 -0.000062 -0.000228
  4C   1dz2       0.000256 -0.000046  0.000004  0.000584  0.000038  0.000000
  4C   1dxz      -0.000503  0.000065  0.000018 -0.000360 -0.000026  0.000014
  4C   1dyz       0.000166 -0.000051 -0.000013 -0.000239 -0.000011 -0.000007
  4C   1dx2y2    -0.000331  0.000024 -0.000002 -0.000581 -0.000038  0.000008
  4C   1dxy      -0.000153  0.000017 -0.000009 -0.000960 -0.000057 -0.000010
  5C   1s        -0.045598 -0.000108  0.000623  0.992449  0.056111  0.000180
  5C   2s         0.000498 -0.000021  0.000046  0.036658  0.002022 -0.000040
  5C   1pz       -0.000216  0.000112  0.000028 -0.000595 -0.000037 -0.000002
  5C   1px       -0.001124  0.000062  0.000028 -0.000700 -0.000030  0.000007
  5C   1py       -0.000695 -0.000182  0.000036  0.000376  0.000035  0.000002
  5C   3s        -0.012014 -0.005251 -0.000253 -0.034232 -0.000809  0.000625
  5C   2pz        0.002786  0.001993 -0.000214  0.004631 -0.000208 -0.000275
  5C   2px        0.004797  0.003026 -0.001015  0.005429 -0.000216 -0.000341
  5C   2py       -0.000551 -0.000431 -0.000610 -0.003335  0.000036  0.000215
  5C   1dz2      -0.000579 -0.000071  0.000001 -0.000439 -0.000018 -0.000004
  5C   1dxz       0.000231  0.000023  0.000019  0.000151  0.000018  0.000008
  5C   1dyz       0.000221  0.000016 -0.000001 -0.000288 -0.000032 -0.000012
  5C   1dx2y2     0.000438  0.000009  0.000007 -0.000122 -0.000002 -0.000004
  5C   1dxy       0.000990  0.000074 -0.000015  0.000566  0.000034 -0.000005
  6O   1s         0.000007 -0.000009 -0.000009  0.000004  0.000005 -0.000010
  6O   2s         0.000126 -0.000257 -0.000277 -0.000083 -0.000093 -0.000157
  6O   1pz        0.000017  0.000044 -0.000038  0.000022 -0.000018 -0.000011
  6O   1px       -0.000036  0.000106 -0.000029  0.000067 -0.000022 -0.000020
  6O   1py       -0.000066  0.000089 -0.000129  0.000063 -0.000080 -0.000026
  6O   3s        -0.000247  0.001000  0.001076 -0.000119 -0.000133  0.001079
  6O   2pz       -0.000073  0.000108 -0.000105 -0.000166  0.000152  0.000105
  6O   2px        0.000405 -0.000744  0.000574 -0.000032  0.000143  0.000229
  6O   2py        0.000671 -0.001007  0.001010 -0.000184  0.000089  0.000568
  6O   1dz2       0.000024 -0.000030 -0.000041 -0.000011 -0.000023  0.000005
  6O   1dxz       0.000001  0.000015 -0.000112  0.000040 -0.000111 -0.000005
  6O   1dyz      -0.000001 -0.000118 -0.000044 -0.000113 -0.000019 -0.000005
  6O   1dx2y2    -0.000044  0.000004 -0.000016 -0.000057  0.000063 -0.000028
  6O   1dxy      -0.000059  0.000027  0.000015 -0.000032  0.000013 -0.000014
  7H   1s        -0.000108 -0.001273 -0.000389 -0.000074  0.000045  0.000009
  7H   2s        -0.000738  0.002322  0.001512 -0.000592  0.000478  0.000103
  8H   1s         0.000035 -0.000032 -0.000052  0.000095 -0.000001 -0.000000
  8H   2s         0.000312  0.001102 -0.000045  0.000901 -0.000113 -0.000008
  9H   1s         0.000183 -0.000065 -0.000027 -0.000043  0.000017  0.000021
  9H   2s        -0.001290 -0.000631 -0.000070 -0.000552  0.000093 -0.000008
 10H   1s         0.000219 -0.000135  0.000062 -0.001321 -0.000050  0.000011
 10H   2s        -0.001203 -0.000668  0.000306  0.002605  0.000350  0.000164
 11H   1s         0.001352  0.000072  0.000019 -0.000058 -0.000010 -0.000003
 11H   2s        -0.002749  0.000875  0.000106  0.001147 -0.000024 -0.000043
 12C   1s         0.000018  0.000148 -0.003579  0.000198 -0.003489  0.000048
 12C   2s        -0.000048  0.000191 -0.002105  0.000089 -0.002283 -0.000652
 12C   1pz       -0.000006  0.000043 -0.000794  0.000004  0.000531 -0.000021
 12C   1px       -0.000004 -0.000004  0.000783  0.000090 -0.001091 -0.000041
 12C   1py        0.000036  0.000066 -0.000651  0.000071 -0.000623 -0.000120
 12C   3s         0.000443 -0.001957  0.013280 -0.001038  0.014243  0.005895
 12C   2pz        0.000196 -0.001300  0.003235 -0.000066 -0.000966  0.000675
 12C   2px       -0.000100  0.001655 -0.002076 -0.000872  0.003541  0.000495
 12C   2py        0.000697 -0.002149  0.007142 -0.001625  0.005473  0.004538
 12C   1dz2       0.000014 -0.000016  0.000137 -0.000031  0.000313 -0.000014
 12C   1dxz       0.000002  0.000015  0.000867 -0.000032  0.000755 -0.000066
 12C   1dyz      -0.000021 -0.000001 -0.000628 -0.000035  0.000383  0.000018
 12C   1dx2y2     0.000034 -0.000047 -0.000212  0.000033 -0.000593  0.000036
 12C   1dxy       0.000027  0.000022  0.000783  0.000054 -0.000741  0.000014
 13C   1s         0.000514 -0.036688  0.992251 -0.000646  0.000288  0.002556
 13C   2s         0.000091 -0.001399  0.036854 -0.000043 -0.000001  0.000254
 13C   1pz       -0.000006  0.000174 -0.000513  0.000002  0.000106  0.000026
 13C   1px        0.000005  0.000019  0.000742 -0.000036 -0.000177 -0.000105
 13C   1py       -0.000000  0.000089  0.000425 -0.000052  0.000001 -0.000135
 13C   3s        -0.000678  0.001732 -0.035275  0.001045 -0.004850 -0.007124
 13C   2pz        0.000212 -0.001927  0.003616 -0.000256  0.001118  0.001523
 13C   2px       -0.000356  0.001616 -0.006726  0.000903 -0.002270 -0.003129
 13C   2py       -0.000104 -0.001803 -0.003580  0.001060 -0.001395 -0.002097
 13C   1dz2       0.000005  0.000046 -0.000360 -0.000020 -0.000054 -0.000028
 13C   1dxz       0.000012 -0.000103 -0.000353  0.000000 -0.000012 -0.000044
 13C   1dyz      -0.000002  0.000002  0.000406  0.000000  0.000029  0.000051
 13C   1dx2y2    -0.000004  0.000145 -0.000453  0.000003 -0.000076 -0.000027
 13C   1dxy      -0.000001 -0.000050 -0.000157  0.000016  0.000020 -0.000045
 14C   1s         0.000744  0.002412 -0.066244 -0.000082  0.001855 -0.034758
 14C   2s         0.000042  0.000066 -0.004583  0.000086 -0.000432 -0.003429
 14C   1pz       -0.000013 -0.000059  0.000235 -0.000002  0.000062  0.000541
 14C   1px        0.000023 -0.000031  0.000108  0.000007 -0.000068 -0.001078
 14C   1py       -0.000004 -0.000069  0.001320  0.000013  0.000093 -0.000567
 14C   3s         0.000448  0.000678  0.016064 -0.001496  0.004666  0.015516
 14C   2pz       -0.000126  0.000565 -0.003266  0.000380 -0.001657 -0.003836
 14C   2px        0.000158 -0.000721  0.003206 -0.000435  0.002122  0.005692
 14C   2py       -0.000097 -0.001033 -0.005448  0.000635 -0.001637 -0.001561
 14C   1dz2       0.000004 -0.000078  0.000645  0.000015 -0.000057  0.000380
 14C   1dxz       0.000002 -0.000008 -0.000057  0.000012 -0.000075  0.000647
 14C   1dyz      -0.000005 -0.000003 -0.000211 -0.000006  0.000011  0.000441
 14C   1dx2y2     0.000008 -0.000094  0.001079  0.000015 -0.000007 -0.000416
 14C   1dxy       0.000004  0.000025 -0.000392 -0.000001  0.000038 -0.000909
 15C   1s        -0.002947  0.000159 -0.004681  0.000313 -0.011397  0.993650
 15C   2s         0.000070  0.000001  0.000016 -0.000042 -0.000307  0.036641
 15C   1pz       -0.000055  0.000001 -0.000017 -0.000003  0.000074 -0.000127
 15C   1px        0.000069  0.000010  0.000078 -0.000004 -0.000057 -0.000124
 15C   1py       -0.000060 -0.000006  0.000136 -0.000006  0.000176 -0.000931
 15C   3s        -0.000998  0.000397 -0.006469  0.001038 -0.005856 -0.034320
 15C   2pz        0.000156  0.000267  0.000279 -0.000112  0.000546  0.001074
 15C   2px       -0.000086 -0.000629  0.000814 -0.000021  0.000191  0.001072
 15C   2py        0.000481  0.000057  0.003503 -0.000669  0.003110  0.008054
 15C   1dz2      -0.000004 -0.000008 -0.000024 -0.000003 -0.000032 -0.000252
 15C   1dxz      -0.000058  0.000011 -0.000089 -0.000005 -0.000069 -0.000708
 15C   1dyz       0.000046  0.000000  0.000016  0.000001  0.000003  0.000119
 15C   1dx2y2     0.000020  0.000011  0.000031 -0.000002  0.000026  0.000273
 15C   1dxy      -0.000064  0.000013 -0.000002 -0.000001  0.000025  0.000025
 16C   1s        -0.078635  0.000064  0.003229  0.002558 -0.045356 -0.038485
 16C   2s        -0.002858 -0.000021 -0.000407  0.000253 -0.003802 -0.003582
 16C   1pz       -0.000023 -0.000007 -0.000033 -0.000010  0.000146 -0.000703
 16C   1px        0.000047  0.000011  0.000076 -0.000010  0.000242  0.000922
 16C   1py        0.000026  0.000033  0.000069 -0.000065  0.001336 -0.000650
 16C   3s         0.002602 -0.000555  0.005601 -0.001719  0.014729  0.015772
 16C   2pz        0.000219  0.000255  0.001195 -0.000267  0.001613  0.003440
 16C   2px       -0.000441 -0.000138 -0.002569  0.000591 -0.004390 -0.006062
 16C   2py       -0.000262  0.000613 -0.001857  0.000507 -0.004852 -0.001139
 16C   1dz2       0.000027  0.000005 -0.000054 -0.000028  0.000602  0.000129
 16C   1dxz       0.000029 -0.000014 -0.000071  0.000008 -0.000062  0.000741
 16C   1dyz      -0.000030  0.000009  0.000036  0.000018 -0.000364 -0.000673
 16C   1dx2y2     0.000027  0.000011 -0.000026 -0.000058  0.001118 -0.000095
 16C   1dxy       0.000012 -0.000005 -0.000010  0.000013 -0.000201  0.000854
 17C   1s        -0.003636  0.000615 -0.000072 -0.056134  0.992449  0.009748
 17C   2s         0.000050  0.000046 -0.000018 -0.002124  0.036652  0.000511
 17C   1pz        0.000018 -0.000020 -0.000104 -0.000027  0.000544 -0.000061
 17C   1px        0.000018 -0.000035  0.000195  0.000028 -0.000658  0.000063
 17C   1py        0.000103 -0.000042  0.000010 -0.000043  0.000507 -0.000130
 17C   3s        -0.001003  0.000142 -0.005255  0.003059 -0.034102 -0.007298
 17C   2pz       -0.000299  0.000317 -0.001794  0.000670 -0.004169 -0.002086
 17C   2px        0.000277  0.000009  0.001721 -0.000749  0.005425  0.002463
 17C   2py       -0.000508  0.001376 -0.002564  0.000616 -0.003730 -0.002569
 17C   1dz2      -0.000045  0.000004 -0.000072  0.000031 -0.000469 -0.000049
 17C   1dxz       0.000019 -0.000008  0.000007 -0.000001 -0.000318 -0.000041
 17C   1dyz       0.000019  0.000014  0.000025  0.000002  0.000009 -0.000015
 17C   1dx2y2    -0.000089  0.000011 -0.000061  0.000015 -0.000318 -0.000008
 17C   1dxy       0.000029 -0.000020  0.000041 -0.000029  0.000460  0.000066
 18H   1s        -0.000010 -0.000294 -0.001299  0.000053 -0.000068 -0.000103
 18H   2s        -0.000116  0.001342  0.002429  0.000543 -0.000534 -0.000764
 19H   1s         0.000005 -0.000049 -0.000037 -0.000012  0.000095 -0.000083
 19H   2s         0.000019 -0.000127  0.001097 -0.000214  0.000882  0.001195
 20H   1s         0.000014 -0.000022 -0.000067  0.000022 -0.000041 -0.001351
 20H   2s        -0.000119 -0.000023 -0.000633  0.000155 -0.000538  0.002481
 21H   1s         0.000008  0.000072 -0.000130  0.000100 -0.001318 -0.000122
 21H   2s        -0.000170  0.000355 -0.000643  0.000054  0.002628 -0.000719
 22H   1s         0.000106  0.000013  0.000074 -0.000003 -0.000059 -0.000082
 22H   2s        -0.000230  0.000040  0.000880 -0.000153  0.001137  0.001192
                     12        13        14        15        16        17   
                 -10.17770  -1.07065  -0.85496  -0.84088  -0.75867  -0.74559
                   2.00000   2.00000   2.00000   2.00000   2.00000   2.00000
                  --------  --------  --------  --------  --------  --------
  0C   1s         0.002510 -0.014126 -0.065452 -0.064342  0.003466  0.086818
  0C   2s         0.000252  0.028342  0.124929  0.120950 -0.008320 -0.168382
  0C   1pz       -0.000027  0.010806  0.021353  0.014586 -0.029991  0.002847
  0C   1px        0.000083  0.017046  0.001079 -0.014872 -0.067221  0.023651
  0C   1py        0.000150 -0.003173 -0.040104 -0.039754 -0.006300  0.012906
  0C   3s        -0.007111 -0.012217  0.059602  0.078934  0.005176 -0.130409
  0C   2pz       -0.001611 -0.003196 -0.004084  0.000967  0.001349  0.002699
  0C   2px        0.000743  0.016875  0.000556 -0.004299 -0.007022  0.002502
  0C   2py        0.003644  0.021900  0.005769 -0.003931 -0.006196 -0.006948
  0C   1dz2      -0.000021 -0.000492 -0.002796 -0.002996 -0.001764  0.003710
[...]
Average number of large basis fcns per batch ...    94.62 (73.08%)
Maximum spatial batch extension              ...  19.38, 17.11, 23.73 au
Average spatial batch extension              ...   5.00,  4.46,  5.41 au


---------------
TD-DFT XC SETUP
---------------

DFT calculation                         ... on
Name of the grid file                   ... /Users/lailaal-madhagi/Desktop/Testing_XAS_Analysis_code/PhenylEther//Results_dir_PhenylEther_geom_element_C_2019-11-18_18-47-34//GTE1_PhenylEther_geom_2019-11-18_18-48-25//TDDFT_C-edge.grid_cis.tmp
Exchange functional (SCF)               ... B88
Exchange functional (TD-DFT)            ... B88
   X-Alpha parameter    XAlpha (SCF)    ...  0.666667
   X-Alpha parameter    XAlpha (TD-DFT) ...  0.666667
   Becke's b parameter  XBeta (SCF)     ...  0.004200
   Becke's b parameter  XBeta (TD-DFT)  ...  0.004200
Correlation functional (SCF)            ... LYP
Correlation functional (TD-DFT)         ... LYP
 LDA part of GGA corr.  LDAOpt (SCF)    ... VWN-5
 LDA part of GGA corr.  LDAOpt (TD-DFT) ... VWN-5
Hybrid DFT                              ... on
   Exchange mixing (SCF)                ...  0.200
   Exchange mixing (TD-DFT)             ...  0.200
   GGA exch. scaling(SCF)               ...  0.720
   GGA exch. scaling (TD-DFT)           ...  0.720
   GGA corr. scaling (SCF)              ...  0.810
   GGA corr. scaling (TD-DFT)           ...  0.810

Building densities             ... done
Calculating rho(r) on the grid ... done
Building xc-kernel on the grid ... done
                    *** TD-DFT CALCULATION INITIALIZED ***


------------------------
DAVIDSON-DIAGONALIZATION
------------------------

Dimension of the eigenvalue problem            ...   1884
Number of roots to be determined               ...     20
Maximum size of the expansion space            ...   1884
Maximum number of iterations                   ...    100
Convergence tolerance for the residual         ...    2.500e-07
Convergence tolerance for the energies         ...    2.500e-07
Orthogonality tolerance                        ...    1.000e-14
Level Shift                                    ...    0.000e+00
Constructing the preconditioner                ... o.k.
Building the initial guess                     ... o.k.
Number of trial vectors determined             ...    512


                       ****Iteration    0****

   Memory handling for direct AO based CIS:
   Memory per vector needed      ...     1 MB
   Memory needed                 ...    74 MB
   Memory available              ...   512 MB
   Number of vectors per batch   ...   410
   Number of batches             ...     1
   Time for densities:     0.070
   Using LibInt in JK Direct
   Time for J+K (Direct):   541.980
   Time for XC-Integration:     7.119
   Time for Sigma-Completion:     0.568
   Size of expansion space: 60
   Lowest Energy          :    10.111903593580
   Maximum Energy change  :    10.136068845282 (vector 19)
   Maximum residual norm  :     0.001261772916

                       ****Iteration    1****
   Time for densities:     0.032
   Using LibInt in JK Direct
   Time for J+K (Direct):   146.985
   Time for XC-Integration:     2.339
   Time for Sigma-Completion:     0.217
   Size of expansion space: 80
   Lowest Energy          :    10.107302445076
   Maximum Energy change  :     0.004864983208 (vector 5)
   Maximum residual norm  :     0.000004345307

                       ****Iteration    2****
   Time for densities:     0.023
   Using LibInt in JK Direct
   Time for J+K (Direct):   128.651
   Time for XC-Integration:     2.411
   Time for Sigma-Completion:     0.186
   Size of expansion space: 100
   Lowest Energy          :    10.107296994570
   Maximum Energy change  :     0.000006086893 (vector 8)
   Maximum residual norm  :     0.000000023307

      *** CONVERGENCE OF RESIDUAL NORM REACHED ***

Storing the converged CI vectors               ... /Users/lailaal-madhagi/Desktop/Testing_XAS_Analysis_code/PhenylEther//Results_dir_PhenylEther_geom_element_C_2019-11-18_18-47-34//GTE1_PhenylEther_geom_2019-11-18_18-48-25//TDDFT_C-edge.cis1

                 *** DAVIDSON DONE ***

Total time for solving the CIS problem:   831.908sec

------------------------------------
TD-DFT/TDA EXCITED STATES (SINGLETS)
------------------------------------

the weight of the individual excitations are printed if larger than 1.0e-02

STATE  1:  E=  10.107297 au    275.034 eV  2218295.3 cm**-1
     9a ->  45a  :     0.432308 (c= -0.65750119)
     9a ->  46a  :     0.144169 (c= -0.37969583)
     9a ->  47a  :     0.343533 (c= -0.58611708)
     9a ->  48a  :     0.029890 (c= -0.17288619)
     9a ->  54a  :     0.010983 (c= -0.10480004)
    10a ->  45a  :     0.011099 (c= -0.10535336)

STATE  2:  E=  10.107317 au    275.034 eV  2218299.7 cm**-1
     9a ->  45a  :     0.011029 (c=  0.10501813)
    10a ->  45a  :     0.431794 (c= -0.65711009)
    10a ->  46a  :     0.140516 (c= -0.37485427)
    10a ->  47a  :     0.347043 (c=  0.58910371)
    10a ->  48a  :     0.030087 (c=  0.17345717)
    10a ->  54a  :     0.010863 (c= -0.10422569)

STATE  3:  E=  10.108305 au    275.061 eV  2218516.5 cm**-1
     7a ->  45a  :     0.101867 (c=  0.31916616)
     7a ->  47a  :     0.040606 (c=  0.20150905)
     8a ->  45a  :     0.470849 (c= -0.68618409)
     8a ->  46a  :     0.032051 (c=  0.17902844)
     8a ->  47a  :     0.283808 (c=  0.53273586)
     8a ->  48a  :     0.021562 (c= -0.14683942)

STATE  4:  E=  10.108348 au    275.062 eV  2218525.9 cm**-1
     7a ->  45a  :     0.471398 (c= -0.68658445)
     7a ->  46a  :     0.030823 (c=  0.17556380)
     7a ->  47a  :     0.284106 (c= -0.53301631)
     7a ->  48a  :     0.021633 (c=  0.14708038)
     8a ->  45a  :     0.101843 (c= -0.31912800)
     8a ->  47a  :     0.040505 (c=  0.20125782)

STATE  5:  E=  10.109183 au    275.085 eV  2218709.2 cm**-1
     5a ->  45a  :     0.519685 (c= -0.72089194)
     5a ->  46a  :     0.036676 (c=  0.19150857)
     5a ->  47a  :     0.324341 (c=  0.56950943)
     5a ->  48a  :     0.058645 (c= -0.24216786)
     5a ->  54a  :     0.011539 (c= -0.10741939)
     6a ->  45a  :     0.015258 (c=  0.12352371)

STATE  6:  E=  10.109193 au    275.085 eV  2218711.3 cm**-1
     5a ->  45a  :     0.015179 (c= -0.12320244)
     6a ->  45a  :     0.520249 (c= -0.72128281)
     6a ->  46a  :     0.035339 (c=  0.18798799)
     6a ->  47a  :     0.324794 (c= -0.56990658)
     6a ->  48a  :     0.058685 (c=  0.24225086)
     6a ->  54a  :     0.011670 (c= -0.10802798)

STATE  7:  E=  10.110098 au    275.110 eV  2218910.1 cm**-1
     3a ->  45a  :     0.424946 (c= -0.65187902)
     3a ->  46a  :     0.143791 (c= -0.37919805)
     3a ->  47a  :     0.302866 (c= -0.55033292)
     3a ->  48a  :     0.063895 (c= -0.25277556)
     3a ->  54a  :     0.010538 (c=  0.10265540)

STATE  8:  E=  10.110127 au    275.111 eV  2218916.4 cm**-1
     4a ->  45a  :     0.424467 (c=  0.65151130)
     4a ->  46a  :     0.140789 (c=  0.37521815)
     4a ->  47a  :     0.306373 (c= -0.55350982)
     4a ->  48a  :     0.064520 (c= -0.25400815)
     4a ->  54a  :     0.010434 (c= -0.10214766)

STATE  9:  E=  10.111766 au    275.155 eV  2219276.1 cm**-1
    12a ->  45a  :     0.019234 (c=  0.13868710)
    12a ->  46a  :     0.596748 (c= -0.77249451)
    12a ->  48a  :     0.334663 (c= -0.57850050)
    12a ->  54a  :     0.012792 (c=  0.11310343)

STATE 10:  E=  10.111796 au    275.156 eV  2219282.8 cm**-1
    11a ->  45a  :     0.019958 (c=  0.14127109)
    11a ->  46a  :     0.595121 (c= -0.77144089)
    11a ->  48a  :     0.335936 (c=  0.57959959)
    11a ->  54a  :     0.012647 (c=  0.11245704)

STATE 11:  E=  10.122612 au    275.450 eV  2221656.5 cm**-1
    12a ->  45a  :     0.627186 (c= -0.79195044)
    12a ->  46a  :     0.021391 (c= -0.14625519)
    12a ->  47a  :     0.344391 (c= -0.58684838)

STATE 12:  E=  10.122643 au    275.451 eV  2221663.4 cm**-1
    11a ->  45a  :     0.625601 (c=  0.79094966)
    11a ->  46a  :     0.020986 (c=  0.14486593)
    11a ->  47a  :     0.346162 (c= -0.58835503)

STATE 13:  E=  10.128848 au    275.620 eV  2223025.2 cm**-1
     9a ->  45a  :     0.136026 (c=  0.36881662)
     9a ->  46a  :     0.450264 (c= -0.67101713)
     9a ->  47a  :     0.023941 (c=  0.15472846)
     9a ->  48a  :     0.195236 (c= -0.44185501)
    10a ->  45a  :     0.036656 (c=  0.19145706)
    10a ->  46a  :     0.121944 (c= -0.34920422)
    10a ->  48a  :     0.028889 (c=  0.16996814)

STATE 14:  E=  10.128849 au    275.620 eV  2223025.4 cm**-1
     9a ->  45a  :     0.036743 (c= -0.19168531)
     9a ->  46a  :     0.121755 (c=  0.34893349)
     9a ->  48a  :     0.028744 (c=  0.16954196)
    10a ->  45a  :     0.135509 (c=  0.36811515)
    10a ->  46a  :     0.451278 (c= -0.67177257)
    10a ->  47a  :     0.022669 (c= -0.15056318)
    10a ->  48a  :     0.195999 (c=  0.44271765)

STATE 15:  E=  10.131825 au    275.701 eV  2223678.5 cm**-1
     7a ->  45a  :     0.025650 (c=  0.16015673)
     7a ->  46a  :     0.679352 (c=  0.82422823)
     7a ->  47a  :     0.035416 (c=  0.18819153)
     7a ->  48a  :     0.202745 (c=  0.45027195)
     8a ->  46a  :     0.043500 (c=  0.20856644)

STATE 16:  E=  10.131827 au    275.701 eV  2223678.9 cm**-1
     7a ->  46a  :     0.043608 (c=  0.20882473)
     8a ->  45a  :     0.025730 (c= -0.16040619)
     8a ->  46a  :     0.676392 (c= -0.82243056)
     8a ->  47a  :     0.037368 (c=  0.19330772)
     8a ->  48a  :     0.203730 (c=  0.45136406)

STATE 17:  E=  10.135365 au    275.797 eV  2224455.5 cm**-1
     4a ->  45a  :     0.181386 (c= -0.42589419)
     4a ->  46a  :     0.547171 (c=  0.73970995)
     4a ->  47a  :     0.044074 (c=  0.20993845)
     4a ->  48a  :     0.222178 (c= -0.47135725)

STATE 18:  E=  10.135368 au    275.797 eV  2224456.2 cm**-1
     3a ->  45a  :     0.181500 (c=  0.42602823)
     3a ->  46a  :     0.546150 (c= -0.73901951)
     3a ->  47a  :     0.045760 (c=  0.21391494)
     3a ->  48a  :     0.221375 (c= -0.47050527)

STATE 19:  E=  10.135664 au    275.805 eV  2224521.1 cm**-1
     6a ->  45a  :     0.038749 (c= -0.19684749)
     6a ->  46a  :     0.668526 (c= -0.81763413)
     6a ->  47a  :     0.050444 (c= -0.22459724)
     6a ->  48a  :     0.233432 (c= -0.48314829)

STATE 20:  E=  10.135713 au    275.807 eV  2224531.8 cm**-1
     5a ->  45a  :     0.038721 (c= -0.19677575)
     5a ->  46a  :     0.665043 (c= -0.81550156)
     5a ->  47a  :     0.052794 (c=  0.22976939)
     5a ->  48a  :     0.234596 (c=  0.48435158)


-----------------------------
TD-DFT/TDA-EXCITATION SPECTRA
-----------------------------

Center of mass = ( -2.1450,  7.4513,  0.8629)
Calculating the Dipole integrals                  ... done
Transforming integrals                            ... done
Calculating the Linear Momentum integrals         ... done
Transforming integrals                            ... done
Calculating angular momentum integrals            ... done
Transforming integrals                            ... done

-----------------------------------------------------------------------------
         ABSORPTION SPECTRUM VIA TRANSITION ELECTRIC DIPOLE MOMENTS
-----------------------------------------------------------------------------
State   Energy    Wavelength  fosc         T2        TX        TY        TZ  
        (cm-1)      (nm)                 (au**2)    (au)      (au)      (au) 
-----------------------------------------------------------------------------
   1 2218295.3      4.5   0.023287778   0.00346  -0.02909   0.02666   0.04358
   2 2218299.7      4.5   0.026912169   0.00399  -0.02830   0.00911  -0.05577
   3 2218516.5      4.5   0.037000431   0.00549   0.02111   0.00066   0.07102
   4 2218525.9      4.5   0.020934756   0.00311   0.03794  -0.03065  -0.02698
   5 2218709.2      4.5   0.030784558   0.00457   0.03823  -0.01520   0.05362
   6 2218711.3      4.5   0.035131026   0.00521  -0.02551   0.02833   0.06132
   7 2218910.1      4.5   0.034927304   0.00518   0.02766  -0.02939  -0.05961
   8 2218916.4      4.5   0.032042289   0.00475  -0.03781   0.01457  -0.05579
   9 2219276.1      4.5   0.054101504   0.00803   0.03826  -0.03872  -0.07115
  10 2219282.8      4.5   0.055378577   0.00821   0.04561  -0.01560   0.07676
  11 2221656.5      4.5   0.000056824   0.00001   0.00112  -0.00145  -0.00225
  12 2221663.4      4.5   0.000065527   0.00001  -0.00175   0.00041  -0.00254
  13 2223025.2      4.5   0.000778028   0.00012  -0.00745   0.00545   0.00548
  14 2223025.4      4.5   0.001687657   0.00025  -0.00322   0.00053  -0.01547
  15 2223678.5      4.5   0.000424286   0.00006   0.00356  -0.00386  -0.00593
  16 2223678.9      4.5   0.000683136   0.00010  -0.00348  -0.00011  -0.00944
  17 2224455.5      4.5   0.000878143   0.00013  -0.00552   0.00223  -0.00972
  18 2224456.2      4.5   0.000825284   0.00012   0.00512  -0.00461  -0.00864
  19 2224521.1      4.5   0.000503450   0.00007   0.00347  -0.00377  -0.00694
  20 2224531.8      4.5   0.000497513   0.00007  -0.00445   0.00139  -0.00720

-----------------------------------------------------------------------------
         ABSORPTION SPECTRUM VIA TRANSITION VELOCITY DIPOLE MOMENTS
-----------------------------------------------------------------------------
State   Energy    Wavelength   fosc        P2         PX        PY        PZ  
        (cm-1)      (nm)                 (au**2)     (au)      (au)      (au) 
-----------------------------------------------------------------------------
   1 2218295.3      4.5   0.022388034   0.33942   0.28810  -0.26445  -0.43184
   2 2218299.7      4.5   0.025873162   0.39226   0.28064  -0.08998   0.55264
   3 2218516.5      4.5   0.035481747   0.53799  -0.20820  -0.00500  -0.70329
   4 2218525.9      4.5   0.020107271   0.30488  -0.37640   0.30305   0.26714
   5 2218709.2      4.5   0.029579452   0.44854  -0.37893   0.15069  -0.53126
   6 2218711.3      4.5   0.033751248   0.51180   0.25286  -0.28074  -0.60749
   7 2218910.1      4.5   0.033552465   0.50883  -0.27414   0.29110   0.59071
   8 2218916.4      4.5   0.030780935   0.46680   0.37460  -0.14445   0.55282
   9 2219276.1      4.5   0.052002719   0.78876  -0.37924   0.38375   0.70546
  10 2219282.8      4.5   0.053231465   0.80740  -0.45204   0.15458  -0.76103
  11 2221656.5      4.5   0.000054346   0.00083  -0.01121   0.01426   0.02228
  12 2221663.4      4.5   0.000062712   0.00095   0.01734  -0.00425   0.02517
  13 2223025.2      4.5   0.000752201   0.01143   0.07428  -0.05446  -0.05427
  14 2223025.4      4.5   0.001614949   0.02454   0.03235  -0.00509   0.15318
  15 2223678.5      4.5   0.000414097   0.00629  -0.03519   0.03948   0.05913
  16 2223678.9      4.5   0.000666115   0.01012   0.03564   0.00226   0.09407
  17 2224455.5      4.5   0.000840563   0.01278   0.05479  -0.02186   0.09643
  18 2224456.2      4.5   0.000789695   0.01201  -0.05059   0.04585   0.08570
  19 2224521.1      4.5   0.000481266   0.00732  -0.03451   0.03738   0.06877
  20 2224531.8      4.5   0.000475542   0.00723   0.04413  -0.01388   0.07134

-------------------------------------------------------------------
                             CD SPECTRUM
-------------------------------------------------------------------
State  Energy     Wavelength     R         MX        MY        MZ   
       (cm-1)       (nm)     (1e40*cgs)   (au)      (au)      (au)  
-------------------------------------------------------------------
   1 2218295.3      4.5      7.73193  -1.37763   0.10541  -0.60763
   2 2218299.7      4.5     -6.71101  -0.40756   1.24229   0.66491
   3 2218516.5      4.5    -12.39771   0.67547   0.52101  -0.57588
   4 2218525.9      4.5     11.80533   0.34377  -0.61609   0.25511
   5 2218709.2      4.5     12.43811   1.54343  -1.50537  -1.03506
   6 2218711.3      4.5    -12.58021  -1.68809   0.50122  -1.36900
   7 2218910.1      4.5     -4.63637   0.27005  -1.54443   1.05167
   8 2218916.4      4.5      4.55493  -1.61093  -0.17849   0.87202
   9 2219276.1      4.5      3.82493   1.56721  -1.89694   1.76102
  10 2219282.8      4.5     -3.86358   2.40179  -0.66121  -1.66827
  11 2221656.5      4.5     -0.00212   0.07394  -0.04573   0.06812
  12 2221663.4      4.5     -0.00300  -0.08089   0.05306   0.06691
  13 2223025.2      4.5      1.25499  -0.32151   0.13173  -0.08213
  14 2223025.4      4.5     -1.27521  -0.01999   0.22112   0.18657
  15 2223678.5      4.5      0.12643   0.04562  -0.10709   0.05192
  16 2223678.9      4.5     -0.14380  -0.10896  -0.04746   0.07298
  17 2224455.5      4.5     -0.08262  -0.26053  -0.04910   0.15472
  18 2224456.2      4.5      0.07865   0.06965  -0.24855   0.15467
  19 2224521.1      4.5     -0.00003   0.21853  -0.08277   0.15428
  20 2224531.8      4.5     -0.00735  -0.16918   0.17010   0.13953

Total run time:      832.568 sec

           *** ORCA-CIS/TD-DFT FINISHED WITHOUT ERROR ***

-----------------------
CIS/TD-DFT TOTAL ENERGY
-----------------------

    E(SCF)  =   -538.170019801 Eh
    DE(CIS) =     10.107296995 Eh (Root  1)
    ----------------------------- ---------
    E(tot)  =   -528.062722806 Eh


-------------------------   --------------------
FINAL SINGLE POINT ENERGY      -528.062722806060
-------------------------   --------------------


                            ***************************************
                            *     ORCA property calculations      *
                            ***************************************

                                    ---------------------
                                    Active property flags
                                    ---------------------
   (+) Dipole Moment


------------------------------------------------------------------------------
                       ORCA ELECTRIC PROPERTIES CALCULATION
------------------------------------------------------------------------------

Dipole Moment Calculation                       ... on
Quadrupole Moment Calculation                   ... off
Polarizability Calculation                      ... off
GBWName                                         ... /Users/lailaal-madhagi/Desktop/Testing_XAS_Analysis_code/PhenylEther//Results_dir_PhenylEther_geom_element_C_2019-11-18_18-47-34//GTE1_PhenylEther_geom_2019-11-18_18-48-25//TDDFT_C-edge.gbw
Electron density file                           ... /Users/lailaal-madhagi/Desktop/Testing_XAS_Analysis_code/PhenylEther//Results_dir_PhenylEther_geom_element_C_2019-11-18_18-47-34//GTE1_PhenylEther_geom_2019-11-18_18-48-25//TDDFT_C-edge.scfp.tmp
The origin for moment calculation is the CENTER OF MASS  = (-2.145017,  7.451311  0.862866)

-------------
DIPOLE MOMENT
-------------
                                X             Y             Z
Electronic contribution:      2.12747      -1.38892       0.07876
Nuclear contribution   :     -2.44447       1.59478      -0.09107
                        -----------------------------------------
Total Dipole Moment    :     -0.31699       0.20585      -0.01231
                        -----------------------------------------
Magnitude (a.u.)       :      0.37817
Magnitude (Debye)      :      0.96123



--------------------
Rotational spectrum 
--------------------
 
Rotational constants in cm-1:     0.080293     0.014270     0.013376 
Rotational constants in MHz :  2407.130364   427.790872   401.009301 

 Dipole components along the rotational axes: 
x,y,z [a.u.] :    -0.000878    -0.378169    -0.000302 
x,y,z [Debye]:    -0.002232    -0.961230    -0.000768 

 

Timings for individual modules:

Sum of individual times         ...      951.893 sec (=  15.865 min)
GTO integral calculation        ...        0.934 sec (=   0.016 min)   0.1 %
SCF iterations                  ...      117.698 sec (=   1.962 min)  12.4 %
CIS module                      ...      833.261 sec (=  13.888 min)  87.5 %
                             ****ORCA TERMINATED NORMALLY****
TOTAL RUN TIME: 0 days 0 hours 15 minutes 52 seconds 642 msec
