
                                 *****************
                                 * O   R   C   A *
                                 *****************

           --- An Ab Initio, DFT and Semiempirical electronic structure package ---

                  #######################################################
                  #                        -***-                        #
                  #          Department of theory and spectroscopy      #
                  #               Directorship: Frank Neese             #
                  #        Max Planck Institute fuer Kohlenforschung    #
                  #                Kaiser Wilhelm Platz 1               #
                  #                 D-45470 Muelheim/Ruhr               #
                  #                      Germany                        #
                  #                                                     #
                  #                  All rights reserved                #
                  #                        -***-                        #
                  #######################################################


                         Program Version 4.1.0  - RELEASE  -


 With contributions from (in alphabetic order):
   Daniel Aravena         : Magnetic Properties
   Michael Atanasov       : Ab Initio Ligand Field Theory
   Alexander A. Auer      : GIAO ZORA
   Ute Becker             : Parallelization
   Giovanni Bistoni       : ED, Open-shell LED
   Martin Brehm           : Molecular dynamics
   Dmytro Bykov           : SCF Hessian
   Vijay G. Chilkuri      : MRCI spin determinant printing
   Dipayan Datta          : RHF DLPNO-CCSD density
   Achintya Kumar Dutta   : EOM-CC, STEOM-CC
   Dmitry Ganyushin       : Spin-Orbit,Spin-Spin,Magnetic field MRCI
   Miquel Garcia          : C-PCM Hessian
   Yang Guo               : DLPNO-NEVPT2, CIM, IAO-localization
   Andreas Hansen         : Spin unrestricted coupled pair/coupled cluster methods
   Benjamin Helmich-Paris : CASSCF linear response (MC-RPA)
   Lee Huntington         : MR-EOM, pCC
   Robert Izsak           : Overlap fitted RIJCOSX, COSX-SCS-MP3, EOM
   Christian Kollmar      : KDIIS, OOCD, Brueckner-CCSD(T), CCSD density
   Simone Kossmann        : Meta GGA functionals, TD-DFT gradient, OOMP2, MP2 Hessian
   Martin Krupicka        : AUTO-CI
   Lucas Lang             : DCDCAS
   Dagmar Lenk            : GEPOL surface, SMD
   Dimitrios Liakos       : Extrapolation schemes; parallel MDCI
   Dimitrios Manganas     : ROCIS; embedding schemes
   Dimitrios Pantazis     : SARC Basis sets
   Taras Petrenko         : DFT Hessian,TD-DFT gradient, ASA, ECA, R-Raman, ABS, FL, XAS/XES, NRVS
   Peter Pinski           : DLPNO-MP2, DLPNO-MP2 Gradient
   Christoph Reimann      : Effective Core Potentials
   Marius Retegan         : Local ZFS, SOC
   Christoph Riplinger    : Optimizer, TS searches, QM/MM, DLPNO-CCSD(T), (RO)-DLPNO pert. Triples
   Tobias Risthaus        : Range-separated hybrids, TD-DFT gradient, RPA, STAB
   Michael Roemelt        : Restricted open shell CIS
   Masaaki Saitow         : Open-shell DLPNO
   Barbara Sandhoefer     : DKH picture change effects
   Avijit Sen             : IP-ROCIS
   Kantharuban Sivalingam : CASSCF convergence, NEVPT2, FIC-MRCI
   Bernardo de Souza      : ESD, SOC TD-DFT
   Georgi Stoychev        : AutoAux, RI-MP2 NMR
   Willem Van den Heuvel  : Paramagnetic NMR
   Boris Wezisla          : Elementary symmetry handling
   Frank Wennmohs         : Technical directorship


 We gratefully acknowledge several colleagues who have allowed us to
 interface, adapt or use parts of their codes:
   Stefan Grimme, W. Hujo, H. Kruse,             : VdW corrections, initial TS optimization,
                  C. Bannwarth                     DFT functionals, gCP, sTDA/sTD-DF
   Ed Valeev                                     : LibInt (2-el integral package), F12 methods
   Garnet Chan, S. Sharma, J. Yang, R. Olivares  : DMRG
   Ulf Ekstrom                                   : XCFun DFT Library
   Mihaly Kallay                                 : mrcc  (arbitrary order and MRCC methods)
   Andreas Klamt, Michael Diedenhofen            : otool_cosmo (COSMO solvation model)
   Jiri Pittner, Ondrej Demel                    : Mk-CCSD
   Frank Weinhold                                : gennbo (NPA and NBO analysis)
   Christopher J. Cramer and Donald G. Truhlar   : smd solvation model
   Lars Goerigk                                  : TD-DFT with DH, B97 family of functionals
   V. Asgeirsson, H. Jonsson                     : NEB implementation
   FAccTs GmbH                                   : IRC, NEB, NEB-TS, Multilevel


 Your calculation uses the libint2 library for the computation of 2-el integrals
 For citations please refer to: http://libint.valeyev.net

 This ORCA versions uses:
   CBLAS   interface :  Fast vector & matrix operations
   LAPACKE interface :  Fast linear algebra routines
   SCALAPACK package :  Parallel linear algebra routines




***************************************
The coordinates will be read from file: /Users/lailaal-madhagi/Desktop/Testing_XAS_Analysis_code/MetaNitroAniline//Results_dir_MetaNitroAniline_geom_element_O_2019-11-11_21-06-33//GTE1_MetaNitroAniline_geom_2019-11-11_21-06-47//opt.xyz
***************************************


----- Orbital basis set information -----
Your calculation utilizes the basis: 6-31G*
   H-He, Li-Ne : W. J. Hehre, R. Ditchfield and J.A. Pople, J. Chem. Phys. 56, 2257 (1972).
                 Note: He and Ne are unpublished basis sets taken from the Gaussian program.
                 Note: Li and B from J. D. Dill and J. A. Pople, J. Chem. Phys. 62, 2921 (1975).
   Na - Ar     : M. M. Francl, W. J. Pietro, W. J. Hehre, J. S. Binkley, M. S. Gordon, 
                 D. J. DeFrees and J. A. Pople, J. Chem. Phys. 77, 3654 (1982).
   K - Zn      : V. A. Rassolov, J. A. Pople, M. A. Ratner, and T. L. Windus, J. Chem. Phys. 109, 1223 (1998).

================================================================================
                                        WARNINGS
                       Please study these warnings very carefully!
================================================================================


INFO   : the flag for use of LIBINT has been found!

================================================================================
                                       INPUT FILE
================================================================================
NAME = /Users/lailaal-madhagi/Desktop/Testing_XAS_Analysis_code/MetaNitroAniline//Results_dir_MetaNitroAniline_geom_element_O_2019-11-11_21-06-33//GTE1_MetaNitroAniline_geom_2019-11-11_21-06-47//freq.inp
|  1> ! B3LYP 6-31G* TIGHTSCF Grid3 FinalGrid5 Freq 
|  2> !NormalPrint 
|  3> %output 
|  4> Print[P_Basis] 2 
|  5> Print[P_MOS] 1 
|  6> end 
|  7> *xyzfile 0 1 /Users/lailaal-madhagi/Desktop/Testing_XAS_Analysis_code/MetaNitroAniline//Results_dir_MetaNitroAniline_geom_element_O_2019-11-11_21-06-33//GTE1_MetaNitroAniline_geom_2019-11-11_21-06-47//opt.xyz                           ****END OF INPUT****
================================================================================

                       ****************************
                       * Single Point Calculation *
                       ****************************

---------------------------------
CARTESIAN COORDINATES (ANGSTROEM)
---------------------------------
  C     -0.503321    1.085645   -0.003289
  C     -1.704458    0.375306   -0.009181
  C      0.674871    0.343958   -0.061680
  C     -1.720333   -1.015697   -0.070983
  C     -0.517233   -1.751476   -0.129678
  C      0.698562   -1.044997   -0.124190
  N     -0.529808   -3.124700   -0.190585
  N      1.964365    1.059506   -0.057468
  O      1.936526    2.288635   -0.001965
  H      0.327390   -3.650604   -0.235813
  H     -1.395825   -3.637508   -0.197854
  O      2.995335    0.387632   -0.109748
  H     -0.467003    2.165877    0.044072
  H     -2.646085    0.915448    0.035187
  H     -2.669327   -1.547064   -0.074377
  H      1.651364   -1.559491   -0.167549

----------------------------
CARTESIAN COORDINATES (A.U.)
----------------------------
  NO LB      ZA    FRAG     MASS         X           Y           Z
   0 C     6.0000    0    12.011   -0.951139    2.051572   -0.006215
   1 C     6.0000    0    12.011   -3.220959    0.709226   -0.017349
   2 C     6.0000    0    12.011    1.275321    0.649986   -0.116557
   3 C     6.0000    0    12.011   -3.250958   -1.919389   -0.134138
   4 C     6.0000    0    12.011   -0.977429   -3.309811   -0.245056
   5 C     6.0000    0    12.011    1.320091   -1.974757   -0.234685
   6 N     7.0000    0    14.007   -1.001191   -5.904828   -0.360153
   7 N     7.0000    0    14.007    3.712112    2.002176   -0.108599
   8 O     8.0000    0    15.999    3.659504    4.324894   -0.003714
   9 H     1.0000    0     1.008    0.618678   -6.898641   -0.445622
  10 H     1.0000    0     1.008   -2.637728   -6.873895   -0.373891
  11 O     8.0000    0    15.999    5.660363    0.732519   -0.207393
  12 H     1.0000    0     1.008   -0.882508    4.092915    0.083283
  13 H     1.0000    0     1.008   -5.000376    1.729946    0.066494
  14 H     1.0000    0     1.008   -5.044297   -2.923527   -0.140551
  15 H     1.0000    0     1.008    3.120627   -2.947012   -0.316621

--------------------------------
INTERNAL COORDINATES (ANGSTROEM)
--------------------------------
 C      0   0   0     0.000000000000     0.00000000     0.00000000
 C      1   0   0     1.395473761533     0.00000000     0.00000000
 C      1   2   0     1.393429175888   117.17192157     0.00000000
 C      2   1   3     1.392465590407   121.23141535     0.00000000
 C      4   2   1     1.411476201180   120.85482764     0.00000000
 C      3   1   2     1.390561824516   123.22641448     0.00000000
 N      5   4   2     1.374631477170   120.98379189   179.99165419
 N      3   1   2     1.474728153035   118.74727166   179.99930424
 O      8   3   1     1.230696840922   117.70625196     0.00000000
 H      7   5   4     1.006681822601   121.06961768   179.77869739
 H      7   5   4     1.006484699338   121.14281359     0.20456326
 O      8   3   1     1.231684499362   117.84661792   180.00867727
 H      1   2   3     1.081879860610   122.50238696   179.99688556
 H      2   1   3     1.086454142997   119.52195010   179.99703767
 H      4   2   1     1.087636287277   119.87600202   180.00439278
 H      6   3   1     1.083705349348   119.40530906   180.00325001

---------------------------
INTERNAL COORDINATES (A.U.)
---------------------------
 C      0   0   0     0.000000000000     0.00000000     0.00000000
 C      1   0   0     2.637063236371     0.00000000     0.00000000
 C      1   2   0     2.633199529443   117.17192157     0.00000000
 C      2   1   3     2.631378616779   121.23141535     0.00000000
 C      4   2   1     2.667303464777   120.85482764     0.00000000
 C      3   1   2     2.627781020622   123.22641448     0.00000000
 N      5   4   2     2.597677026920   120.98379189   179.99165419
 N      3   1   2     2.786832331220   118.74727166   179.99930424
 O      8   3   1     2.325679983225   117.70625196     0.00000000
 H      7   5   4     1.902352948712   121.06961768   179.77869739
 H      7   5   4     1.901980439731   121.14281359     0.20456326
 O      8   3   1     2.327546387191   117.84661792   180.00867727
 H      1   2   3     2.044456646359   122.50238696   179.99688556
 H      2   1   3     2.053100787328   119.52195010   179.99703767
 H      4   2   1     2.055334716268   119.87600202   180.00439278
 H      6   3   1     2.047906320132   119.40530906   180.00325001

---------------------
BASIS SET INFORMATION
---------------------
There are 4 groups of distinct atoms

 Group   1 Type C   : 10s4p1d contracted to 3s2p1d pattern {631/31/1}
 Group   2 Type N   : 10s4p1d contracted to 3s2p1d pattern {631/31/1}
 Group   3 Type O   : 10s4p1d contracted to 3s2p1d pattern {631/31/1}
 Group   4 Type H   : 4s contracted to 2s pattern {31}

Atom   0C    basis set group =>   1
Atom   1C    basis set group =>   1
Atom   2C    basis set group =>   1
Atom   3C    basis set group =>   1
Atom   4C    basis set group =>   1
Atom   5C    basis set group =>   1
Atom   6N    basis set group =>   2
Atom   7N    basis set group =>   2
Atom   8O    basis set group =>   3
Atom   9H    basis set group =>   4
Atom  10H    basis set group =>   4
Atom  11O    basis set group =>   3
Atom  12H    basis set group =>   4
Atom  13H    basis set group =>   4
Atom  14H    basis set group =>   4
Atom  15H    basis set group =>   4

-------------------------
BASIS SET IN INPUT FORMAT
-------------------------

 # Basis set for element : H 
 NewGTO H 
 S 3 
   1      18.7311370000      0.0334945995
   2       2.8253937000      0.2347269467
   3       0.6401217000      0.8137573184
 S 1 
   1       0.1612778000      1.0000000000
  end;

 # Basis set for element : C 
 NewGTO C 
 S 6 
   1    3047.5249000000      0.0018347002
   2     457.3695100000      0.0140373012
   3     103.9486900000      0.0688426061
   4      29.2101550000      0.2321844206
   5       9.2866630000      0.4679413416
   6       3.1639270000      0.3623120322
 S 3 
   1       7.8682724000     -0.1193324086
   2       1.8812885000     -0.1608542116
   3       0.5442493000      1.1434564826
 P 3 
   1       7.8682724000      0.0689990956
   2       1.8812885000      0.3164239798
   3       0.5442493000      0.7443082524
 S 1 
   1       0.1687144000      1.0000000000
 P 1 
   1       0.1687144000      1.0000000000
 D 1 
   1       0.8000000000      1.0000000000
  end;

 # Basis set for element : N 
 NewGTO N 
 S 6 
   1    4173.5110000000      0.0018347994
   2     627.4579000000      0.0139949958
   3     142.9021000000      0.0685869792
   4      40.2343300000      0.2322409295
   5      12.8202100000      0.4690698576
   6       4.3904370000      0.3604548906
 S 3 
   1      11.6263580000     -0.1149610229
   2       2.7162800000     -0.1691180337
   3       0.7722180000      1.1458522281
 P 3 
   1      11.6263580000      0.0675800232
   2       2.7162800000      0.3239071114
   3       0.7722180000      0.7408952549
 S 1 
   1       0.2120313000      1.0000000000
 P 1 
   1       0.2120313000      1.0000000000
 D 1 
   1       0.8000000000      1.0000000000
  end;

 # Basis set for element : O 
 NewGTO O 
 S 6 
   1    5484.6717000000      0.0018310998
   2     825.2349500000      0.0139500985
   3     188.0469600000      0.0684450927
   4      52.9645000000      0.2327142753
   5      16.8975700000      0.4701929501
   6       5.7996353000      0.3585208619
 S 3 
   1      15.5396160000     -0.1107775038
   2       3.5999336000     -0.1480263051
   3       1.0137618000      1.1307670390
 P 3 
   1      15.5396160000      0.0708742995
   2       3.5999336000      0.3397527978
   3       1.0137618000      0.7271585953
 S 1 
   1       0.2700058000      1.0000000000
 P 1 
   1       0.2700058000      1.0000000000
 D 1 
   1       0.8000000000      1.0000000000
  end;

------------------------------------------------------------------------------
                           ORCA GTO INTEGRAL CALCULATION
------------------------------------------------------------------------------

                         BASIS SET STATISTICS AND STARTUP INFO

 # of primitive gaussian shells          ...  174
 # of primitive gaussian functions       ...  294
 # of contracted shells                  ...   72
 # of contracted basis functions         ...  152
 Highest angular momentum                ...    2
 Maximum contraction depth               ...    6
 Integral package used                   ... LIBINT
 Integral threshhold            Thresh   ...  2.500e-11
 Primitive cut-off              TCut     ...  2.500e-12


------------------------------ INTEGRAL EVALUATION ----------------------------


 * One electron integrals 
 Pre-screening matrix                    ... done
 Shell pair data                         ... done (   0.001 sec)

-------------------------------------------------------------------------------
                                 ORCA SCF
-------------------------------------------------------------------------------

------------
SCF SETTINGS
------------
Hamiltonian:
 Density Functional     Method          .... DFT(GTOs)
 Exchange Functional    Exchange        .... B88
   X-Alpha parameter    XAlpha          ....  0.666667
   Becke's b parameter  XBeta           ....  0.004200
 Correlation Functional Correlation     .... LYP
 LDA part of GGA corr.  LDAOpt          .... VWN-5
 Gradients option       PostSCFGGA      .... off
 Hybrid DFT is turned on
   Fraction HF Exchange ScalHFX         ....  0.200000
   Scaling of DF-GGA-X  ScalDFX         ....  0.720000
   Scaling of DF-GGA-C  ScalDFC         ....  0.810000
   Scaling of DF-LDA-C  ScalLDAC        ....  1.000000
   Perturbative correction              ....  0.000000
   Density functional embedding theory  .... OFF
   NL short-range parameter             ....  4.800000


General Settings:
 Integral files         IntName         .... /Users/lailaal-madhagi/Desktop/Testing_XAS_Analysis_code/MetaNitroAniline//Results_dir_MetaNitroAniline_geom_element_O_2019-11-11_21-06-33//GTE1_MetaNitroAniline_geom_2019-11-11_21-06-47//freq
 Hartree-Fock type      HFTyp           .... RHF
 Total Charge           Charge          ....    0
 Multiplicity           Mult            ....    1
 Number of Electrons    NEL             ....   72
 Basis Dimension        Dim             ....  152
 Nuclear Repulsion      ENuc            ....    496.9499567628 Eh

Convergence Acceleration:
 DIIS                   CNVDIIS         .... on
   Start iteration      DIISMaxIt       ....    12
   Startup error        DIISStart       ....  0.200000
   # of expansion vecs  DIISMaxEq       ....     5
   Bias factor          DIISBfac        ....   1.050
   Max. coefficient     DIISMaxC        ....  10.000
 Newton-Raphson         CNVNR           .... off
 SOSCF                  CNVSOSCF        .... on
   Start iteration      SOSCFMaxIt      ....   150
   Startup grad/error   SOSCFStart      ....  0.003300
 Level Shifting         CNVShift        .... on
   Level shift para.    LevelShift      ....    0.2500
   Turn off err/grad.   ShiftErr        ....    0.0010
 Zerner damping         CNVZerner       .... off
 Static damping         CNVDamp         .... on
   Fraction old density DampFac         ....    0.7000
   Max. Damping (<1)    DampMax         ....    0.9800
   Min. Damping (>=0)   DampMin         ....    0.0000
   Turn off err/grad.   DampErr         ....    0.1000
 Fernandez-Rico         CNVRico         .... off

SCF Procedure:
 Maximum # iterations   MaxIter         ....   125
 SCF integral mode      SCFMode         .... Direct
   Integral package                     .... LIBINT
 Reset frequency        DirectResetFreq ....    20
 Integral Threshold     Thresh          ....  2.500e-11 Eh
 Primitive CutOff       TCut            ....  2.500e-12 Eh

Convergence Tolerance:
 Convergence Check Mode ConvCheckMode   .... Total+1el-Energy
 Convergence forced     ConvForced      .... 0
 Energy Change          TolE            ....  1.000e-08 Eh
 1-El. energy change                    ....  1.000e-05 Eh
 Orbital Gradient       TolG            ....  1.000e-05
 Orbital Rotation angle TolX            ....  1.000e-05
 DIIS Error             TolErr          ....  5.000e-07


Diagonalization of the overlap matrix:
Smallest eigenvalue                        ... 4.547e-04
Time for diagonalization                   ...    0.003 sec
Threshold for overlap eigenvalues          ... 1.000e-08
Number of eigenvalues below threshold      ... 0
Time for construction of square roots      ...    0.004 sec
Total time needed                          ...    0.007 sec

-------------------
DFT GRID GENERATION
-------------------

General Integration Accuracy     IntAcc      ...  4.340
Radial Grid Type                 RadialGrid  ... Gauss-Chebyshev
Angular Grid (max. acc.)         AngularGrid ... Lebedev-194
Angular grid pruning method      GridPruning ... 3 (G Style)
Weight generation scheme         WeightScheme... Becke
Basis function cutoff            BFCut       ...    1.0000e-11
Integration weight cutoff        WCut        ...    1.0000e-14
Grids for H and He will be reduced by one unit

# of grid points (after initial pruning)     ...  42208 (   0.0 sec)
# of grid points (after weights+screening)   ...  38979 (   0.1 sec)
nearest neighbour list constructed           ...    0.0 sec
Grid point re-assignment to atoms done       ...    0.0 sec
Grid point division into batches done        ...    0.1 sec
Reduced shell lists constructed in    0.3 sec

Total number of grid points                  ...    38979
Total number of batches                      ...      617
Average number of points per batch           ...       63
Average number of grid points per atom       ...     2436
Average number of shells per batch           ...    46.19 (64.15%)
Average number of basis functions per batch  ...    99.65 (65.56%)
Average number of large shells per batch     ...    34.90 (75.56%)
Average number of large basis fcns per batch ...    75.84 (76.11%)
Maximum spatial batch extension              ...  16.04, 19.47, 22.18 au
Average spatial batch extension              ...   2.92,  2.84,  3.65 au

Time for grid setup =    0.423 sec

------------------------------
INITIAL GUESS: MODEL POTENTIAL
------------------------------
Loading Hartree-Fock densities                     ... done
Calculating cut-offs                               ... done
Setting up the integral package                    ... done
Initializing the effective Hamiltonian             ... done
Starting the Coulomb interaction                   ... done (   0.1 sec)
Reading the grid                                   ... done
Mapping shells                                     ... done
Starting the XC term evaluation                    ... done (   0.3 sec)
  promolecular density results
     # of electrons  =     71.995851568
     EX              =    -62.175236767
     EC              =     -2.491497189
     EX+EC           =    -64.666733955
Transforming the Hamiltonian                       ... done (   0.0 sec)
Diagonalizing the Hamiltonian                      ... done (   0.0 sec)
Back transforming the eigenvectors                 ... done (   0.0 sec)
Now organizing SCF variables                       ... done
                      ------------------
                      INITIAL GUESS DONE (   0.9 sec)
                      ------------------
--------------
SCF ITERATIONS
--------------
               ***  Starting incremental Fock matrix formation  ***

                         ----------------------------
                         !        ITERATION     0   !
                         ----------------------------
   Total Energy        :    -491.522931555366 Eh
   Energy Change       :    -491.522931555366 Eh
   MAX-DP              :       0.089726137759
   RMS-DP              :       0.002739449538
   Actual Damping      :       0.7000
   Actual Level Shift  :       0.2500 Eh
   Int. Num. El.       :    71.99906503 (UP=   35.99953251 DN=   35.99953251)
   Exchange            :   -50.66927147
   Correlation         :    -2.95756544


                         ----------------------------
                         !        ITERATION     1   !
                         ----------------------------
   Total Energy        :    -491.668471869858 Eh
   Energy Change       :      -0.145540314492 Eh
   MAX-DP              :       0.050983471271
   RMS-DP              :       0.001709878136
   Actual Damping      :       0.7000
   Actual Level Shift  :       0.2500 Eh
   Int. Num. El.       :    71.99894197 (UP=   35.99947098 DN=   35.99947098)
   Exchange            :   -50.36239146
   Correlation         :    -2.94686482

                               ***Turning on DIIS***

                         ----------------------------
                         !        ITERATION     2   !
                         ----------------------------
   Total Energy        :    -491.719572599848 Eh
   Energy Change       :      -0.051100729990 Eh
   MAX-DP              :       0.065752914930
   RMS-DP              :       0.002627356031
   Actual Damping      :       0.0000
   Actual Level Shift  :       0.2500 Eh
   Int. Num. El.       :    71.99886651 (UP=   35.99943325 DN=   35.99943325)
   Exchange            :   -50.17004044
   Correlation         :    -2.93959615
   DIIS-Error          :       0.040156094741


                         ----------------------------
                         !        ITERATION     3   !
                         ----------------------------
   Total Energy        :    -491.810135338841 Eh
   Energy Change       :      -0.090562738993 Eh
   MAX-DP              :       0.035073446356
   RMS-DP              :       0.001120036919
   Actual Damping      :       0.0000
   Actual Level Shift  :       0.2500 Eh
   Int. Num. El.       :    71.99875850 (UP=   35.99937925 DN=   35.99937925)
   Exchange            :   -49.88458659
   Correlation         :    -2.92794297
   DIIS-Error          :       0.056404620358
   DIIS coefficients:
      0.60216   0.39784


                         ----------------------------
                         !        ITERATION     4   !
                         ----------------------------
   Total Energy        :    -491.824744859958 Eh
   Energy Change       :      -0.014609521117 Eh
   MAX-DP              :       0.011257546090
   RMS-DP              :       0.000414326792
   Actual Damping      :       0.0000
   Actual Level Shift  :       0.2500 Eh
   Int. Num. El.       :    71.99880168 (UP=   35.99940084 DN=   35.99940084)
   Exchange            :   -49.98966172
   Correlation         :    -2.93219869
   DIIS-Error          :       0.020370156158
   DIIS coefficients:
      0.30087   0.13154   0.56759


                         ----------------------------
                         !        ITERATION     5   !
                         ----------------------------
   Total Energy        :    -491.826280665775 Eh
   Energy Change       :      -0.001535805817 Eh
   MAX-DP              :       0.002917922118
   RMS-DP              :       0.000135282500
   Actual Damping      :       0.0000
   Actual Level Shift  :       0.2500 Eh
   Int. Num. El.       :    71.99880872 (UP=   35.99940436 DN=   35.99940436)
   Exchange            :   -50.01676124
   Correlation         :    -2.93354786
   DIIS-Error          :       0.003451041588
   DIIS coefficients:
      0.06534   0.02008   0.07628   0.83830

                      *** Initiating the SOSCF procedure ***
                           *** Shutting down DIIS ***
                      *** Re-Reading the Fockian *** 
                      *** Removing any level shift *** 

                         ----------------------------
                         !        ITERATION     6   !
                         ----------------------------
   Total Energy        :    -491.826331531310 Eh
   Energy Change       :      -0.000050865534 Eh
   MAX-DP              :       0.000874052739
   RMS-DP              :       0.000037010291
   Orbital gradient    :       0.000465768833
   Orbital Rotation    :       0.000465768833
   Actual Damping      :       0.0000
   Int. Num. El.       :    71.99880546 (UP=   35.99940273 DN=   35.99940273)
   Exchange            :   -50.02600695
   Correlation         :    -2.93384124

               *** Restarting incremental Fock matrix formation ***

                         ----------------------------
                         !        ITERATION     7   !
                         ----------------------------
   Total Energy        :    -491.826337091604 Eh
   Energy Change       :      -0.000005560294 Eh
   MAX-DP              :       0.000476176122
   RMS-DP              :       0.000021058208
   Orbital gradient    :       0.000123456668
   Orbital Rotation    :       0.000439524923
   Actual Damping      :       0.0000
   Int. Num. El.       :    71.99880576 (UP=   35.99940288 DN=   35.99940288)
   Exchange            :   -50.02548414
   Correlation         :    -2.93383516


                         ----------------------------
                         !        ITERATION     8   !
                         ----------------------------
   Total Energy        :    -491.826337164965 Eh
   Energy Change       :      -0.000000073361 Eh
   MAX-DP              :       0.000363775167
   RMS-DP              :       0.000010855994
   Orbital gradient    :       0.000198713009
   Orbital Rotation    :       0.000374988911
   Actual Damping      :       0.0000
   Int. Num. El.       :    71.99880471 (UP=   35.99940235 DN=   35.99940235)
   Exchange            :   -50.02549738
   Correlation         :    -2.93383437


                         ----------------------------
                         !        ITERATION     9   !
                         ----------------------------
   Total Energy        :    -491.826337859142 Eh
   Energy Change       :      -0.000000694177 Eh
   MAX-DP              :       0.000280769144
   RMS-DP              :       0.000006639211
   Orbital gradient    :       0.000068497373
   Orbital Rotation    :       0.000233858136
   Actual Damping      :       0.0000
   Int. Num. El.       :    71.99880488 (UP=   35.99940244 DN=   35.99940244)
   Exchange            :   -50.02564983
   Correlation         :    -2.93383785


                         ----------------------------
                         !        ITERATION    10   !
                         ----------------------------
   Total Energy        :    -491.826337771373 Eh
   Energy Change       :       0.000000087769 Eh
   MAX-DP              :       0.000206506359
   RMS-DP              :       0.000003873427
   Orbital gradient    :       0.000139614204
   Orbital Rotation    :       0.000181023677
   Actual Damping      :       0.0000
   Int. Num. El.       :    71.99880507 (UP=   35.99940254 DN=   35.99940254)
   Exchange            :   -50.02550351
   Correlation         :    -2.93383382


                         ----------------------------
                         !        ITERATION    11   !
                         ----------------------------
   Total Energy        :    -491.826337907965 Eh
   Energy Change       :      -0.000000136592 Eh
   MAX-DP              :       0.000099642641
   RMS-DP              :       0.000003266855
   Orbital gradient    :       0.000028387635
   Orbital Rotation    :       0.000079472314
   Actual Damping      :       0.0000
   Int. Num. El.       :    71.99880503 (UP=   35.99940252 DN=   35.99940252)
   Exchange            :   -50.02550211
   Correlation         :    -2.93383377


                         ----------------------------
                         !        ITERATION    12   !
                         ----------------------------
   Total Energy        :    -491.826337890273 Eh
   Energy Change       :       0.000000017692 Eh
   MAX-DP              :       0.000058531116
   RMS-DP              :       0.000001774485
   Orbital gradient    :       0.000036295159
   Orbital Rotation    :       0.000031355658
   Actual Damping      :       0.0000
   Int. Num. El.       :    71.99880496 (UP=   35.99940248 DN=   35.99940248)
   Exchange            :   -50.02562026
   Correlation         :    -2.93383729


                         ----------------------------
                         !        ITERATION    13   !
                         ----------------------------
   Total Energy        :    -491.826337919762 Eh
   Energy Change       :      -0.000000029488 Eh
   MAX-DP              :       0.000024060381
   RMS-DP              :       0.000000715993
   Orbital gradient    :       0.000006316724
   Orbital Rotation    :       0.000012164576
   Actual Damping      :       0.0000
   Int. Num. El.       :    71.99880499 (UP=   35.99940250 DN=   35.99940250)
   Exchange            :   -50.02557414
   Correlation         :    -2.93383605


                         ----------------------------
                         !        ITERATION    14   !
                         ----------------------------
   Total Energy        :    -491.826337919015 Eh
   Energy Change       :       0.000000000747 Eh
   MAX-DP              :       0.000013656638
   RMS-DP              :       0.000000376938
   Orbital gradient    :       0.000006963435
   Orbital Rotation    :       0.000006344974
   Actual Damping      :       0.0000
   Int. Num. El.       :    71.99880500 (UP=   35.99940250 DN=   35.99940250)
   Exchange            :   -50.02553487
   Correlation         :    -2.93383457

                  ***Gradient check signals convergence***
              ***Rediagonalizing the Fockian in SOSCF/NRSCF***

               *****************************************************
               *                     SUCCESS                       *
               *           SCF CONVERGED AFTER  15 CYCLES          *
               *****************************************************

Setting up the final grid:

General Integration Accuracy     IntAcc      ...  5.010
Radial Grid Type                 RadialGrid  ... Gauss-Chebyshev
Angular Grid (max. acc.)         AngularGrid ... Lebedev-434
Angular grid pruning method      GridPruning ... 3 (G Style)
Weight generation scheme         WeightScheme... Becke
Basis function cutoff            BFCut       ...    1.0000e-11
Integration weight cutoff        WCut        ...    1.0000e-14
Grids for H and He will be reduced by one unit

# of grid points (after initial pruning)     ... 147204 (   0.1 sec)
# of grid points (after weights+screening)   ... 134723 (   0.3 sec)
nearest neighbour list constructed           ...    0.0 sec
Grid point re-assignment to atoms done       ...    0.0 sec
Grid point division into batches done        ...    0.8 sec
Reduced shell lists constructed in    1.5 sec

Total number of grid points                  ...   134723
Total number of batches                      ...     2113
Average number of points per batch           ...       63
Average number of grid points per atom       ...     8420
Average number of shells per batch           ...    42.55 (59.10%)
Average number of basis functions per batch  ...    91.31 (60.07%)
Average number of large shells per batch     ...    31.63 (74.33%)
Average number of large basis fcns per batch ...    68.52 (75.04%)
Maximum spatial batch extension              ...  17.01, 15.03, 24.11 au
Average spatial batch extension              ...   2.00,  1.97,  2.23 au

Final grid set up in    1.8 sec
Final integration                            ... done (   1.2 sec)
Change in XC energy                          ...    -0.000334292
Integrated number of electrons               ...    71.999980533
Previous integrated no of electrons          ...    71.998804999

----------------
TOTAL SCF ENERGY
----------------

Total Energy       :         -491.82667221 Eh          -13383.28414 eV

Components:
Nuclear Repulsion  :          496.94995676 Eh           13522.69580 eV
Electronic Energy  :         -988.77662897 Eh          -26905.97995 eV
One Electron Energy:        -1653.95685452 Eh          -45006.45410 eV
Two Electron Energy:          665.18022555 Eh           18100.47415 eV

Virial components:
Potential Energy   :         -980.76422569 Eh          -26687.95137 eV
Kinetic Energy     :          488.93755347 Eh           13304.66723 eV
Virial Ratio       :            2.00590897


DFT components:
N(Alpha)           :       35.999990266475 electrons
N(Beta)            :       35.999990266475 electrons
N(Total)           :       71.999980532951 electrons
E(X)               :      -50.025878987160 Eh       
E(C)               :       -2.933844534069 Eh       
E(XC)              :      -52.959723521229 Eh       
DFET-embed. en.    :        0.000000000000 Eh       

---------------
SCF CONVERGENCE
---------------

  Last Energy change         ...   -1.1722e-09  Tolerance :   1.0000e-08
  Last MAX-Density change    ...    4.0099e-06  Tolerance :   1.0000e-07
  Last RMS-Density change    ...    1.4486e-07  Tolerance :   5.0000e-09
  Last Orbital Gradient      ...    1.1831e-06  Tolerance :   1.0000e-05
  Last Orbital Rotation      ...    2.4186e-06  Tolerance :   1.0000e-05

             **** THE GBW FILE WAS UPDATED (/Users/lailaal-madhagi/Desktop/Testing_XAS_Analysis_code/MetaNitroAniline//Results_dir_MetaNitroAniline_geom_element_O_2019-11-11_21-06-33//GTE1_MetaNitroAniline_geom_2019-11-11_21-06-47//freq.gbw) ****
             **** DENSITY FILE WAS UPDATED (/Users/lailaal-madhagi/Desktop/Testing_XAS_Analysis_code/MetaNitroAniline//Results_dir_MetaNitroAniline_geom_element_O_2019-11-11_21-06-33//GTE1_MetaNitroAniline_geom_2019-11-11_21-06-47//freq.scfp.tmp) ****
             **** ENERGY FILE WAS UPDATED (/Users/lailaal-madhagi/Desktop/Testing_XAS_Analysis_code/MetaNitroAniline//Results_dir_MetaNitroAniline_geom_element_O_2019-11-11_21-06-33//GTE1_MetaNitroAniline_geom_2019-11-11_21-06-47//freq.en.tmp) ****
----------------
ORBITAL ENERGIES
----------------

  NO   OCC          E(Eh)            E(eV) 
   0   2.0000     -19.164999      -521.5061 
   1   2.0000     -19.164879      -521.5029 
   2   2.0000     -14.555091      -396.0642 
   3   2.0000     -14.350319      -390.4920 
   4   2.0000     -10.246122      -278.8111 
   5   2.0000     -10.236042      -278.5369 
   6   2.0000     -10.198475      -277.5146 
   7   2.0000     -10.196014      -277.4476 
   8   2.0000     -10.195216      -277.4259 
   9   2.0000     -10.190200      -277.2894 
  10   2.0000      -1.211316       -32.9616 
  11   2.0000      -1.038317       -28.2540 
  12   2.0000      -0.936194       -25.4751 
  13   2.0000      -0.864649       -23.5283 
  14   2.0000      -0.789257       -21.4768 
  15   2.0000      -0.747384       -20.3374 
  16   2.0000      -0.691819       -18.8253 
  17   2.0000      -0.623881       -16.9767 
  18   2.0000      -0.596026       -16.2187 
  19   2.0000      -0.551872       -15.0172 
  20   2.0000      -0.537014       -14.6129 
  21   2.0000      -0.518820       -14.1178 
  22   2.0000      -0.499801       -13.6003 
  23   2.0000      -0.494735       -13.4624 
  24   2.0000      -0.487449       -13.2642 
  25   2.0000      -0.445783       -12.1304 
  26   2.0000      -0.440792       -11.9946 
  27   2.0000      -0.397616       -10.8197 
  28   2.0000      -0.385121       -10.4797 
  29   2.0000      -0.369156       -10.0453 
  30   2.0000      -0.325881        -8.8677 
  31   2.0000      -0.297554        -8.0969 
  32   2.0000      -0.295313        -8.0359 
  33   2.0000      -0.278482        -7.5779 
  34   2.0000      -0.268069        -7.2945 
  35   2.0000      -0.213670        -5.8142 
  36   0.0000      -0.075899        -2.0653 
  37   0.0000      -0.001537        -0.0418 
  38   0.0000       0.022552         0.6137 
  39   0.0000       0.066077         1.7980 
  40   0.0000       0.092990         2.5304 
  41   0.0000       0.107182         2.9166 
  42   0.0000       0.155501         4.2314 
  43   0.0000       0.161276         4.3885 
  44   0.0000       0.164297         4.4707 
  45   0.0000       0.189821         5.1653 
  46   0.0000       0.202754         5.5172 
  47   0.0000       0.248634         6.7657 
  48   0.0000       0.282050         7.6750 
  49   0.0000       0.292153         7.9499 
  50   0.0000       0.299539         8.1509 
  51   0.0000       0.329952         8.9785 
  52   0.0000       0.366649         9.9770 
  53   0.0000       0.399737        10.8774 
  54   0.0000       0.459354        12.4996 
  55   0.0000       0.487066        13.2537 
  56   0.0000       0.508716        13.8429 
  57   0.0000       0.527171        14.3451 
  58   0.0000       0.561638        15.2829 
  59   0.0000       0.573400        15.6030 
  60   0.0000       0.576666        15.6919 
  61   0.0000       0.584676        15.9098 
  62   0.0000       0.595945        16.2165 
  63   0.0000       0.605955        16.4889 
  64   0.0000       0.617325        16.7983 
  65   0.0000       0.638446        17.3730 
  66   0.0000       0.649044        17.6614 
  67   0.0000       0.658527        17.9194 
  68   0.0000       0.668775        18.1983 
  69   0.0000       0.723680        19.6923 
  70   0.0000       0.732219        19.9247 
  71   0.0000       0.760861        20.7041 
  72   0.0000       0.791193        21.5295 
  73   0.0000       0.794451        21.6181 
  74   0.0000       0.823043        22.3962 
  75   0.0000       0.829225        22.5644 
  76   0.0000       0.848653        23.0930 
  77   0.0000       0.861352        23.4386 
  78   0.0000       0.865757        23.5585 
  79   0.0000       0.890868        24.2418 
  80   0.0000       0.894642        24.3444 
  81   0.0000       0.943189        25.6655 
  82   0.0000       0.960038        26.1240 
  83   0.0000       0.964922        26.2569 
  84   0.0000       0.981120        26.6976 
  85   0.0000       1.005939        27.3730 
  86   0.0000       1.010468        27.4962 
  87   0.0000       1.042113        28.3573 
  88   0.0000       1.071901        29.1679 
  89   0.0000       1.100480        29.9456 
  90   0.0000       1.133271        30.8379 
  91   0.0000       1.157824        31.5060 
  92   0.0000       1.203843        32.7582 
  93   0.0000       1.228361        33.4254 
  94   0.0000       1.287965        35.0473 
  95   0.0000       1.324699        36.0469 
  96   0.0000       1.328754        36.1572 
  97   0.0000       1.342403        36.5287 
  98   0.0000       1.348243        36.6876 
  99   0.0000       1.399113        38.0718 
 100   0.0000       1.435252        39.0552 
 101   0.0000       1.449668        39.4475 
 102   0.0000       1.469962        39.9997 
 103   0.0000       1.472773        40.0762 
 104   0.0000       1.525956        41.5234 
 105   0.0000       1.599770        43.5319 
 106   0.0000       1.632108        44.4119 
 107   0.0000       1.648056        44.8459 
 108   0.0000       1.724313        46.9209 
 109   0.0000       1.742965        47.4285 
 110   0.0000       1.755996        47.7831 
 111   0.0000       1.783551        48.5329 
 112   0.0000       1.802829        49.0575 
 113   0.0000       1.818782        49.4916 
 114   0.0000       1.848930        50.3119 
 115   0.0000       1.884073        51.2682 
 116   0.0000       1.889808        51.4243 
 117   0.0000       1.929559        52.5060 
 118   0.0000       1.942027        52.8452 
 119   0.0000       1.955940        53.2238 
 120   0.0000       1.962886        53.4128 
 121   0.0000       2.002508        54.4910 
 122   0.0000       2.036607        55.4189 
 123   0.0000       2.069095        56.3029 
 124   0.0000       2.119469        57.6737 
 125   0.0000       2.148572        58.4656 
 126   0.0000       2.149635        58.4945 
 127   0.0000       2.186869        59.5077 
 128   0.0000       2.224386        60.5286 
 129   0.0000       2.244356        61.0720 
 130   0.0000       2.276675        61.9515 
 131   0.0000       2.288942        62.2853 
 132   0.0000       2.364636        64.3450 
 133   0.0000       2.426599        66.0311 
 134   0.0000       2.430037        66.1247 
 135   0.0000       2.455814        66.8261 
 136   0.0000       2.529944        68.8433 
 137   0.0000       2.573829        70.0374 
 138   0.0000       2.595418        70.6249 
 139   0.0000       2.620731        71.3137 
 140   0.0000       2.645816        71.9963 
 141   0.0000       2.716048        73.9074 
 142   0.0000       2.721080        74.0443 
 143   0.0000       2.788702        75.8844 
 144   0.0000       2.796714        76.1025 
 145   0.0000       2.868244        78.0489 
 146   0.0000       2.918032        79.4037 
 147   0.0000       2.932570        79.7993 
 148   0.0000       3.040208        82.7283 
 149   0.0000       3.093455        84.1772 
 150   0.0000       3.201435        87.1155 
 151   0.0000       3.421860        93.1135 
------------------
MOLECULAR ORBITALS
------------------
                      0         1         2         3         4         5   
                 -19.16500 -19.16488 -14.55509 -14.35032 -10.24612 -10.23604
                   2.00000   2.00000   2.00000   2.00000   2.00000   2.00000
                  --------  --------  --------  --------  --------  --------
  0C   1s        -0.000023  0.000008 -0.000047  0.000023  0.000231  0.004782
  0C   2s        -0.000261  0.000201 -0.000502  0.000232  0.000601 -0.002023
  0C   1pz       -0.000003 -0.000003 -0.000001 -0.000005 -0.000010  0.000054
  0C   1px        0.000003  0.000253 -0.000040  0.000046  0.000060 -0.000996
  0C   1py       -0.000071  0.000049 -0.000035 -0.000099 -0.000191  0.000729
  0C   3s         0.007351  0.003781  0.004307 -0.001362 -0.004665  0.014320
  0C   2pz       -0.000228 -0.000031 -0.000184  0.000043  0.000143 -0.000377
  0C   2px        0.006877  0.000406 -0.001363  0.000046  0.000671  0.000539
  0C   2py       -0.001814 -0.000490 -0.004779  0.001000  0.003516 -0.008182
  0C   1dz2      -0.000027  0.000058 -0.000156  0.000037  0.000096  0.000545
  0C   1dxz      -0.000009  0.000006 -0.000002  0.000002  0.000004  0.000077
  0C   1dyz       0.000005 -0.000015  0.000030 -0.000001 -0.000005 -0.000031
  0C   1dx2y2     0.000018  0.000163 -0.000360 -0.000042 -0.000051 -0.000701
  0C   1dxy      -0.000177  0.000161 -0.000093 -0.000012 -0.000019  0.000927
  1C   1s        -0.000023  0.000041 -0.000042  0.000003  0.000009 -0.000020
  1C   2s        -0.000178  0.000283 -0.000385  0.000092  0.000036 -0.000190
  1C   1pz       -0.000003 -0.000001  0.000005 -0.000011 -0.000019  0.000006
  1C   1px       -0.000052  0.000005 -0.000261  0.000066  0.000102 -0.000364
  1C   1py       -0.000093 -0.000030 -0.000008 -0.000219 -0.000372 -0.000047
  1C   3s         0.001639 -0.002548 -0.001859  0.004265  0.008120 -0.006731
  1C   2pz        0.000090  0.000053 -0.000046 -0.000076 -0.000164  0.000067
  1C   2px        0.001261 -0.001115  0.000219  0.001029  0.003428 -0.002237
  1C   2py        0.002626  0.000640 -0.000926 -0.001218 -0.002023  0.000427
  1C   1dz2      -0.000070  0.000092 -0.000115  0.000043  0.000066 -0.000097
  1C   1dxz      -0.000001  0.000001 -0.000004 -0.000000  0.000002 -0.000007
  1C   1dyz       0.000002 -0.000005  0.000009 -0.000003 -0.000001  0.000010
  1C   1dx2y2     0.000043 -0.000024  0.000008  0.000007 -0.000066 -0.000023
  1C   1dxy       0.000049 -0.000058  0.000000 -0.000035 -0.000048 -0.000078
  2C   1s         0.000014 -0.000040 -0.000003 -0.000001  0.000282  0.995008
  2C   2s         0.000004 -0.000078 -0.000262  0.000160  0.000110  0.036422
  2C   1pz        0.000003  0.000004 -0.000002 -0.000005 -0.000008 -0.000004
  2C   1px       -0.000161  0.000201 -0.000387 -0.000118 -0.000166  0.000203
  2C   1py       -0.000001  0.000186 -0.000232 -0.000172 -0.000260  0.000022
  2C   3s        -0.000467  0.001994  0.008365  0.005160  0.009131 -0.025383
  2C   2pz       -0.000718 -0.000389  0.000048 -0.000058 -0.000117  0.000052
  2C   2px        0.008587  0.000803  0.015343  0.001010 -0.000595  0.013481
  2C   2py       -0.011949 -0.008328  0.008465 -0.000843 -0.002908  0.007654
  2C   1dz2      -0.000042  0.000059 -0.000112 -0.000002  0.000017 -0.001050
  2C   1dxz      -0.000025 -0.000008 -0.000008  0.000004  0.000007 -0.000037
  2C   1dyz      -0.000010 -0.000013  0.000014 -0.000004 -0.000001  0.000077
  2C   1dx2y2     0.000448  0.000232 -0.000065  0.000032 -0.000053  0.000060
  2C   1dxy      -0.000297 -0.000114 -0.000107  0.000102  0.000108  0.000073
  3C   1s         0.000000  0.000006 -0.000015  0.000067 -0.003653 -0.000296
  3C   2s        -0.000011  0.000062 -0.000215  0.000623  0.002129 -0.000601
  3C   1pz        0.000002  0.000002  0.000001 -0.000001 -0.000044  0.000001
  3C   1px       -0.000022 -0.000013 -0.000164  0.000004  0.001011 -0.000235
  3C   1py        0.000033  0.000033 -0.000067 -0.000018 -0.000489 -0.000094
  3C   3s        -0.000050 -0.000488 -0.001053 -0.006861 -0.017236  0.002513
  3C   2pz        0.000082  0.000080  0.000001 -0.000066  0.000082  0.000040
  3C   2px       -0.001330  0.000181 -0.000271 -0.005118 -0.010115  0.002034
  3C   2py        0.001192  0.001879 -0.000113 -0.003906 -0.003030  0.001873
  3C   1dz2      -0.000007  0.000027 -0.000040  0.000185 -0.000474 -0.000104
  3C   1dxz       0.000002  0.000003 -0.000002  0.000003 -0.000068 -0.000004
  3C   1dyz       0.000002 -0.000003  0.000006  0.000005  0.000046  0.000010
  3C   1dx2y2    -0.000051  0.000005 -0.000041 -0.000318  0.000278 -0.000034
  3C   1dxy       0.000017  0.000046 -0.000033 -0.000225 -0.000993 -0.000012
  4C   1s        -0.000022  0.000045 -0.000027 -0.000146 -0.995129  0.000299
  4C   2s        -0.000161  0.000387 -0.000405  0.000111 -0.036872 -0.000128
  4C   1pz       -0.000003 -0.000004 -0.000008 -0.000044  0.000010 -0.000010
  4C   1px        0.000064  0.000129 -0.000087 -0.000013 -0.000041 -0.000103
  4C   1py       -0.000032 -0.000019 -0.000216 -0.000997  0.000214 -0.000281
  4C   3s         0.000925 -0.002708 -0.003374 -0.004732  0.030575 -0.008190
  4C   2pz        0.000107  0.000023  0.000147  0.000801  0.000837  0.000034
  4C   2px       -0.001334 -0.004033 -0.001259  0.000088  0.000358 -0.002869
  4C   2py        0.001768 -0.001433  0.002688  0.017894  0.018928 -0.000603
  4C   1dz2      -0.000028  0.000086 -0.000019 -0.000317  0.000997  0.000001
  4C   1dxz      -0.000001  0.000001 -0.000004  0.000004  0.000024 -0.000007
  4C   1dyz       0.000001 -0.000000 -0.000004  0.000055 -0.000103 -0.000002
  4C   1dx2y2     0.000026 -0.000099  0.000124 -0.000696  0.000597  0.000091
  4C   1dxy       0.000010 -0.000091 -0.000011  0.000015 -0.000012 -0.000104
  5C   1s         0.000008  0.000015 -0.000055  0.000072 -0.003746  0.005477
  5C   2s        -0.000003  0.000278 -0.000570  0.000654  0.002254 -0.002147
  5C   1pz       -0.000005  0.000000 -0.000000 -0.000001 -0.000001 -0.000059
  5C   1px       -0.000093  0.000152 -0.000052 -0.000022 -0.001083  0.000099
  5C   1py       -0.000152  0.000082 -0.000026 -0.000033 -0.000537 -0.001282
  5C   3s        -0.007872 -0.002762  0.004437 -0.006882 -0.018722  0.015890
  5C   2pz       -0.000196 -0.000212  0.000123 -0.000280 -0.000369  0.000314
  5C   2px       -0.000645 -0.002568 -0.004499  0.004506  0.009656 -0.006989
  5C   2py       -0.004700 -0.005983  0.000589 -0.004075 -0.003627  0.003684
  5C   1dz2      -0.000031  0.000043 -0.000170  0.000192 -0.000458  0.000524
  5C   1dxz      -0.000008  0.000007 -0.000022  0.000023  0.000017 -0.000011
  5C   1dyz       0.000003 -0.000017  0.000018 -0.000006 -0.000000 -0.000088
  5C   1dx2y2     0.000047  0.000193  0.000054 -0.000291  0.000351  0.001124
  5C   1dxy      -0.000130  0.000214 -0.000322  0.000202  0.000928 -0.000138
  6N   1s        -0.000005  0.000017 -0.000080 -0.995279 -0.000159 -0.000036
  6N   2s        -0.000044  0.000176 -0.000396 -0.032858 -0.000670 -0.000357
  6N   1pz       -0.000000  0.000003 -0.000000 -0.000011  0.000044  0.000000
  6N   1px        0.000035  0.000013 -0.000015  0.000004  0.000019 -0.000042
  6N   1py        0.000012  0.000065 -0.000010 -0.000466  0.000996 -0.000014
  6N   3s         0.000789 -0.000674  0.002837  0.030597  0.008359  0.001954
  6N   2pz        0.000014 -0.000040  0.000061  0.000282  0.000238  0.000040
  6N   2px       -0.000094  0.000537  0.000268  0.000049 -0.000056  0.000774
  6N   2py        0.000274 -0.000623  0.001495  0.006689  0.005282  0.001261
  6N   1dz2       0.000007  0.000064 -0.000071 -0.000084 -0.001135 -0.000072
  6N   1dxz       0.000001  0.000004 -0.000000  0.000001 -0.000004  0.000000
  6N   1dyz      -0.000000 -0.000007  0.000011  0.000015  0.000165  0.000010
  6N   1dx2y2    -0.000013  0.000030 -0.000115 -0.000207 -0.001743 -0.000118
  6N   1dxy       0.000010  0.000048  0.000005  0.000003  0.000031  0.000023
  7N   1s         0.000065 -0.000128  0.995289 -0.000009  0.000029  0.000200
  7N   2s        -0.000111  0.000250  0.033220  0.000337  0.000377  0.001106
  7N   1pz       -0.000015 -0.000006  0.000002 -0.000001 -0.000002  0.000001
  7N   1px        0.000005  0.000349  0.000596 -0.000021 -0.000024  0.000174
  7N   1py       -0.000335  0.000041  0.000339 -0.000037 -0.000068  0.000107
  7N   3s         0.005577 -0.011930 -0.021166 -0.001608 -0.000956 -0.007148
  7N   2pz        0.001000  0.000457  0.000030  0.000018  0.000056  0.000004
  7N   2px       -0.006350 -0.011587  0.011075  0.000932  0.000688  0.006210
  7N   2py        0.019331  0.004638  0.006013  0.000854  0.001584  0.003092
  7N   1dz2       0.000086 -0.000165 -0.000736  0.000053  0.000045  0.001096
  7N   1dxz      -0.000008 -0.000032 -0.000064  0.000001  0.000001  0.000004
  7N   1dyz      -0.000032  0.000033  0.000113 -0.000001  0.000001 -0.000028
  7N   1dx2y2     0.000555 -0.000130 -0.000705 -0.000044 -0.000067 -0.000703
  7N   1dxy       0.000015 -0.000651 -0.001144 -0.000047 -0.000054 -0.001162
  8O   1s         0.939482 -0.328289  0.000134  0.000002  0.000008 -0.000002
  8O   2s         0.028586 -0.009223  0.000568  0.000054  0.000124 -0.000054
  8O   1pz       -0.000093  0.000026  0.000033 -0.000001 -0.000000 -0.000002
  8O   1px       -0.000056  0.000125  0.000023  0.000008  0.000010  0.000166
  8O   1py       -0.002110  0.000634  0.000755 -0.000008  0.000000  0.000045
  8O   3s        -0.026596  0.003913 -0.002986 -0.000267 -0.000871 -0.000464
  8O   2pz        0.000433 -0.000100  0.000138  0.000007  0.000019  0.000021
  8O   2px        0.000898  0.001760 -0.001447 -0.000169 -0.000200 -0.001349
  8O   2py        0.010131 -0.001379  0.002387  0.000072  0.000337 -0.000182
  8O   1dz2       0.000494  0.000028  0.001216  0.000007  0.000019 -0.000129
  8O   1dxz      -0.000009 -0.000029  0.000025  0.000002  0.000003  0.000010
  8O   1dyz      -0.000068  0.000020 -0.000180 -0.000001 -0.000003  0.000005
  8O   1dx2y2     0.000783 -0.000150  0.001731 -0.000008  0.000018 -0.000037
  8O   1dxy      -0.000237 -0.000737  0.000385  0.000044  0.000052  0.000305
  9H   1s         0.000031  0.000009 -0.000128  0.000177 -0.000028 -0.000182
  9H   2s         0.000011 -0.000422  0.000186 -0.002803  0.000612  0.000043
 10H   1s        -0.000064  0.000052 -0.000045  0.000166 -0.000079  0.000039
 10H   2s         0.000038 -0.000033  0.000248 -0.002787  0.000613  0.000333
 11O   1s        -0.328359 -0.939459  0.000136  0.000002  0.000004  0.000001
 11O   2s        -0.010608 -0.028139  0.000583  0.000081  0.000116 -0.000033
 11O   1pz       -0.000036 -0.000082 -0.000031  0.000001  0.000001  0.000003
 11O   1px        0.000662  0.001809  0.000654 -0.000032 -0.000053  0.000141
 11O   1py       -0.000479 -0.000952 -0.000371  0.000002 -0.000001  0.000125
 11O   3s         0.013556  0.023333 -0.003130 -0.000080  0.000060 -0.000817
 11O   2pz        0.000169  0.000378 -0.000142 -0.000003 -0.000002 -0.000036
 11O   2px       -0.005512 -0.007316  0.001323 -0.000025 -0.000046 -0.000737
 11O   2py        0.001113  0.004913 -0.002531 -0.000086 -0.000061 -0.001156
 11O   1dz2      -0.000338 -0.000377  0.001216  0.000022  0.000046 -0.000130
 11O   1dxz      -0.000031 -0.000049  0.000132 -0.000001 -0.000001 -0.000005
 11O   1dyz      -0.000010  0.000042 -0.000113 -0.000003 -0.000005 -0.000005
 11O   1dx2y2     0.000822  0.000075 -0.000432  0.000034  0.000049  0.000276
 11O   1dxy      -0.000016 -0.000745  0.001730 -0.000016 -0.000028  0.000124
 12H   1s        -0.000369  0.000061  0.000201 -0.000016 -0.000113  0.000052
 12H   2s         0.000836 -0.000154  0.001502 -0.000320 -0.001063  0.001986
 13H   1s        -0.000118  0.000012  0.000089 -0.000004  0.000078  0.000026
 13H   2s        -0.000060 -0.000378  0.000675  0.000042  0.000546  0.000071
 14H   1s        -0.000061  0.000134  0.000006 -0.000222 -0.000022  0.000143
 14H   2s        -0.000174  0.000374  0.000023 -0.001912 -0.002933  0.000852
 15H   1s         0.000153  0.000334  0.000153 -0.000190  0.000007 -0.000004
 15H   2s        -0.000526 -0.000695  0.001171 -0.001743 -0.002721  0.001667
                      6         7         8         9        10        11   
                 -10.19848 -10.19601 -10.19522 -10.19020  -1.21132  -1.03832
                   2.00000   2.00000   2.00000   2.00000   2.00000   2.00000
                  --------  --------  --------  --------  --------  --------
  0C   1s         0.026196  0.003497  0.000359  0.994779 -0.004203 -0.004450
  0C   2s        -0.001195 -0.000176 -0.000033  0.036799  0.010861  0.009149
  0C   1pz        0.000006 -0.000006 -0.000011 -0.000052 -0.000201 -0.000057
  0C   1px        0.001159  0.000006  0.000092  0.000100  0.007773  0.005398
  0C   1py        0.000692 -0.000121 -0.000192 -0.001130 -0.000769  0.001328
  0C   3s         0.012272  0.007997  0.005225 -0.034395 -0.012370 -0.023359
  0C   2pz       -0.000188 -0.000192 -0.000145  0.000379  0.000853  0.000706
  0C   2px       -0.001698 -0.000636  0.000069 -0.000287 -0.000807 -0.020993
  0C   2py       -0.005032 -0.004601 -0.003218  0.008371  0.018756  0.005752
  0C   1dz2       0.000588  0.000079  0.000057 -0.000626 -0.000382 -0.000480
  0C   1dxz      -0.000007  0.000004  0.000001 -0.000031 -0.000038 -0.000005
  0C   1dyz       0.000002 -0.000001  0.000001  0.000030 -0.000063  0.000042
  0C   1dx2y2    -0.000606 -0.000107 -0.000083  0.000391  0.001900 -0.000210
  0C   1dxy      -0.000942 -0.000022 -0.000072  0.000022  0.000367  0.000190
  1C   1s         0.990571  0.091550 -0.002240 -0.026585 -0.000196 -0.000527
  1C   2s         0.036140  0.005540  0.000417 -0.003133  0.002873  0.001098
  1C   1pz       -0.000034 -0.000064 -0.000006 -0.000003 -0.000030  0.000018
  1C   1px        0.000765  0.000077  0.000105 -0.001184  0.001656  0.000858
  1C   1py       -0.000392 -0.001402 -0.000077 -0.000627  0.000130  0.000809
  1C   3s        -0.030568 -0.017298 -0.004710  0.015159  0.000891 -0.000994
  1C   2pz        0.000270  0.000346  0.000127 -0.000206  0.000190 -0.000363
  1C   2px       -0.005828 -0.005090 -0.002527  0.006849 -0.004346 -0.002059
  1C   2py        0.003241  0.005290  0.001624 -0.001308  0.002153 -0.009132
  1C   1dz2      -0.000539 -0.000663  0.000084  0.000639  0.000360 -0.000093
  1C   1dxz       0.000001  0.000008  0.000003 -0.000013  0.000010  0.000001
  1C   1dyz       0.000041  0.000100 -0.000006 -0.000005 -0.000024  0.000004
  1C   1dx2y2    -0.000159 -0.001169  0.000004 -0.000483 -0.000034  0.000023
  1C   1dxy       0.000386  0.000161 -0.000012 -0.001054 -0.000103  0.000110
  2C   1s        -0.000085 -0.000200  0.005689 -0.004976 -0.026183  0.000185
  2C   2s        -0.000211  0.000565  0.002454 -0.002392  0.051186 -0.000194
  2C   1pz       -0.000005 -0.000001 -0.000062 -0.000057  0.000123  0.001111
  2C   1px        0.000252 -0.000117 -0.000014  0.001169  0.038520 -0.010844
  2C   1py       -0.000000 -0.000084 -0.001404 -0.000724  0.021298  0.019642
  2C   3s        -0.004313 -0.005429 -0.014644  0.015603 -0.011393 -0.002092
  2C   2pz       -0.000089 -0.000008  0.000161  0.000124 -0.000246  0.002723
  2C   2px        0.001067  0.004448  0.003767 -0.006392 -0.063345 -0.026932
  2C   2py       -0.001493  0.001970  0.005425 -0.000287 -0.035975  0.048029
  2C   1dz2      -0.000028  0.000064 -0.000646  0.000644 -0.003830  0.000065
  2C   1dxz       0.000003  0.000005 -0.000006  0.000081  0.000020  0.000262
  2C   1dyz       0.000006 -0.000007  0.000105 -0.000055  0.000036  0.000157
  2C   1dx2y2    -0.000111  0.000012 -0.001146 -0.000404  0.003300 -0.005218
  2C   1dxy       0.000047  0.000063 -0.000153  0.001090  0.005240  0.003292
  3C   1s         0.091424 -0.990927 -0.000716  0.001131 -0.000139  0.000060
  3C   2s         0.001175 -0.036637  0.000043  0.000180  0.001282 -0.000184
  3C   1pz       -0.000059 -0.000005 -0.000006 -0.000005  0.000001  0.000007
  3C   1px        0.000020 -0.000816  0.000232 -0.000097  0.000790 -0.000115
  3C   1py       -0.001320 -0.000501 -0.000031 -0.000160  0.000399  0.000101
  3C   3s         0.010447  0.034619  0.004851 -0.006986  0.002254  0.001026
  3C   2pz        0.000104  0.000017  0.000025 -0.000023  0.000074 -0.000371
  3C   2px        0.003211  0.007186  0.002252 -0.003307  0.001687  0.004323
  3C   2py        0.003880  0.003840  0.001635 -0.002097  0.002500 -0.006231
  3C   1dz2       0.000558  0.000636  0.000066 -0.000048  0.000080 -0.000004
  3C   1dxz      -0.000001  0.000032  0.000000 -0.000005  0.000008 -0.000005
  3C   1dyz      -0.000094 -0.000075 -0.000007  0.000005 -0.000017 -0.000003
  3C   1dx2y2     0.001102  0.000387  0.000061  0.000005  0.000162  0.000111
  3C   1dxy       0.000042  0.000370 -0.000025 -0.000061  0.000185 -0.000063
  4C   1s        -0.000302  0.003828  0.003961  0.000108 -0.000269  0.000821
  4C   2s        -0.000255  0.002237  0.002285 -0.000565  0.002947 -0.001580
  4C   1pz       -0.000015  0.000051  0.000005 -0.000006  0.000037  0.000020
  4C   1px        0.000195 -0.001096  0.001126  0.000002  0.000943 -0.001219
  4C   1py       -0.000232  0.000623  0.000661 -0.000144  0.001291 -0.000143
  4C   3s        -0.003699 -0.014311 -0.013231  0.004783  0.006454  0.000290
  4C   2pz       -0.000053 -0.000347 -0.000210  0.000219 -0.000495 -0.000432
  4C   2px        0.001342  0.002784 -0.003301 -0.000299 -0.002059  0.009658
  4C   2py       -0.000531 -0.006420 -0.006278  0.004757 -0.012119 -0.005010
  4C   1dz2       0.000039 -0.000635 -0.000653 -0.000048  0.000081  0.000137
  4C   1dxz       0.000009 -0.000080  0.000004 -0.000004  0.000010  0.000002
  4C   1dyz      -0.000009  0.000042  0.000001  0.000002  0.000016 -0.000006
  4C   1dx2y2     0.000043  0.000633  0.000650  0.000055 -0.000465 -0.000066
  4C   1dxy       0.000193 -0.000965  0.000948 -0.000013 -0.000065 -0.000095
  5C   1s        -0.002363  0.000500 -0.995111  0.000428 -0.004378  0.004854
  5C   2s        -0.000424  0.000010 -0.036776  0.000092  0.011352 -0.009841
  5C   1pz       -0.000008  0.000004 -0.000045 -0.000009  0.000246 -0.000095
  5C   1px        0.000148 -0.000199  0.000890  0.000118  0.003542 -0.004088
  5C   1py       -0.000108 -0.000013 -0.000584 -0.000153  0.007213 -0.004109
  5C   3s         0.000304  0.005657  0.034316 -0.005813 -0.011315  0.024134
  5C   2pz        0.000047  0.000145  0.000323 -0.000164 -0.000725  0.000899
  5C   2px       -0.000980 -0.003408 -0.006904  0.003093  0.013258  0.005161
  5C   2py        0.000578  0.001617  0.003917 -0.002186 -0.009813  0.022585
  5C   1dz2      -0.000038  0.000050  0.000599 -0.000051 -0.000388  0.000521
  5C   1dxz      -0.000001  0.000000  0.000001  0.000003  0.000076  0.000029
  5C   1dyz       0.000003 -0.000007 -0.000050  0.000001  0.000012 -0.000029
  5C   1dx2y2    -0.000005  0.000077  0.000243  0.000017 -0.000457 -0.000294
  5C   1dxy      -0.000001 -0.000005 -0.000355  0.000112  0.001797  0.000075
  6N   1s        -0.000021  0.000015  0.000020 -0.000020  0.000084  0.000444
  6N   2s        -0.000213  0.000273  0.000306 -0.000207  0.001411 -0.000841
  6N   1pz       -0.000002  0.000006  0.000004  0.000000  0.000009 -0.000013
  6N   1px        0.000052 -0.000046  0.000041 -0.000005  0.000052 -0.000204
  6N   1py       -0.000023  0.000118  0.000107  0.000003  0.000211 -0.000414
  6N   3s         0.000904 -0.001223 -0.001455  0.002094 -0.010007 -0.003580
  6N   2pz        0.000044 -0.000012 -0.000023  0.000033 -0.000282 -0.000009
  6N   2px       -0.000612 -0.000096  0.000171  0.000108  0.000253 -0.000565
  6N   2py        0.000688 -0.000314 -0.000433  0.000792 -0.006116 -0.000521
  6N   1dz2      -0.000058  0.000110  0.000116 -0.000018  0.000218  0.000009
  6N   1dxz      -0.000000  0.000004  0.000009  0.000000  0.000003 -0.000004
  6N   1dyz       0.000007 -0.000002 -0.000007  0.000002 -0.000032 -0.000000
  6N   1dx2y2    -0.000063 -0.000107 -0.000088 -0.000023  0.000322  0.000031
  6N   1dxy       0.000001 -0.000061  0.000064  0.000005  0.000033 -0.000092
  7N   1s        -0.000022  0.000024  0.000002  0.000004 -0.162301  0.000082
  7N   2s        -0.000257  0.000241  0.000208 -0.000150  0.354055 -0.000211
  7N   1pz       -0.000002 -0.000001 -0.000003 -0.000003  0.000282  0.016039
  7N   1px        0.000045 -0.000017 -0.000014  0.000075  0.078773 -0.157304
  7N   1py       -0.000016 -0.000020 -0.000083 -0.000037  0.044434  0.283030
  7N   3s         0.001057 -0.002191 -0.000244 -0.000163  0.210778  0.000374
  7N   2pz        0.000045  0.000016 -0.000001  0.000005 -0.000173  0.000068
  7N   2px       -0.001231  0.000590  0.000238 -0.000071 -0.055383 -0.000837
  7N   2py        0.000416  0.000648  0.000104  0.000068 -0.030558  0.001105
  7N   1dz2      -0.000035  0.000042  0.000018 -0.000007 -0.016695  0.000015
  7N   1dxz       0.000001  0.000002  0.000002 -0.000000 -0.000935  0.001158
  7N   1dyz       0.000002 -0.000003 -0.000003  0.000003  0.001788  0.000734
  7N   1dx2y2    -0.000004 -0.000003  0.000020 -0.000044 -0.006214 -0.023487
  7N   1dxy       0.000047  0.000014  0.000036 -0.000023 -0.009905  0.014560
  8O   1s        -0.000000 -0.000000  0.000007 -0.000004 -0.107869 -0.142096
  8O   2s        -0.000059  0.000011  0.000140 -0.000145  0.234840  0.316180
  8O   1pz        0.000001 -0.000001 -0.000000  0.000003 -0.005869 -0.005054
  8O   1px        0.000027  0.000014 -0.000027  0.000033  0.007442 -0.015717
  8O   1py        0.000030 -0.000011 -0.000013  0.000072 -0.127797 -0.120735
  8O   3s        -0.000267 -0.000057 -0.000494  0.000271  0.201159  0.306906
  8O   2pz        0.000006  0.000001  0.000006 -0.000013 -0.002532 -0.002341
  8O   2px        0.000002 -0.000081  0.000172 -0.000054  0.009457 -0.011487
  8O   2py        0.000139 -0.000026  0.000207 -0.000324 -0.052106 -0.057944
  8O   1dz2      -0.000026 -0.000012  0.000013 -0.000045 -0.008081 -0.005432
  8O   1dxz      -0.000003  0.000001 -0.000001  0.000002 -0.000146  0.000268
  8O   1dyz       0.000000  0.000001 -0.000000  0.000003  0.001428  0.000820
  8O   1dx2y2     0.000052 -0.000015  0.000002 -0.000030 -0.015901 -0.011358
  8O   1dxy      -0.000017  0.000017 -0.000029  0.000065 -0.004163  0.005064
  9H   1s         0.000070  0.000038  0.000093 -0.000057  0.000319 -0.000342
  9H   2s         0.000241 -0.000189 -0.000024  0.000058 -0.001615  0.000829
 10H   1s        -0.000150  0.000099  0.000056 -0.000029  0.000227 -0.000036
 10H   2s         0.000013  0.000002 -0.000167  0.000105 -0.001001 -0.000122
 11O   1s        -0.000005 -0.000002  0.000005 -0.000009 -0.107528  0.142404
 11O   2s        -0.000071 -0.000004  0.000143 -0.000149  0.233974 -0.316653
 11O   1pz       -0.000000  0.000001  0.000002  0.000000  0.005523 -0.004628
 11O   1px       -0.000009 -0.000014 -0.000076  0.000020 -0.104311  0.110975
 11O   1py       -0.000011  0.000014  0.000019  0.000020  0.073272 -0.050047
 11O   3s         0.000605  0.000231 -0.000314  0.000590  0.201027 -0.308181
 11O   2pz        0.000013  0.000004 -0.000015  0.000006  0.002429 -0.002119
 11O   2px       -0.000124 -0.000158  0.000300 -0.000329 -0.039392  0.055715
 11O   2py        0.000227  0.000023 -0.000191 -0.000036  0.035297 -0.020460
 11O   1dz2      -0.000005 -0.000009  0.000045 -0.000016 -0.008105  0.005510
 11O   1dxz      -0.000001 -0.000002  0.000003 -0.000001 -0.001093  0.000767
 11O   1dyz       0.000002 -0.000000 -0.000001 -0.000000  0.000827 -0.000168
 11O   1dx2y2    -0.000021  0.000030 -0.000066  0.000038  0.003346 -0.009627
 11O   1dxy      -0.000025 -0.000022  0.000005  0.000001 -0.016043  0.007894
 12H   1s        -0.000200  0.000102  0.000059 -0.001374  0.002128  0.004862
 12H   2s         0.001006  0.000940  0.000671  0.002433 -0.006842 -0.000095
 13H   1s        -0.001365 -0.000003 -0.000078 -0.000083 -0.000100  0.000465
 13H   2s         0.002727 -0.001046 -0.000823  0.001222 -0.003582  0.000882
 14H   1s        -0.000294  0.001320  0.000078 -0.000092  0.000223 -0.000001
 14H   2s         0.001208 -0.002531  0.000427 -0.000720  0.000388  0.000208
 15H   1s         0.000075  0.000135  0.001342 -0.000086  0.002505 -0.005253
 15H   2s         0.000458  0.000780 -0.002630 -0.000844 -0.005595  0.000376
                     12        13        14        15        16        17   
                  -0.93619  -0.86465  -0.78926  -0.74738  -0.69182  -0.62388
                   2.00000   2.00000   2.00000   2.00000   2.00000   2.00000
                  --------  --------  --------  --------  --------  --------
  0C   1s         0.017292  0.097211  0.013757  0.107279  0.084342 -0.080516
  0C   2s        -0.033053 -0.185409 -0.024764 -0.209964 -0.164469  0.161669
  0C   1pz        0.000754  0.003225 -0.001141  0.000095  0.000801 -0.001029
  0C   1px       -0.001990 -0.021048  0.096508  0.026579  0.019255  0.116406
  0C   1py        0.015917  0.062070  0.020867  0.014804  0.027117  0.033092
  0C   3s        -0.021252 -0.097954 -0.017048 -0.160643 -0.142293  0.141212
  0C   2pz       -0.000147 -0.000272  0.000130 -0.000754  0.000285  0.000770
  0C   2px       -0.003533 -0.003090  0.013956  0.004786 -0.000704  0.030500
  0C   2py       -0.004956 -0.007407  0.009630 -0.014466  0.006273  0.031765
  0C   1dz2       0.001842  0.009209  0.001338  0.007907  0.005475 -0.004066
  0C   1dxz       0.000071  0.000415 -0.000354  0.000159  0.000182 -0.000317
  0C   1dyz      -0.000157 -0.000727 -0.000015 -0.000482 -0.000650  0.000606
  0C   1dx2y2     0.000239 -0.000352  0.001929 -0.001143  0.004338 -0.003872
  0C   1dxy       0.000165  0.001452 -0.008122 -0.003598  0.001571 -0.005557
  1C   1s         0.020698  0.077804  0.105280  0.083109  0.002388  0.090534
  1C   2s        -0.038938 -0.147591 -0.202951 -0.163043 -0.003753 -0.183210
  1C   1pz        0.000947  0.001723  0.002831 -0.001522 -0.003375  0.000150
  1C   1px       -0.011858 -0.051223 -0.008848 -0.041015 -0.078492  0.099477
  1C   1py        0.015481  0.013910  0.059069 -0.053846 -0.113271  0.051184
  1C   3s        -0.047815 -0.098534 -0.145816 -0.130567  0.012411 -0.142221
  1C   2pz        0.000559  0.000293  0.000269 -0.000367 -0.000950 -0.001133
  1C   2px       -0.002038 -0.011255  0.002139  0.001910 -0.016125  0.046073
  1C   2py        0.011530  0.001067  0.007041 -0.007427 -0.029288 -0.003271
  1C   1dz2       0.002315  0.007604  0.008737  0.006241  0.000137  0.004492
  1C   1dxz       0.000083  0.000285  0.000331  0.000176  0.000040  0.000376
  1C   1dyz      -0.000231 -0.000500 -0.000894 -0.000198  0.000461 -0.000545
  1C   1dx2y2     0.000950 -0.001649  0.003851 -0.004706 -0.008848  0.001718
  1C   1dxy       0.000389 -0.000755  0.001973 -0.003543 -0.003474  0.005499
  2C   1s         0.025597  0.125777 -0.096803  0.012734  0.003922 -0.010425
  2C   2s        -0.049079 -0.245962  0.196689 -0.026220 -0.002186  0.022600
  2C   1pz        0.000474 -0.000178 -0.000978 -0.007013  0.000149  0.009885
  2C   1px        0.009862  0.021182  0.094778  0.038743  0.183185 -0.122388
  2C   1py        0.015342  0.006215  0.023695 -0.138501  0.091483  0.162564
  2C   3s        -0.055606 -0.139915  0.127011 -0.020894 -0.033963  0.007493
  2C   2pz        0.001055 -0.000270 -0.000475 -0.000921  0.000594  0.001997
  2C   2px       -0.004644  0.037789  0.007278  0.008431  0.002236 -0.013470
  2C   2py        0.021347  0.011790 -0.007024 -0.016536  0.014312  0.038450
  2C   1dz2       0.002770  0.011096 -0.007961  0.001201 -0.001388  0.000090
  2C   1dxz       0.000060  0.000436 -0.000075  0.000404  0.000383 -0.000266
  2C   1dyz      -0.000259 -0.000814  0.000448  0.000267 -0.000542 -0.000098
  2C   1dx2y2     0.001188 -0.001034  0.001113 -0.009672  0.007987  0.004019
  2C   1dxy      -0.000394  0.000008  0.005514  0.003397  0.013581 -0.004106
  3C   1s         0.045343  0.056030  0.116850 -0.019944 -0.108911  0.005574
  3C   2s        -0.087187 -0.105464 -0.225241  0.038206  0.217802 -0.011250
  3C   1pz        0.001692 -0.001229 -0.001502 -0.004400 -0.001086 -0.009717
  3C   1px       -0.036158 -0.029391 -0.024448  0.057881 -0.015761  0.099220
  3C   1py        0.020388 -0.041672 -0.045466 -0.070792 -0.031799 -0.170195
  3C   3s        -0.021865 -0.066007 -0.159639  0.031172  0.172282 -0.004052
  3C   2pz        0.001076 -0.000326 -0.000103 -0.000287 -0.000958 -0.002844
  3C   2px        0.011466 -0.001098  0.003982  0.004417 -0.021481  0.026851
  3C   2py        0.029658 -0.007629 -0.000207 -0.004418 -0.031551 -0.050812
  3C   1dz2       0.004938  0.005351  0.009619 -0.001430 -0.006775  0.000141
  3C   1dxz       0.000353  0.000092  0.000255 -0.000385 -0.000277 -0.000349
  3C   1dyz      -0.000444 -0.000393 -0.000814 -0.000172  0.000480 -0.000225
  3C   1dx2y2    -0.000376  0.000539  0.002123  0.008025  0.001066  0.006978
  3C   1dxy       0.003597 -0.002130 -0.001272 -0.003606 -0.000069 -0.004624
  4C   1s         0.116486  0.024157  0.042249 -0.097294 -0.013728 -0.080906
  4C   2s        -0.228480 -0.045031 -0.082629  0.196471  0.029350  0.172221
  4C   1pz        0.004011 -0.004502 -0.004329  0.002832  0.003435  0.000414
  4C   1px       -0.000546 -0.009615  0.071902  0.062158 -0.158404 -0.109202
  4C   1py        0.088952 -0.104978 -0.061954  0.092255  0.000526 -0.045065
  4C   3s        -0.079150 -0.049279 -0.057517  0.139923  0.034906  0.106477
  4C   2pz       -0.002984 -0.000503 -0.000960  0.000698  0.000202 -0.000537
  4C   2px        0.001149 -0.005947  0.008471  0.005804 -0.016095 -0.014651
  4C   2py       -0.066707 -0.014332 -0.017808  0.019004 -0.003147 -0.018682
  4C   1dz2       0.012436  0.001752  0.002817 -0.005774 -0.000840 -0.003029
  4C   1dxz       0.000234  0.000163  0.000461 -0.000217 -0.000386 -0.000101
  4C   1dyz      -0.001421  0.000177 -0.000166 -0.000017  0.000132  0.000315
  4C   1dx2y2     0.010090 -0.006420 -0.003982  0.008276  0.001851 -0.001844
  4C   1dxy      -0.000304 -0.000883  0.006059  0.003929 -0.007060 -0.000624
  5C   1s         0.047767  0.078618 -0.034419 -0.120154  0.074296  0.073263
  5C   2s        -0.092285 -0.149451  0.069064  0.233588 -0.145124 -0.147629
  5C   1pz       -0.000035 -0.003484  0.001462 -0.000160 -0.000182  0.000288
  5C   1px        0.037731  0.025881  0.045369 -0.055712  0.026086 -0.094280
  5C   1py        0.017221 -0.065581  0.054583 -0.030395  0.008389 -0.039201
  5C   3s        -0.018466 -0.084784  0.045067  0.186429 -0.122246 -0.125127
  5C   2pz        0.001786 -0.000202 -0.000471 -0.000499  0.000565  0.001684
  5C   2px       -0.009394 -0.012815  0.011929  0.002602  0.012501 -0.047276
  5C   2py        0.035480 -0.010673 -0.004546 -0.009947  0.018417  0.014365
  5C   1dz2       0.005062  0.007311 -0.002626 -0.008897  0.004873  0.003855
  5C   1dxz       0.000046  0.000318  0.000024 -0.000368  0.000382  0.000279
  5C   1dyz      -0.000288 -0.000720  0.000483  0.000416 -0.000482 -0.000440
  5C   1dx2y2    -0.000671  0.002389 -0.006122  0.005298  0.000102  0.001320
  5C   1dxy      -0.003493  0.002163 -0.000220  0.001738  0.004552  0.003719
  6N   1s         0.173220 -0.074921 -0.035977  0.063548  0.009510  0.024253
  6N   2s        -0.354929  0.157813  0.077963 -0.137210 -0.019582 -0.052956
  6N   1pz       -0.001638 -0.000804 -0.002017  0.004422  0.002611  0.010287
  6N   1px       -0.000339 -0.001729  0.016528  0.018543 -0.062685 -0.075865
  6N   1py       -0.047535 -0.013034 -0.033413  0.099696  0.026506  0.184212
  6N   3s        -0.400374  0.165192  0.079530 -0.157682 -0.031980 -0.073355
  6N   2pz       -0.001444 -0.000496 -0.001069  0.002061  0.001125  0.004824
  6N   2px       -0.000118  0.000554  0.005901  0.008848 -0.032591 -0.040923
  6N   2py       -0.037757 -0.007891 -0.019175  0.046359  0.008656  0.083863
  6N   1dz2       0.018196 -0.006789 -0.002769  0.004865  0.000894  0.002495
  6N   1dxz       0.000677 -0.000324 -0.000140  0.000366  0.000006  0.000291
  6N   1dyz      -0.001475  0.000430  0.000082 -0.000145  0.000005  0.000081
  6N   1dx2y2     0.000183  0.003003  0.003138 -0.006975 -0.001096 -0.007641
  6N   1dxy      -0.000078 -0.000083  0.000871  0.000905 -0.001824 -0.000138
  7N   1s         0.001048  0.020657 -0.047391  0.013492 -0.076813  0.009470
  7N   2s        -0.002493 -0.041809  0.109764 -0.032031  0.186026 -0.023264
  7N   1pz       -0.000033  0.000434 -0.000568  0.000313 -0.000623  0.000806
  7N   1px        0.017823  0.123281 -0.189043  0.042100 -0.179704  0.003980
  7N   1py        0.007855  0.069149 -0.103900  0.027250 -0.100708  0.020185
  7N   3s        -0.001282 -0.084841  0.132277 -0.037548  0.225504 -0.030128
  7N   2pz       -0.000284  0.000292 -0.000160 -0.000242 -0.000469  0.001342
  7N   2px        0.006086  0.049828 -0.066560  0.019172 -0.078296 -0.004308
  7N   2py       -0.003415  0.030634 -0.035690  0.003776 -0.048293  0.028027
  7N   1dz2      -0.000031  0.001038 -0.000007 -0.000183  0.001715 -0.000377
  7N   1dxz      -0.000050 -0.000187  0.000299  0.000148  0.000244 -0.000381
  7N   1dyz       0.000051  0.000287 -0.000386  0.000225 -0.000387 -0.000191
  7N   1dx2y2    -0.000455 -0.004684  0.004392 -0.005182  0.003048  0.007209
  7N   1dxy      -0.001310 -0.007295  0.008796  0.000981  0.005464 -0.004745
  8O   1s        -0.003393 -0.029558  0.042067 -0.019475  0.054881  0.007922
  8O   2s         0.007729  0.068900 -0.098234  0.045642 -0.127546 -0.018240
  8O   1pz       -0.000167 -0.001066  0.000810 -0.000291 -0.001129  0.000371
  8O   1px        0.002977  0.024992 -0.040129  0.017047 -0.042309 -0.016670
  8O   1py       -0.002294 -0.011824 -0.001230  0.001691 -0.045732  0.000367
  8O   3s         0.009614  0.067828 -0.107640  0.053286 -0.156540 -0.033035
  8O   2pz       -0.000102 -0.000409  0.000366 -0.000210 -0.000462  0.000416
  8O   2px        0.001091  0.006297 -0.014179  0.007890 -0.015821 -0.009679
  8O   2py       -0.001768 -0.006143  0.001373 -0.000928 -0.017972  0.004741
  8O   1dz2      -0.000008  0.000127 -0.001142  0.000783 -0.002893 -0.000639
  8O   1dxz      -0.000019 -0.000133  0.000255 -0.000057  0.000262 -0.000007
  8O   1dyz       0.000024  0.000129 -0.000034 -0.000006  0.000267 -0.000026
  8O   1dx2y2    -0.000251 -0.001305 -0.000385 -0.000240 -0.004032  0.001227
  8O   1dxy      -0.000548 -0.003722  0.006475 -0.002048  0.006350  0.000971
  9H   1s        -0.098118  0.051935  0.039364 -0.064127 -0.037957 -0.103378
  9H   2s        -0.004416  0.002321  0.005278 -0.009502 -0.009512 -0.037662
 10H   1s        -0.098279  0.053275  0.027355 -0.077191  0.010985 -0.037767
 10H   2s        -0.004834  0.003614  0.001665 -0.013106  0.003450 -0.014301
 11O   1s        -0.005506 -0.028916  0.045469 -0.002068  0.055773 -0.022000
 11O   2s         0.012989  0.067176 -0.106371  0.004667 -0.129192  0.051243
 11O   1pz        0.000247  0.001132 -0.001119 -0.000143  0.000804 -0.000257
 11O   1px       -0.001450  0.003294 -0.022309  0.005941 -0.061975  0.030323
 11O   1py        0.004821  0.026912 -0.035812 -0.000345 -0.011971  0.008991
 11O   3s         0.008734  0.068914 -0.114731  0.004332 -0.163050  0.075302
 11O   2pz        0.000058  0.000451 -0.000470 -0.000142  0.000288  0.000106
 11O   2px        0.000374 -0.002723 -0.006987  0.002464 -0.022596  0.011350
 11O   2py        0.001482  0.008761 -0.013876 -0.001977 -0.004456  0.007886
 11O   1dz2      -0.000068  0.000129 -0.001252  0.000045 -0.002932  0.001771
 11O   1dxz      -0.000018 -0.000063 -0.000052  0.000051 -0.000304  0.000079
 11O   1dyz       0.000033  0.000172 -0.000232  0.000050 -0.000090 -0.000044
 11O   1dx2y2    -0.000374 -0.002698  0.006009 -0.001415  0.007463 -0.001794
 11O   1dxy      -0.000527 -0.002814  0.002789  0.000430 -0.000746 -0.000583
 12H   1s        -0.004314 -0.036092 -0.001314 -0.064501 -0.050230  0.078483
 12H   2s         0.003224  0.002386 -0.004680 -0.006265 -0.017585  0.019387
 13H   1s        -0.005703 -0.028937 -0.053390 -0.051948  0.002795 -0.098152
 13H   2s         0.000469 -0.004353 -0.009927 -0.010335  0.000652 -0.033437
[...]
     10      -0.091596  -0.051868   0.001727   0.093289   0.252919  -0.025613
     11      -0.004019  -0.002619   0.000147   0.004905   0.014706  -0.001712
     12       0.002100   0.004876  -0.044469  -0.093327   0.360552  -0.000192
     13      -0.003455  -0.001400  -0.104352   0.210818   0.058835  -0.045131
     14      -0.000222  -0.000175  -0.003757   0.011526  -0.005093  -0.002035
     15      -0.022000  -0.023476  -0.057677   0.021610  -0.166398   0.013656
     16       0.056837  -0.027793  -0.067984   0.035201  -0.189206   0.006018
     17       0.003014  -0.000737  -0.001813   0.001079  -0.004874  -0.000028
     18      -0.053964  -0.003663   0.024509   0.032262  -0.057969  -0.001546
     19       0.008818   0.008437   0.066197  -0.115041  -0.034284   0.026531
     20       0.001564   0.000450   0.002466  -0.005905  -0.000285   0.001205
     21       0.008308  -0.000198  -0.002455   0.022459   0.001946   0.624365
     22       0.002489   0.000843   0.002628   0.012539   0.011747   0.338822
     23      -0.000076   0.000042   0.000161   0.000071   0.000489   0.001601
     24      -0.005670   0.002503   0.003382   0.001271  -0.008672  -0.065341
     25       0.011297   0.011594  -0.001076  -0.001001  -0.013092  -0.432159
     26       0.000630   0.000464  -0.000121  -0.000072  -0.000398  -0.017897
     27       0.084125   0.001408  -0.004567  -0.106504   0.108539   0.018869
     28       0.233271   0.018638   0.030143  -0.352483   0.217763   0.066320
     29       0.007991   0.000829   0.001622  -0.013098   0.006398   0.002689
     30       0.079177   0.003505  -0.060248   0.005902   0.139628  -0.012795
     31      -0.214000  -0.003493   0.215702  -0.091618  -0.360156   0.051022
     32      -0.010654  -0.000169   0.010736  -0.004563  -0.018260   0.002647
     33       0.002156   0.005525  -0.025457  -0.011334   0.023140  -0.406828
     34      -0.006832  -0.003314   0.008511   0.002659  -0.003135   0.176037
     35      -0.000348  -0.000267   0.000931   0.000366  -0.000640   0.016696
     36       0.709503  -0.393837  -0.465204  -0.223225  -0.465644  -0.003191
     37       0.013420   0.017368   0.051525  -0.002963   0.036491   0.012409
     38      -0.014651   0.009228   0.012331   0.004647   0.011641   0.000665
     39      -0.079180   0.346988  -0.218690  -0.196080   0.035426   0.088879
     40       0.004922   0.618632  -0.223625  -0.506121   0.061394   0.195896
     41       0.001954   0.020219  -0.005310  -0.018372   0.002044   0.006845
     42       0.189834   0.264851   0.046226   0.330123   0.082316  -0.068126
     43      -0.446148  -0.504454  -0.101379  -0.539113  -0.179414   0.141889
     44      -0.024053  -0.028294  -0.005540  -0.031208  -0.009973   0.007839
     45       0.114677  -0.037928   0.348330   0.047401  -0.052252  -0.019283
     46       0.312377  -0.052960   0.664984   0.098114   0.042005  -0.069134
     47       0.011487  -0.001567   0.022347   0.003417   0.003138  -0.002731
                 36         37         38         39         40         41    
      0       0.105890   0.053549  -0.341869  -0.179689  -0.035846   0.040517
      1       0.027424  -0.123808  -0.005625  -0.039230   0.039218  -0.078369
      2      -0.001065  -0.006674   0.007103   0.002119   0.002518  -0.004361
      3      -0.042069   0.110366   0.204440   0.135414   0.001482   0.028334
      4       0.128932   0.180227   0.060049   0.174985  -0.054231   0.137217
      5       0.006660   0.005687  -0.001714   0.004899  -0.002448   0.005519
      6      -0.018818  -0.129916   0.180766   0.108615   0.044236  -0.077658
      7      -0.231581   0.102516  -0.070116   0.035983  -0.091809   0.186176
      8      -0.009919   0.007359  -0.007021  -0.000741  -0.005041   0.009971
      9      -0.005599  -0.101576  -0.201458  -0.049656  -0.027838   0.051646
     10      -0.165661   0.023787   0.132514  -0.134122   0.061031  -0.169834
     11      -0.007281   0.003239   0.010246  -0.004922   0.003335  -0.008680
     12       0.165506   0.025235   0.303917   0.194647   0.029382  -0.019496
     13       0.067822  -0.210087  -0.054607   0.158505  -0.003825   0.184058
     14      -0.000511  -0.009998  -0.008982   0.002993  -0.000955   0.008531
     15      -0.038083   0.074990  -0.144987  -0.170797  -0.004678  -0.028900
     16       0.168183   0.062031  -0.035975  -0.194775   0.059031  -0.175619
     17       0.008332   0.001180   0.001506  -0.005044   0.002747  -0.007214
     18      -0.057507  -0.008568  -0.047230  -0.031088  -0.006295   0.003277
     19      -0.021924   0.062115   0.013659   0.008106  -0.098576  -0.123823
     20       0.000248   0.003011   0.001648   0.001052  -0.004422  -0.005805
     21       0.011621  -0.020887   0.172244  -0.164654  -0.046552   0.066391
     22      -0.030578   0.042789  -0.261646   0.346511   0.082906  -0.113773
     23      -0.001621   0.002367  -0.015405   0.019030   0.004705  -0.006509
     24       0.007094  -0.001781  -0.005747   0.009051   0.004780  -0.007611
     25       0.044377  -0.029823   0.133891  -0.191297  -0.037674   0.047398
     26       0.001830  -0.001295   0.006105  -0.008741  -0.001785   0.002282
     27       0.035079   0.070601   0.069985  -0.152391   0.400794   0.344555
     28       0.119882   0.197567   0.196257  -0.201142   0.573177   0.443660
     29       0.004188   0.007225   0.006786  -0.006597   0.018706   0.014315
     30       0.078105  -0.049780   0.050927   0.219246  -0.379724  -0.344314
     31      -0.248639   0.140837  -0.142233  -0.414128   0.544760   0.475710
     32      -0.012464   0.007476  -0.007086  -0.023623   0.034432   0.030591
     33      -0.013634   0.034922  -0.141376   0.125964   0.029959  -0.038911
     34       0.006691  -0.017588   0.091098  -0.091502  -0.023936   0.033946
     35       0.000595  -0.001540   0.007122  -0.006800  -0.001716   0.002356
     36      -0.560111  -0.181203   0.403128   0.217086   0.039750  -0.045556
     37       0.045697  -0.140235  -0.031507  -0.044304   0.044498  -0.088688
     38       0.014093  -0.002342  -0.010087  -0.006646   0.001143  -0.002966
     39      -0.215617  -0.296318   0.031934  -0.086562   0.057635  -0.128479
     40      -0.131273  -0.531609  -0.279296  -0.213407   0.036998  -0.124670
     41      -0.001234  -0.017408  -0.013181  -0.007681   0.000403  -0.002826
     42      -0.324012   0.109739   0.059907  -0.178415   0.045260  -0.143878
     43       0.382272  -0.403342  -0.361249   0.089278  -0.076967   0.173446
     44       0.024078  -0.020415  -0.017485   0.007821  -0.004442   0.010835
     45      -0.259895  -0.158774  -0.027549   0.098919  -0.061024   0.154202
     46      -0.190768  -0.381501   0.180309   0.328569  -0.039021   0.134560
     47      -0.002988  -0.013713   0.008701   0.012643  -0.000475   0.002702
                 42         43         44         45         46         47    
      0      -0.000157  -0.002440  -0.000757  -0.002027   0.000025  -0.000037
      1       0.001979   0.007705  -0.000344  -0.086799   0.000387   0.000020
      2       0.000091   0.000396   0.000001  -0.003823   0.000017   0.000001
      3       0.027240   0.069502  -0.001188   0.011057   0.000162   0.000001
      4      -0.012940  -0.041511   0.001039  -0.002895  -0.000293   0.000010
      5      -0.001164  -0.003349   0.000072  -0.000367  -0.000015  -0.000000
      6       0.000027  -0.000168   0.000471  -0.002888  -0.000081  -0.000016
      7       0.000453   0.000414   0.002899   0.001337  -0.000174  -0.000040
      8       0.000019   0.000022   0.000119   0.000121  -0.000004  -0.000002
      9      -0.070122   0.027874  -0.000705   0.000886  -0.000525   0.000464
     10      -0.038149   0.018467  -0.000034   0.001572   0.000743  -0.000147
     11      -0.000202   0.000227   0.000013   0.000051   0.000045  -0.000016
     12       0.001896  -0.001368  -0.002752  -0.000160   0.000001  -0.001088
     13      -0.002629   0.001463  -0.002125  -0.000110   0.001507   0.000027
     14      -0.000159   0.000095  -0.000036  -0.000001   0.000054   0.000024
     15       0.000302   0.001056   0.075441  -0.000172   0.000587   0.000447
     16       0.000311  -0.001097  -0.042262   0.000857   0.000631   0.000197
     17       0.000007  -0.000072  -0.003503   0.000042   0.000015  -0.000001
     18      -0.000216   0.000192   0.000221   0.000018   0.000179  -0.086354
     19       0.000260  -0.000242   0.000206   0.000064  -0.053571   0.000255
     20       0.000017  -0.000014   0.000005   0.000001  -0.002683   0.001883
     21      -0.000037  -0.000136   0.001031   0.000181  -0.000131   0.000051
     22       0.000009   0.000007  -0.000783  -0.001275  -0.000044  -0.000022
     23       0.000001   0.000003  -0.000057  -0.000061   0.000001  -0.000002
     24       0.000016   0.000129  -0.000208  -0.000607   0.000043  -0.000010
     25      -0.000025   0.000007  -0.000062   0.000445   0.000021   0.000002
     26      -0.000001  -0.000002   0.000002   0.000033   0.000000   0.000000
     27       0.002475   0.000055   0.002769  -0.001165  -0.610090   0.593261
     28       0.001636  -0.001435   0.003474   0.000655   0.364160  -0.368262
     29       0.000016  -0.000069   0.000102   0.000062   0.031574  -0.031545
     30      -0.002373  -0.000177  -0.002512   0.001291   0.607468   0.609272
     31       0.004249  -0.002003   0.001424   0.000813   0.349648   0.364311
     32       0.000251  -0.000095   0.000111   0.000015   0.004483   0.005310
     33      -0.000014   0.000076  -0.000032   0.000148   0.000069  -0.000019
     34      -0.000011  -0.000001   0.000794   0.000150  -0.000005   0.000011
     35       0.000000  -0.000002   0.000036   0.000004  -0.000002   0.000002
     36      -0.000643   0.000227   0.000677   0.026593  -0.000110  -0.000019
     37      -0.029317  -0.108393   0.006473   0.988827  -0.001715  -0.000122
     38      -0.001293  -0.004836   0.000274   0.043487  -0.000080  -0.000005
     39      -0.318541  -0.797025   0.014209  -0.095452  -0.000966   0.000087
     40       0.179525   0.459027  -0.008114   0.051241   0.000153   0.000125
     41       0.014871   0.037649  -0.000668   0.004339   0.000027   0.000003
     42       0.810627  -0.317154   0.004297  -0.010098   0.001002  -0.000198
     43       0.448066  -0.179409   0.002084  -0.006606  -0.000675  -0.001611
     44       0.002645  -0.001216   0.000003  -0.000079  -0.000066  -0.000074
     45      -0.001736  -0.015452  -0.873196   0.003572  -0.001773   0.000046
     46       0.000082   0.008854   0.477545  -0.002330  -0.000174   0.001306
     47       0.000041   0.000727   0.040025  -0.000181   0.000019   0.000064


-----------
IR SPECTRUM
-----------

 Mode    freq (cm**-1)   T**2         TX         TY         TZ
-------------------------------------------------------------------
   7:        58.47    0.090219  ( -0.010163   0.012837  -0.299919)
   8:       167.19    0.368580  ( -0.022297   0.021387  -0.606321)
   9:       219.36    1.298076  (  0.524674   1.010872   0.030507)
  10:       228.12    3.349431  (  0.040922  -0.090310   1.827457)
  11:       376.92    3.315057  ( -1.798223  -0.285047   0.014095)
  12:       379.28    0.095046  (  0.017400   0.035883  -0.305706)
  13:       408.08    0.355961  (  0.417526  -0.425202  -0.028925)
  14:       442.38    0.359100  ( -0.021863   0.030181  -0.598090)
  15:       518.35    0.291091  ( -0.404118   0.356961   0.018931)
  16:       556.31    8.537145  ( -0.062576   0.137097  -2.917950)
  17:       561.72    0.358361  ( -0.549998   0.234150   0.032200)
  18:       686.68    5.907915  ( -0.029863   0.121977  -2.427374)
  19:       689.54    4.148374  (  1.845065   0.862143   0.028622)
  20:       753.08   40.041417  ( -0.138412   0.277482  -6.320226)
  21:       807.36    7.230608  ( -0.049140   0.119516  -2.685872)
  22:       828.52   44.988233  (  4.866617   4.614511   0.102735)
  23:       879.06   13.623047  ( -0.080020   0.166134  -3.686332)
  24:       908.07    7.530955  ( -0.062262   0.122808  -2.740802)
  25:       951.29    6.485746  (  2.419261  -0.790402  -0.090481)
  26:       973.77    0.549914  (  0.012974  -0.031962   0.740759)
  27:      1009.75    4.754992  ( -0.134142   2.174012   0.103289)
  28:      1054.12    0.390665  ( -0.494831   0.380866   0.027372)
  29:      1116.92   14.378356  (  3.517483   1.416159  -0.012828)
  30:      1124.41   21.824671  (  4.613079   0.734611  -0.067246)
  31:      1199.77    1.742943  (  0.659212   1.143231   0.037491)
  32:      1314.80   19.993485  ( -0.796981  -4.396171  -0.178842)
  33:      1362.09   72.434633  (  3.459102   7.771423   0.272444)
  34:      1383.62   33.935314  ( -4.529224   3.654305   0.259810)
  35:      1400.63  279.945419  ( 14.824143   7.758184   0.028231)
  36:      1507.35    0.515772  (  0.536758   0.477056   0.009020)
  37:      1541.47   49.143206  ( -1.800769  -6.769879  -0.263012)
  38:      1624.08  116.130306  (  4.981173  -9.541147  -0.533598)
  39:      1641.78  182.515155  ( -4.277182  12.797900   0.659263)
  40:      1672.54   96.667884  ( -1.288381   9.734873   0.490108)
  41:      1692.33  133.048500  (  1.508557  11.424786   0.497018)
  42:      3182.46   12.930657  ( -1.671027  -3.182325  -0.105527)
  43:      3206.02   16.320628  (  3.950069  -0.838383  -0.121217)
  44:      3237.94    3.025819  ( -1.216076  -1.243424  -0.029574)
  45:      3262.94    2.218999  (  0.753727   1.284256   0.039780)
  46:      3630.16   77.661753  (  0.269888   8.798602   0.416557)
  47:      3744.72   30.546745  (  5.525239  -0.057993  -0.122962)

The first frequency considered to be a vibration is 7
The total number of vibrations considered is 41


--------------------------
THERMOCHEMISTRY AT 298.15K
--------------------------

Temperature         ... 298.15 K
Pressure            ... 1.00 atm
Total Mass          ... 138.13 AMU

Throughout the following assumptions are being made:
  (1) The electronic state is orbitally nondegenerate
  (2) There are no thermally accessible electronically excited states
  (3) Hindered rotations indicated by low frequency modes are not
      treated as such but are treated as vibrations and this may
      cause some error
  (4) All equations used are the standard statistical mechanics
      equations for an ideal gas
  (5) All vibrations are strictly harmonic

freq.      58.47  E(vib)   ...       0.51 
freq.     167.19  E(vib)   ...       0.39 
freq.     219.36  E(vib)   ...       0.33 
freq.     228.12  E(vib)   ...       0.33 
freq.     376.92  E(vib)   ...       0.21 
freq.     379.28  E(vib)   ...       0.21 
freq.     408.08  E(vib)   ...       0.19 
freq.     442.38  E(vib)   ...       0.17 
freq.     518.35  E(vib)   ...       0.13 
freq.     556.31  E(vib)   ...       0.12 
freq.     561.72  E(vib)   ...       0.11 
freq.     686.68  E(vib)   ...       0.07 
freq.     689.54  E(vib)   ...       0.07 
freq.     753.08  E(vib)   ...       0.06 
freq.     807.36  E(vib)   ...       0.05 
freq.     828.52  E(vib)   ...       0.04 
freq.     879.06  E(vib)   ...       0.04 
freq.     908.07  E(vib)   ...       0.03 
freq.     951.29  E(vib)   ...       0.03 
freq.     973.77  E(vib)   ...       0.03 
freq.    1009.75  E(vib)   ...       0.02 
freq.    1054.12  E(vib)   ...       0.02 
freq.    1116.92  E(vib)   ...       0.01 
freq.    1124.41  E(vib)   ...       0.01 
freq.    1199.77  E(vib)   ...       0.01 
freq.    1314.80  E(vib)   ...       0.01 
freq.    1362.09  E(vib)   ...       0.01 
freq.    1383.62  E(vib)   ...       0.00 
freq.    1400.63  E(vib)   ...       0.00 
freq.    1507.35  E(vib)   ...       0.00 
freq.    1541.47  E(vib)   ...       0.00 
freq.    1624.08  E(vib)   ...       0.00 
freq.    1641.78  E(vib)   ...       0.00 
freq.    1672.54  E(vib)   ...       0.00 
freq.    1692.33  E(vib)   ...       0.00 
freq.    3182.46  E(vib)   ...       0.00 
freq.    3206.02  E(vib)   ...       0.00 
freq.    3237.94  E(vib)   ...       0.00 
freq.    3262.94  E(vib)   ...       0.00 
freq.    3630.16  E(vib)   ...       0.00 
freq.    3744.72  E(vib)   ...       0.00 

------------
INNER ENERGY
------------

The inner energy is: U= E(el) + E(ZPE) + E(vib) + E(rot) + E(trans)
    E(el)   - is the total energy from the electronic structure calculation
              = E(kin-el) + E(nuc-el) + E(el-el) + E(nuc-nuc)
    E(ZPE)  - the the zero temperature vibrational energy from the frequency calculation
    E(vib)  - the the finite temperature correction to E(ZPE) due to population
              of excited vibrational states
    E(rot)  - is the rotational thermal energy
    E(trans)- is the translational thermal energy

Summary of contributions to the inner energy U:
Electronic energy                ...   -491.82667221 Eh
Zero point energy                ...      0.11915599 Eh      74.77 kcal/mol
Thermal vibrational correction   ...      0.00514662 Eh       3.23 kcal/mol
Thermal rotational correction    ...      0.00141627 Eh       0.89 kcal/mol
Thermal translational correction ...      0.00141627 Eh       0.89 kcal/mol
-----------------------------------------------------------------------
Total thermal energy                   -491.69953707 Eh


Summary of corrections to the electronic energy:
(perhaps to be used in another calculation)
Total thermal correction                  0.00797916 Eh       5.01 kcal/mol
Non-thermal (ZPE) correction              0.11915599 Eh      74.77 kcal/mol
-----------------------------------------------------------------------
Total correction                          0.12713515 Eh      79.78 kcal/mol


--------
ENTHALPY
--------

The enthalpy is H = U + kB*T
                kB is Boltzmann's constant
Total free energy                 ...   -491.69953707 Eh 
Thermal Enthalpy correction       ...      0.00094421 Eh       0.59 kcal/mol
-----------------------------------------------------------------------
Total Enthalpy                    ...   -491.69859286 Eh


Note: Rotational entropy computed according to Herzberg 
Infrared and Raman Spectra, Chapter V,1, Van Nostrand Reinhold, 1945 
Point Group:  C1, Symmetry Number:   1  
Rotational constants in cm-1:     0.090156     0.032908     0.024108 

Vibrational entropy computed according to the QRRHO of S. Grimme
Chem.Eur.J. 2012 18 9955


-------
ENTROPY
-------

The entropy contributions are T*S = T*(S(el)+S(vib)+S(rot)+S(trans))
     S(el)   - electronic entropy
     S(vib)  - vibrational entropy
     S(rot)  - rotational entropy
     S(trans)- translational entropy
The entropies will be listed as mutliplied by the temperature to get
units of energy

Electronic entropy                ...      0.00000000 Eh      0.00 kcal/mol
Vibrational entropy               ...      0.00835374 Eh      5.24 kcal/mol
Rotational entropy                ...      0.01401714 Eh      8.80 kcal/mol
Translational entropy             ...      0.01932869 Eh     12.13 kcal/mol
-----------------------------------------------------------------------
Final entropy term                ...      0.04169957 Eh     26.17 kcal/mol


-------------------
GIBBS FREE ENTHALPY
-------------------

The Gibbs free enthalpy is G = H - T*S

Total enthalpy                    ...   -491.69859286 Eh 
Total entropy correction          ...     -0.04169957 Eh    -26.17 kcal/mol
-----------------------------------------------------------------------
Final Gibbs free enthalpy         ...   -491.74029243 Eh

For completeness - the Gibbs free enthalpy minus the electronic energy
G-E(el)                           ...      0.08637978 Eh     54.20 kcal/mol


Timings for individual modules:

Sum of individual times         ...     1356.221 sec (=  22.604 min)
GTO integral calculation        ...        0.684 sec (=   0.011 min)   0.1 %
SCF iterations                  ...       60.452 sec (=   1.008 min)   4.5 %
Analytical frequency calculation...     1295.085 sec (=  21.585 min)  95.5 %
                             ****ORCA TERMINATED NORMALLY****
TOTAL RUN TIME: 0 days 0 hours 22 minutes 37 seconds 796 msec
