
                                 *****************
                                 * O   R   C   A *
                                 *****************

           --- An Ab Initio, DFT and Semiempirical electronic structure package ---

                  #######################################################
                  #                        -***-                        #
                  #          Department of theory and spectroscopy      #
                  #               Directorship: Frank Neese             #
                  #        Max Planck Institute fuer Kohlenforschung    #
                  #                Kaiser Wilhelm Platz 1               #
                  #                 D-45470 Muelheim/Ruhr               #
                  #                      Germany                        #
                  #                                                     #
                  #                  All rights reserved                #
                  #                        -***-                        #
                  #######################################################


                         Program Version 4.1.0  - RELEASE  -


 With contributions from (in alphabetic order):
   Daniel Aravena         : Magnetic Properties
   Michael Atanasov       : Ab Initio Ligand Field Theory
   Alexander A. Auer      : GIAO ZORA
   Ute Becker             : Parallelization
   Giovanni Bistoni       : ED, Open-shell LED
   Martin Brehm           : Molecular dynamics
   Dmytro Bykov           : SCF Hessian
   Vijay G. Chilkuri      : MRCI spin determinant printing
   Dipayan Datta          : RHF DLPNO-CCSD density
   Achintya Kumar Dutta   : EOM-CC, STEOM-CC
   Dmitry Ganyushin       : Spin-Orbit,Spin-Spin,Magnetic field MRCI
   Miquel Garcia          : C-PCM Hessian
   Yang Guo               : DLPNO-NEVPT2, CIM, IAO-localization
   Andreas Hansen         : Spin unrestricted coupled pair/coupled cluster methods
   Benjamin Helmich-Paris : CASSCF linear response (MC-RPA)
   Lee Huntington         : MR-EOM, pCC
   Robert Izsak           : Overlap fitted RIJCOSX, COSX-SCS-MP3, EOM
   Christian Kollmar      : KDIIS, OOCD, Brueckner-CCSD(T), CCSD density
   Simone Kossmann        : Meta GGA functionals, TD-DFT gradient, OOMP2, MP2 Hessian
   Martin Krupicka        : AUTO-CI
   Lucas Lang             : DCDCAS
   Dagmar Lenk            : GEPOL surface, SMD
   Dimitrios Liakos       : Extrapolation schemes; parallel MDCI
   Dimitrios Manganas     : ROCIS; embedding schemes
   Dimitrios Pantazis     : SARC Basis sets
   Taras Petrenko         : DFT Hessian,TD-DFT gradient, ASA, ECA, R-Raman, ABS, FL, XAS/XES, NRVS
   Peter Pinski           : DLPNO-MP2, DLPNO-MP2 Gradient
   Christoph Reimann      : Effective Core Potentials
   Marius Retegan         : Local ZFS, SOC
   Christoph Riplinger    : Optimizer, TS searches, QM/MM, DLPNO-CCSD(T), (RO)-DLPNO pert. Triples
   Tobias Risthaus        : Range-separated hybrids, TD-DFT gradient, RPA, STAB
   Michael Roemelt        : Restricted open shell CIS
   Masaaki Saitow         : Open-shell DLPNO
   Barbara Sandhoefer     : DKH picture change effects
   Avijit Sen             : IP-ROCIS
   Kantharuban Sivalingam : CASSCF convergence, NEVPT2, FIC-MRCI
   Bernardo de Souza      : ESD, SOC TD-DFT
   Georgi Stoychev        : AutoAux, RI-MP2 NMR
   Willem Van den Heuvel  : Paramagnetic NMR
   Boris Wezisla          : Elementary symmetry handling
   Frank Wennmohs         : Technical directorship


 We gratefully acknowledge several colleagues who have allowed us to
 interface, adapt or use parts of their codes:
   Stefan Grimme, W. Hujo, H. Kruse,             : VdW corrections, initial TS optimization,
                  C. Bannwarth                     DFT functionals, gCP, sTDA/sTD-DF
   Ed Valeev                                     : LibInt (2-el integral package), F12 methods
   Garnet Chan, S. Sharma, J. Yang, R. Olivares  : DMRG
   Ulf Ekstrom                                   : XCFun DFT Library
   Mihaly Kallay                                 : mrcc  (arbitrary order and MRCC methods)
   Andreas Klamt, Michael Diedenhofen            : otool_cosmo (COSMO solvation model)
   Jiri Pittner, Ondrej Demel                    : Mk-CCSD
   Frank Weinhold                                : gennbo (NPA and NBO analysis)
   Christopher J. Cramer and Donald G. Truhlar   : smd solvation model
   Lars Goerigk                                  : TD-DFT with DH, B97 family of functionals
   V. Asgeirsson, H. Jonsson                     : NEB implementation
   FAccTs GmbH                                   : IRC, NEB, NEB-TS, Multilevel


 Your calculation uses the libint2 library for the computation of 2-el integrals
 For citations please refer to: http://libint.valeyev.net

 This ORCA versions uses:
   CBLAS   interface :  Fast vector & matrix operations
   LAPACKE interface :  Fast linear algebra routines
   SCALAPACK package :  Parallel linear algebra routines




***************************************
The coordinates will be read from file: /Users/lailaal-madhagi/Desktop/Testing_XAS_Analysis_code/Acetaldehyde/Acetaldehyde_geom.xyz
***************************************


----- Orbital basis set information -----
Your calculation utilizes the basis: 6-31G*
   H-He, Li-Ne : W. J. Hehre, R. Ditchfield and J.A. Pople, J. Chem. Phys. 56, 2257 (1972).
                 Note: He and Ne are unpublished basis sets taken from the Gaussian program.
                 Note: Li and B from J. D. Dill and J. A. Pople, J. Chem. Phys. 62, 2921 (1975).
   Na - Ar     : M. M. Francl, W. J. Pietro, W. J. Hehre, J. S. Binkley, M. S. Gordon, 
                 D. J. DeFrees and J. A. Pople, J. Chem. Phys. 77, 3654 (1982).
   K - Zn      : V. A. Rassolov, J. A. Pople, M. A. Ratner, and T. L. Windus, J. Chem. Phys. 109, 1223 (1998).

================================================================================
                                        WARNINGS
                       Please study these warnings very carefully!
================================================================================


WARNING: Geometry Optimization
  ===> : Switching off AutoStart
         For restart on a previous wavefunction, please use MOREAD

INFO   : the flag for use of LIBINT has been found!

================================================================================
                                       INPUT FILE
================================================================================
NAME = /Users/lailaal-madhagi/Desktop/Testing_XAS_Analysis_code/Acetaldehyde//Results_dir_Acetaldehyde_geom_element_C_2019-11-03_18-34-06//GTE1_Acetaldehyde_geom_2019-11-03_18-34-39//opt.inp
|  1> ! B3LYP 6-31G* TIGHTSCF Grid3 FinalGrid5 Opt 
|  2> !NormalPrint 
|  3> %output 
|  4> Print[P_Basis] 2 
|  5> Print[P_MOS] 1 
|  6> end 
|  7> *xyzfile 0 1 /Users/lailaal-madhagi/Desktop/Testing_XAS_Analysis_code/Acetaldehyde/Acetaldehyde_geom.xyz                           ****END OF INPUT****
================================================================================

                       *****************************
                       * Geometry Optimization Run *
                       *****************************

Geometry optimization settings:
Update method            Update   .... BFGS
Choice of coordinates    CoordSys .... Z-matrix Internals
Initial Hessian          InHess   .... Almoef's Model

Convergence Tolerances:
Energy Change            TolE     ....  5.0000e-06 Eh
Max. Gradient            TolMAXG  ....  3.0000e-04 Eh/bohr
RMS Gradient             TolRMSG  ....  1.0000e-04 Eh/bohr
Max. Displacement        TolMAXD  ....  4.0000e-03 bohr
RMS Displacement         TolRMSD  ....  2.0000e-03 bohr

------------------------------------------------------------------------------
                        ORCA OPTIMIZATION COORDINATE SETUP
------------------------------------------------------------------------------

The optimization will be done in new redundant internal coordinates
Making redundant internal coordinates   ...  (new redundants) done
Evaluating the initial hessian          ...  (Almloef) done
Evaluating the coordinates              ...  done
Calculating the B-matrix                .... done
Calculating the G-matrix                .... done
Diagonalizing the G-matrix              .... done
The first mode is                       ....    6
The number of degrees of freedom        ....   15

    -----------------------------------------------------------------
                    Redundant Internal Coordinates


    -----------------------------------------------------------------
         Definition                    Initial Value    Approx d2E/dq
    -----------------------------------------------------------------
      1. B(C   1,C   0)                  1.4932         0.427713   
      2. B(H   2,C   0)                  1.1101         0.334411   
      3. B(H   3,C   0)                  1.1101         0.334514   
      4. B(H   4,C   0)                  1.1102         0.334401   
      5. B(O   5,C   1)                  1.2203         1.043968   
      6. B(H   6,C   1)                  1.0852         0.366562   
      7. A(C   1,C   0,H   3)          109.8151         0.327624   
      8. A(C   1,C   0,H   4)          109.7528         0.327606   
      9. A(C   1,C   0,H   2)          109.7532         0.327608   
     10. A(H   2,C   0,H   4)          109.3631         0.284188   
     11. A(H   3,C   0,H   4)          109.0687         0.284202   
     12. A(H   2,C   0,H   3)          109.0694         0.284203   
     13. A(C   0,C   1,O   5)          120.1790         0.443029   
     14. A(O   5,C   1,H   6)          119.6855         0.384688   
     15. A(C   0,C   1,H   6)          120.1355         0.332617   
     16. D(O   5,C   1,C   0,H   3)    179.9996         0.013514   
     17. D(O   5,C   1,C   0,H   4)     60.1080         0.013514   
     18. D(H   6,C   1,C   0,H   2)    119.8921         0.013514   
     19. D(H   6,C   1,C   0,H   3)     -0.0006         0.013514   
     20. D(H   6,C   1,C   0,H   4)   -119.8921         0.013514   
     21. D(O   5,C   1,C   0,H   2)    -60.1077         0.013514   
    -----------------------------------------------------------------

Number of atoms                         .... 7
Number of degrees of freedom            .... 21

         *************************************************************
         *                GEOMETRY OPTIMIZATION CYCLE   1            *
         *************************************************************
---------------------------------
CARTESIAN COORDINATES (ANGSTROEM)
---------------------------------
  C     -3.773250   -0.093530    0.003440
  C     -2.307140    0.189390    0.000810
  H     -4.262270    0.468100    0.826760
  H     -3.946600   -1.179800    0.152460
  H     -4.216600    0.214790   -0.966520
  O     -1.902930    1.330820   -0.150130
  H     -1.595960   -0.619480    0.133180

----------------------------
CARTESIAN COORDINATES (A.U.)
----------------------------
  NO LB      ZA    FRAG     MASS         X           Y           Z
   0 C     6.0000    0    12.011   -7.130409   -0.176746    0.006501
   1 C     6.0000    0    12.011   -4.359863    0.357895    0.001531
   2 H     1.0000    0     1.008   -8.054523    0.884581    1.562350
   3 H     1.0000    0     1.008   -7.457993   -2.229499    0.288108
   4 H     1.0000    0     1.008   -7.968219    0.405894   -1.826458
   5 O     8.0000    0    15.999   -3.596017    2.514885   -0.283705
   6 H     1.0000    0     1.008   -3.015927   -1.170648    0.251674

--------------------------------
INTERNAL COORDINATES (ANGSTROEM)
--------------------------------
 C      0   0   0     0.000000000000     0.00000000     0.00000000
 C      1   0   0     1.493160800249     0.00000000     0.00000000
 H      1   2   0     1.110146224468   109.75316824     0.00000000
 H      1   2   3     1.110062924252   109.81508850   240.10729625
 H      1   2   3     1.110154424618   109.75275533   120.21573044
 O      2   1   3     1.220258600707   120.17901025   299.89231698
 H      2   1   3     1.085158737789   120.13549835   119.89214350

---------------------------
INTERNAL COORDINATES (A.U.)
---------------------------
 C      0   0   0     0.000000000000     0.00000000     0.00000000
 C      1   0   0     2.821664986377     0.00000000     0.00000000
 H      1   2   0     2.097872332851   109.75316824     0.00000000
 H      1   2   3     2.097714918257   109.81508850   240.10729625
 H      1   2   3     2.097887828890   109.75275533   120.21573044
 O      2   1   3     2.305954567899   120.17901025   299.89231698
 H      2   1   3     2.050652826253   120.13549835   119.89214350

---------------------
BASIS SET INFORMATION
---------------------
There are 3 groups of distinct atoms

 Group   1 Type C   : 10s4p1d contracted to 3s2p1d pattern {631/31/1}
 Group   2 Type H   : 4s contracted to 2s pattern {31}
 Group   3 Type O   : 10s4p1d contracted to 3s2p1d pattern {631/31/1}

Atom   0C    basis set group =>   1
Atom   1C    basis set group =>   1
Atom   2H    basis set group =>   2
Atom   3H    basis set group =>   2
Atom   4H    basis set group =>   2
Atom   5O    basis set group =>   3
Atom   6H    basis set group =>   2

-------------------------
BASIS SET IN INPUT FORMAT
-------------------------

 # Basis set for element : H 
 NewGTO H 
 S 3 
   1      18.7311370000      0.0334945995
   2       2.8253937000      0.2347269467
   3       0.6401217000      0.8137573184
 S 1 
   1       0.1612778000      1.0000000000
  end;

 # Basis set for element : C 
 NewGTO C 
 S 6 
   1    3047.5249000000      0.0018347002
   2     457.3695100000      0.0140373012
   3     103.9486900000      0.0688426061
   4      29.2101550000      0.2321844206
   5       9.2866630000      0.4679413416
   6       3.1639270000      0.3623120322
 S 3 
   1       7.8682724000     -0.1193324086
   2       1.8812885000     -0.1608542116
   3       0.5442493000      1.1434564826
 P 3 
   1       7.8682724000      0.0689990956
   2       1.8812885000      0.3164239798
   3       0.5442493000      0.7443082524
 S 1 
   1       0.1687144000      1.0000000000
 P 1 
   1       0.1687144000      1.0000000000
 D 1 
   1       0.8000000000      1.0000000000
  end;

 # Basis set for element : O 
 NewGTO O 
 S 6 
   1    5484.6717000000      0.0018310998
   2     825.2349500000      0.0139500985
   3     188.0469600000      0.0684450927
   4      52.9645000000      0.2327142753
   5      16.8975700000      0.4701929501
   6       5.7996353000      0.3585208619
 S 3 
   1      15.5396160000     -0.1107775038
   2       3.5999336000     -0.1480263051
   3       1.0137618000      1.1307670390
 P 3 
   1      15.5396160000      0.0708742995
   2       3.5999336000      0.3397527978
   3       1.0137618000      0.7271585953
 S 1 
   1       0.2700058000      1.0000000000
 P 1 
   1       0.2700058000      1.0000000000
 D 1 
   1       0.8000000000      1.0000000000
  end;

------------------------------------------------------------------------------
                           ORCA GTO INTEGRAL CALCULATION
------------------------------------------------------------------------------

                         BASIS SET STATISTICS AND STARTUP INFO

 # of primitive gaussian shells          ...   61
 # of primitive gaussian functions       ...   97
 # of contracted shells                  ...   26
 # of contracted basis functions         ...   50
 Highest angular momentum                ...    2
 Maximum contraction depth               ...    6
 Integral package used                   ... LIBINT
 Integral threshhold            Thresh   ...  2.500e-11
 Primitive cut-off              TCut     ...  2.500e-12


------------------------------ INTEGRAL EVALUATION ----------------------------


 * One electron integrals 
 Pre-screening matrix                    ... done
 Shell pair data                         ... done (   0.001 sec)

-------------------------------------------------------------------------------
                                 ORCA SCF
-------------------------------------------------------------------------------

------------
SCF SETTINGS
------------
Hamiltonian:
 Density Functional     Method          .... DFT(GTOs)
 Exchange Functional    Exchange        .... B88
   X-Alpha parameter    XAlpha          ....  0.666667
   Becke's b parameter  XBeta           ....  0.004200
 Correlation Functional Correlation     .... LYP
 LDA part of GGA corr.  LDAOpt          .... VWN-5
 Gradients option       PostSCFGGA      .... off
 Hybrid DFT is turned on
   Fraction HF Exchange ScalHFX         ....  0.200000
   Scaling of DF-GGA-X  ScalDFX         ....  0.720000
   Scaling of DF-GGA-C  ScalDFC         ....  0.810000
   Scaling of DF-LDA-C  ScalLDAC        ....  1.000000
   Perturbative correction              ....  0.000000
   Density functional embedding theory  .... OFF
   NL short-range parameter             ....  4.800000


General Settings:
 Integral files         IntName         .... /Users/lailaal-madhagi/Desktop/Testing_XAS_Analysis_code/Acetaldehyde//Results_dir_Acetaldehyde_geom_element_C_2019-11-03_18-34-06//GTE1_Acetaldehyde_geom_2019-11-03_18-34-39//opt
 Hartree-Fock type      HFTyp           .... RHF
 Total Charge           Charge          ....    0
 Multiplicity           Mult            ....    1
 Number of Electrons    NEL             ....   24
 Basis Dimension        Dim             ....   50
 Nuclear Repulsion      ENuc            ....     69.7455281621 Eh

Convergence Acceleration:
 DIIS                   CNVDIIS         .... on
   Start iteration      DIISMaxIt       ....    12
   Startup error        DIISStart       ....  0.200000
   # of expansion vecs  DIISMaxEq       ....     5
   Bias factor          DIISBfac        ....   1.050
   Max. coefficient     DIISMaxC        ....  10.000
 Newton-Raphson         CNVNR           .... off
 SOSCF                  CNVSOSCF        .... on
   Start iteration      SOSCFMaxIt      ....   150
   Startup grad/error   SOSCFStart      ....  0.003300
 Level Shifting         CNVShift        .... on
   Level shift para.    LevelShift      ....    0.2500
   Turn off err/grad.   ShiftErr        ....    0.0010
 Zerner damping         CNVZerner       .... off
 Static damping         CNVDamp         .... on
   Fraction old density DampFac         ....    0.7000
   Max. Damping (<1)    DampMax         ....    0.9800
   Min. Damping (>=0)   DampMin         ....    0.0000
   Turn off err/grad.   DampErr         ....    0.1000
 Fernandez-Rico         CNVRico         .... off

SCF Procedure:
 Maximum # iterations   MaxIter         ....   125
 SCF integral mode      SCFMode         .... Direct
   Integral package                     .... LIBINT
 Reset frequency        DirectResetFreq ....    20
 Integral Threshold     Thresh          ....  2.500e-11 Eh
 Primitive CutOff       TCut            ....  2.500e-12 Eh

Convergence Tolerance:
 Convergence Check Mode ConvCheckMode   .... Total+1el-Energy
 Convergence forced     ConvForced      .... 0
 Energy Change          TolE            ....  1.000e-08 Eh
 1-El. energy change                    ....  1.000e-05 Eh
 Orbital Gradient       TolG            ....  1.000e-05
 Orbital Rotation angle TolX            ....  1.000e-05
 DIIS Error             TolErr          ....  5.000e-07


Diagonalization of the overlap matrix:
Smallest eigenvalue                        ... 7.585e-03
Time for diagonalization                   ...    0.006 sec
Threshold for overlap eigenvalues          ... 1.000e-08
Number of eigenvalues below threshold      ... 0
Time for construction of square roots      ...    0.001 sec
Total time needed                          ...    0.007 sec

-------------------
DFT GRID GENERATION
-------------------

General Integration Accuracy     IntAcc      ...  4.340
Radial Grid Type                 RadialGrid  ... Gauss-Chebyshev
Angular Grid (max. acc.)         AngularGrid ... Lebedev-194
Angular grid pruning method      GridPruning ... 3 (G Style)
Weight generation scheme         WeightScheme... Becke
Basis function cutoff            BFCut       ...    1.0000e-11
Integration weight cutoff        WCut        ...    1.0000e-14
Grids for H and He will be reduced by one unit

# of grid points (after initial pruning)     ...  16026 (   0.0 sec)
# of grid points (after weights+screening)   ...  15466 (   0.0 sec)
nearest neighbour list constructed           ...    0.0 sec
Grid point re-assignment to atoms done       ...    0.0 sec
Grid point division into batches done        ...    0.0 sec
Reduced shell lists constructed in    0.1 sec

Total number of grid points                  ...    15466
Total number of batches                      ...      246
Average number of points per batch           ...       62
Average number of grid points per atom       ...     2209
Average number of shells per batch           ...    21.31 (81.95%)
Average number of basis functions per batch  ...    41.98 (83.96%)
Average number of large shells per batch     ...    18.73 (87.92%)
Average number of large basis fcns per batch ...    37.11 (88.41%)
Maximum spatial batch extension              ...  19.47, 21.21, 21.22 au
Average spatial batch extension              ...   3.72,  3.62,  3.78 au

Time for grid setup =    0.106 sec

------------------------------
INITIAL GUESS: MODEL POTENTIAL
------------------------------
Loading Hartree-Fock densities                     ... done
Calculating cut-offs                               ... done
Setting up the integral package                    ... done
Initializing the effective Hamiltonian             ... done
Starting the Coulomb interaction                   ... done (   0.0 sec)
Reading the grid                                   ... done
Mapping shells                                     ... done
Starting the XC term evaluation                    ... done (   0.0 sec)
  promolecular density results
     # of electrons  =     23.998406048
     EX              =    -19.621201121
     EC              =     -0.792123364
     EX+EC           =    -20.413324485
Transforming the Hamiltonian                       ... done (   0.0 sec)
Diagonalizing the Hamiltonian                      ... done (   0.0 sec)
Back transforming the eigenvectors                 ... done (   0.0 sec)
Now organizing SCF variables                       ... done
                      ------------------
                      INITIAL GUESS DONE (   0.3 sec)
                      ------------------
--------------
SCF ITERATIONS
--------------
               ***  Starting incremental Fock matrix formation  ***

                         ----------------------------
                         !        ITERATION     0   !
                         ----------------------------
   Total Energy        :    -153.607250410102 Eh
   Energy Change       :    -153.607250410102 Eh
   MAX-DP              :       0.100647391087
   RMS-DP              :       0.005946195758
   Actual Damping      :       0.7000
   Actual Level Shift  :       0.2500 Eh
   Int. Num. El.       :    24.00014614 (UP=   12.00007307 DN=   12.00007307)
   Exchange            :   -16.19619458
   Correlation         :    -0.95473138


                         ----------------------------
                         !        ITERATION     1   !
                         ----------------------------
   Total Energy        :    -153.670090323569 Eh
   Energy Change       :      -0.062839913466 Eh
   MAX-DP              :       0.059824106790
   RMS-DP              :       0.003785605345
   Actual Damping      :       0.7000
   Actual Level Shift  :       0.2500 Eh
   Int. Num. El.       :    24.00017118 (UP=   12.00008559 DN=   12.00008559)
   Exchange            :   -16.02689238
   Correlation         :    -0.94880653

                               ***Turning on DIIS***

                         ----------------------------
                         !        ITERATION     2   !
                         ----------------------------
   Total Energy        :    -153.690573995013 Eh
   Energy Change       :      -0.020483671444 Eh
   MAX-DP              :       0.065782786003
   RMS-DP              :       0.005196061971
   Actual Damping      :       0.0000
   Actual Level Shift  :       0.2500 Eh
   Int. Num. El.       :    24.00018588 (UP=   12.00009294 DN=   12.00009294)
   Exchange            :   -15.92828296
   Correlation         :    -0.94495791
   DIIS-Error          :       0.039340403449


                         ----------------------------
                         !        ITERATION     3   !
                         ----------------------------
   Total Energy        :    -153.727024303829 Eh
   Energy Change       :      -0.036450308816 Eh
   MAX-DP              :       0.039160403005
   RMS-DP              :       0.002765813225
   Actual Damping      :       0.0000
   Actual Level Shift  :       0.2500 Eh
   Int. Num. El.       :    24.00020438 (UP=   12.00010219 DN=   12.00010219)
   Exchange            :   -15.81303115
   Correlation         :    -0.93963624
   DIIS-Error          :       0.050622984929
   DIIS coefficients:
      0.61088   0.38912


                         ----------------------------
                         !        ITERATION     4   !
                         ----------------------------
   Total Energy        :    -153.733753931763 Eh
   Energy Change       :      -0.006729627934 Eh
   MAX-DP              :       0.009923852809
   RMS-DP              :       0.000858734548
   Actual Damping      :       0.0000
   Actual Level Shift  :       0.2500 Eh
   Int. Num. El.       :    24.00019595 (UP=   12.00009797 DN=   12.00009797)
   Exchange            :   -15.87483741
   Correlation         :    -0.94216719
   DIIS-Error          :       0.019565910631
   DIIS coefficients:
      0.33132   0.13043   0.53825

                      *** Initiating the SOSCF procedure ***
                           *** Shutting down DIIS ***
                      *** Re-Reading the Fockian *** 
                      *** Removing any level shift *** 

                         ----------------------------
                         !        ITERATION     5   !
                         ----------------------------
   Total Energy        :    -153.734634552490 Eh
   Energy Change       :      -0.000880620727 Eh
   MAX-DP              :       0.003835120957
   RMS-DP              :       0.000236405115
   Orbital gradient    :       0.000681416560
   Orbital Rotation    :       0.000681416560
   Actual Damping      :       0.0000
   Int. Num. El.       :    24.00019431 (UP=   12.00009716 DN=   12.00009716)
   Exchange            :   -15.87855699
   Correlation         :    -0.94265585

               *** Restarting incremental Fock matrix formation ***

                         ----------------------------
                         !        ITERATION     6   !
                         ----------------------------
   Total Energy        :    -153.734654393374 Eh
   Energy Change       :      -0.000019840885 Eh
   MAX-DP              :       0.001599153602
   RMS-DP              :       0.000127667317
   Orbital gradient    :       0.000384452557
   Orbital Rotation    :       0.000861252333
   Actual Damping      :       0.0000
   Int. Num. El.       :    24.00019421 (UP=   12.00009710 DN=   12.00009710)
   Exchange            :   -15.88149387
   Correlation         :    -0.94278529


                         ----------------------------
                         !        ITERATION     7   !
                         ----------------------------
   Total Energy        :    -153.734653766243 Eh
   Energy Change       :       0.000000627131 Eh
   MAX-DP              :       0.000890308722
   RMS-DP              :       0.000064916653
   Orbital gradient    :       0.000671053833
   Orbital Rotation    :       0.000753729793
   Actual Damping      :       0.0000
   Int. Num. El.       :    24.00019479 (UP=   12.00009739 DN=   12.00009739)
   Exchange            :   -15.88086401
   Correlation         :    -0.94278780


                         ----------------------------
                         !        ITERATION     8   !
                         ----------------------------
   Total Energy        :    -153.734656403702 Eh
   Energy Change       :      -0.000002637458 Eh
   MAX-DP              :       0.000474240056
   RMS-DP              :       0.000038292992
   Orbital gradient    :       0.000136805898
   Orbital Rotation    :       0.000192621032
   Actual Damping      :       0.0000
   Int. Num. El.       :    24.00019489 (UP=   12.00009744 DN=   12.00009744)
   Exchange            :   -15.88150228
   Correlation         :    -0.94279866


                         ----------------------------
                         !        ITERATION     9   !
                         ----------------------------
   Total Energy        :    -153.734656400108 Eh
   Energy Change       :       0.000000003594 Eh
   MAX-DP              :       0.000228787119
   RMS-DP              :       0.000013756292
   Orbital gradient    :       0.000107935276
   Orbital Rotation    :       0.000085084009
   Actual Damping      :       0.0000
   Int. Num. El.       :    24.00019479 (UP=   12.00009740 DN=   12.00009740)
   Exchange            :   -15.88123121
   Correlation         :    -0.94278559


                         ----------------------------
                         !        ITERATION    10   !
                         ----------------------------
   Total Energy        :    -153.734656617172 Eh
   Energy Change       :      -0.000000217064 Eh
   MAX-DP              :       0.000038976028
   RMS-DP              :       0.000002952333
   Orbital gradient    :       0.000008540430
   Orbital Rotation    :       0.000014818792
   Actual Damping      :       0.0000
   Int. Num. El.       :    24.00019482 (UP=   12.00009741 DN=   12.00009741)
   Exchange            :   -15.88135625
   Correlation         :    -0.94279269


                         ----------------------------
                         !        ITERATION    11   !
                         ----------------------------
   Total Energy        :    -153.734656617997 Eh
   Energy Change       :      -0.000000000825 Eh
   MAX-DP              :       0.000006721515
   RMS-DP              :       0.000000583709
   Orbital gradient    :       0.000005657547
   Orbital Rotation    :       0.000003574476
   Actual Damping      :       0.0000
   Int. Num. El.       :    24.00019483 (UP=   12.00009741 DN=   12.00009741)
   Exchange            :   -15.88133580
   Correlation         :    -0.94279166

                  ***Gradient check signals convergence***
              ***Rediagonalizing the Fockian in SOSCF/NRSCF***

               *****************************************************
               *                     SUCCESS                       *
               *           SCF CONVERGED AFTER  12 CYCLES          *
               *****************************************************

Setting up the final grid:

General Integration Accuracy     IntAcc      ...  5.010
Radial Grid Type                 RadialGrid  ... Gauss-Chebyshev
Angular Grid (max. acc.)         AngularGrid ... Lebedev-434
Angular grid pruning method      GridPruning ... 3 (G Style)
Weight generation scheme         WeightScheme... Becke
Basis function cutoff            BFCut       ...    1.0000e-11
Integration weight cutoff        WCut        ...    1.0000e-14
Grids for H and He will be reduced by one unit

# of grid points (after initial pruning)     ...  59006 (   0.0 sec)
# of grid points (after weights+screening)   ...  56555 (   0.0 sec)
nearest neighbour list constructed           ...    0.0 sec
Grid point re-assignment to atoms done       ...    0.0 sec
Grid point division into batches done        ...    0.3 sec
Reduced shell lists constructed in    0.4 sec

Total number of grid points                  ...    56555
Total number of batches                      ...      887
Average number of points per batch           ...       63
Average number of grid points per atom       ...     8079
Average number of shells per batch           ...    20.09 (77.27%)
Average number of basis functions per batch  ...    39.53 (79.05%)
Average number of large shells per batch     ...    17.42 (86.72%)
Average number of large basis fcns per batch ...    34.43 (87.10%)
Maximum spatial batch extension              ...  18.01, 18.71, 18.04 au
Average spatial batch extension              ...   2.51,  2.44,  2.47 au

Final grid set up in    0.5 sec
Final integration                            ... done (   0.2 sec)
Change in XC energy                          ...    -0.000039862
Integrated number of electrons               ...    24.000001661
Previous integrated no of electrons          ...    24.000194823

----------------
TOTAL SCF ENERGY
----------------

Total Energy       :         -153.73469648 Eh           -4183.33377 eV

Components:
Nuclear Repulsion  :           69.74552816 Eh            1897.87231 eV
Electronic Energy  :         -223.48022464 Eh           -6081.20608 eV
One Electron Energy:         -346.30645289 Eh           -9423.47766 eV
Two Electron Energy:          122.82622824 Eh            3342.27159 eV

Virial components:
Potential Energy   :         -306.55307259 Eh           -8341.73319 eV
Kinetic Energy     :          152.81837611 Eh            4158.39942 eV
Virial Ratio       :            2.00599614


DFT components:
N(Alpha)           :       12.000000830392 electrons
N(Beta)            :       12.000000830392 electrons
N(Total)           :       24.000001660784 electrons
E(X)               :      -15.881389818872 Eh       
E(C)               :       -0.942791796340 Eh       
E(XC)              :      -16.824181615211 Eh       
DFET-embed. en.    :        0.000000000000 Eh       

---------------
SCF CONVERGENCE
---------------

  Last Energy change         ...   -2.6483e-10  Tolerance :   1.0000e-08
  Last MAX-Density change    ...    7.9356e-06  Tolerance :   1.0000e-07
  Last RMS-Density change    ...    4.8002e-07  Tolerance :   5.0000e-09
  Last Orbital Gradient      ...    8.2941e-07  Tolerance :   1.0000e-05
  Last Orbital Rotation      ...    2.4844e-06  Tolerance :   1.0000e-05

             **** THE GBW FILE WAS UPDATED (/Users/lailaal-madhagi/Desktop/Testing_XAS_Analysis_code/Acetaldehyde//Results_dir_Acetaldehyde_geom_element_C_2019-11-03_18-34-06//GTE1_Acetaldehyde_geom_2019-11-03_18-34-39//opt.gbw) ****
             **** DENSITY FILE WAS UPDATED (/Users/lailaal-madhagi/Desktop/Testing_XAS_Analysis_code/Acetaldehyde//Results_dir_Acetaldehyde_geom_element_C_2019-11-03_18-34-06//GTE1_Acetaldehyde_geom_2019-11-03_18-34-39//opt.scfp.tmp) ****
             **** ENERGY FILE WAS UPDATED (/Users/lailaal-madhagi/Desktop/Testing_XAS_Analysis_code/Acetaldehyde//Results_dir_Acetaldehyde_geom_element_C_2019-11-03_18-34-06//GTE1_Acetaldehyde_geom_2019-11-03_18-34-39//opt.en.tmp) ****
----------------
ORBITAL ENERGIES
----------------

  NO   OCC          E(Eh)            E(eV) 
   0   2.0000     -19.137850      -520.7674 
   1   2.0000     -10.268027      -279.4072 
   2   2.0000     -10.188142      -277.2334 
   3   2.0000      -1.035334       -28.1729 
   4   2.0000      -0.746986       -20.3265 
   5   2.0000      -0.582293       -15.8450 
   6   2.0000      -0.471767       -12.8374 
   7   2.0000      -0.442223       -12.0335 
   8   2.0000      -0.427317       -11.6279 
   9   2.0000      -0.389768       -10.6061 
  10   2.0000      -0.352414        -9.5897 
  11   2.0000      -0.249372        -6.7857 
  12   0.0000      -0.026166        -0.7120 
  13   0.0000       0.110815         3.0154 
  14   0.0000       0.119168         3.2427 
  15   0.0000       0.170589         4.6420 
  16   0.0000       0.178212         4.8494 
  17   0.0000       0.256395         6.9769 
  18   0.0000       0.279485         7.6052 
  19   0.0000       0.530668        14.4402 
  20   0.0000       0.533622        14.5206 
  21   0.0000       0.585996        15.9458 
  22   0.0000       0.613655        16.6984 
  23   0.0000       0.664976        18.0949 
  24   0.0000       0.726956        19.7815 
  25   0.0000       0.773666        21.0525 
  26   0.0000       0.846311        23.0293 
  27   0.0000       0.858570        23.3629 
  28   0.0000       0.875751        23.8304 
  29   0.0000       0.924030        25.1441 
  30   0.0000       0.944356        25.6972 
  31   0.0000       0.996068        27.1044 
  32   0.0000       1.089416        29.6445 
  33   0.0000       1.230316        33.4786 
  34   0.0000       1.398648        38.0591 
  35   0.0000       1.514377        41.2083 
  36   0.0000       1.586426        43.1688 
  37   0.0000       1.718791        46.7707 
  38   0.0000       1.808516        49.2122 
  39   0.0000       1.824759        49.6542 
  40   0.0000       1.858615        50.5755 
  41   0.0000       2.045936        55.6728 
  42   0.0000       2.124745        57.8173 
  43   0.0000       2.206832        60.0510 
  44   0.0000       2.238909        60.9238 
  45   0.0000       2.317192        63.0540 
  46   0.0000       2.563035        69.7437 
  47   0.0000       2.589556        70.4654 
  48   0.0000       2.842707        77.3540 
  49   0.0000       2.938863        79.9705 
------------------
MOLECULAR ORBITALS
------------------
                      0         1         2         3         4         5   
                 -19.13785 -10.26803 -10.18814  -1.03533  -0.74699  -0.58229
                   2.00000   2.00000   2.00000   2.00000   2.00000   2.00000
                  --------  --------  --------  --------  --------  --------
  0C   1s        -0.000007 -0.001175  0.995266  0.020657  0.180221  0.071520
  0C   2s         0.000339  0.000945  0.037260 -0.039101 -0.346170 -0.139153
  0C   1pz       -0.000028  0.000009 -0.000002  0.001161 -0.001346  0.008517
  0C   1px        0.000341  0.001082  0.000355 -0.026825 -0.048323  0.154845
  0C   1py        0.000261  0.000134  0.000081 -0.013034  0.001074 -0.032347
  0C   3s         0.000735 -0.004819 -0.032154 -0.023774 -0.315568 -0.173179
  0C   2pz       -0.000151 -0.000173  0.000002  0.001187 -0.001045  0.002667
  0C   2px        0.000213 -0.003394 -0.001659 -0.001738 -0.005068  0.046226
  0C   2py        0.001107  0.000612 -0.000313 -0.008840  0.005382 -0.010287
  0C   1dz2       0.000083 -0.000594 -0.000058  0.002186 -0.000344 -0.008467
  0C   1dxz      -0.000058 -0.000013 -0.000000  0.000284 -0.000197  0.000498
  0C   1dyz       0.000043  0.000005  0.000003 -0.000054 -0.000132 -0.000557
  0C   1dx2y2     0.000079  0.000985  0.000116 -0.003542 -0.000525  0.010622
  0C   1dxy       0.000398  0.000455  0.000041 -0.003331  0.001433  0.001056
  1C   1s        -0.000206 -0.995116 -0.001131  0.117710  0.081080 -0.132677
  1C   2s         0.000067 -0.035706 -0.001286 -0.225195 -0.163968  0.279453
  1C   1pz       -0.000025  0.000268  0.000015  0.022563 -0.012771  0.031702
  1C   1px       -0.000122 -0.000475  0.000662 -0.055506  0.146139  0.127740
  1C   1py        0.000151 -0.001983  0.000010 -0.169778  0.116727 -0.201202
  1C   3s        -0.009147  0.016458  0.007537 -0.085038 -0.119076  0.260070
  1C   2pz        0.000945  0.000628  0.000022 -0.002803 -0.003792  0.013223
  1C   2px       -0.000511 -0.002620 -0.003854 -0.001941  0.025351  0.024694
  1C   2py       -0.006780 -0.004921 -0.000850  0.019639  0.031773 -0.089857
  1C   1dz2      -0.000191  0.001183  0.000492  0.014784  0.004896 -0.004878
  1C   1dxz      -0.000092  0.000096  0.000015  0.001776 -0.001225  0.002267
  1C   1dyz      -0.000127  0.000403 -0.000024  0.006035 -0.000817 -0.001426
  1C   1dx2y2    -0.000662  0.000910 -0.000944  0.018811 -0.014989  0.001222
  1C   1dxy       0.000595 -0.000893 -0.000428 -0.013955  0.004427 -0.014230
  2H   1s        -0.000085  0.000350 -0.000499 -0.007590 -0.107159 -0.095236
  2H   2s         0.000162 -0.000973  0.005573  0.000590 -0.022411 -0.045816
  3H   1s         0.000208  0.000428 -0.000479 -0.005910 -0.111450 -0.052750
  3H   2s        -0.000248 -0.000191  0.005528  0.000896 -0.022759 -0.020927
  4H   1s        -0.000085  0.000350 -0.000499 -0.007595 -0.107187 -0.095237
  4H   2s         0.000162 -0.000973  0.005572  0.000580 -0.022577 -0.045827
  5O   1s        -0.995112  0.000034 -0.000016  0.193428 -0.058775  0.066493
  5O   2s        -0.029321 -0.000425 -0.000455 -0.426781  0.135961 -0.156188
  5O   1pz       -0.000278  0.000124 -0.000009 -0.019859  0.001003  0.018803
  5O   1px        0.000763 -0.000390  0.000147  0.054931  0.026075  0.036791
  5O   1py        0.002102 -0.000951  0.000092  0.150490 -0.002380 -0.126530
  5O   3s         0.018993  0.005126  0.000554 -0.376080  0.136903 -0.186242
  5O   2pz        0.000683  0.000557  0.000045 -0.005941 -0.000753  0.010336
  5O   2px       -0.002228 -0.001129 -0.000035  0.018297  0.012718  0.014233
  5O   2py       -0.005233 -0.004146 -0.000327  0.045270  0.007556 -0.070440
  5O   1dz2      -0.000094 -0.001085 -0.000259  0.002953  0.001999 -0.004629
  5O   1dxz      -0.000028 -0.000118  0.000021  0.001102  0.000326  0.000177
  5O   1dyz      -0.000032 -0.000431 -0.000064  0.001771  0.000361 -0.002682
  5O   1dx2y2    -0.000095 -0.001289  0.000015  0.008500 -0.000416 -0.010265
  5O   1dxy       0.000208  0.000954 -0.000064 -0.007242 -0.003019 -0.001603
  6H   1s         0.000311  0.001219 -0.000369 -0.030958 -0.053454  0.224528
  6H   2s        -0.001168 -0.005166  0.000200  0.010776 -0.011406  0.107225
                      6         7         8         9        10        11   
                  -0.47177  -0.44222  -0.42732  -0.38977  -0.35241  -0.24937
                   2.00000   2.00000   2.00000   2.00000   2.00000   2.00000
                  --------  --------  --------  --------  --------  --------
  0C   1s        -0.020711  0.000004 -0.006029  0.000678  0.000008 -0.036275
  0C   2s         0.037965 -0.000091  0.012616 -0.000797  0.000064  0.070489
  0C   1pz        0.026155  0.380811 -0.025005 -0.051832 -0.224500 -0.003197
  0C   1px       -0.207246 -0.009528 -0.279169 -0.051122  0.005744  0.215682
  0C   1py       -0.222075  0.053766  0.128008  0.358397 -0.031778  0.061427
  0C   3s         0.055344  0.000143  0.020726 -0.001318 -0.000347  0.276896
  0C   2pz        0.013059  0.179940 -0.011093 -0.023924 -0.141626  0.006535
  0C   2px       -0.078864 -0.004403 -0.139225 -0.019427  0.003508  0.170382
  0C   2py       -0.105564  0.025124  0.053840  0.165764 -0.019969 -0.014926
  0C   1dz2       0.000192 -0.004252  0.012902  0.014648  0.002614 -0.000074
  0C   1dxz       0.000606 -0.007580 -0.000038  0.001469  0.017399  0.000092
  0C   1dyz      -0.002184  0.015567  0.002501  0.005442 -0.007313  0.001214
  0C   1dx2y2    -0.014290 -0.002052 -0.004220  0.014660  0.000617  0.008397
  0C   1dxy      -0.006872 -0.001480 -0.004584 -0.012464  0.002654  0.000836
  1C   1s         0.048826 -0.000006 -0.008350  0.003661 -0.000006 -0.002088
  1C   2s        -0.113651  0.000047  0.027182 -0.017918  0.000035  0.016804
  1C   1pz        0.034298  0.227982 -0.021337  0.032207  0.273891 -0.008672
  1C   1px        0.271398 -0.005973  0.288138  0.019248 -0.006953 -0.138305
  1C   1py       -0.193449  0.032184  0.203919 -0.223917  0.038646  0.036578
  1C   3s        -0.077019 -0.000182 -0.001169  0.045072  0.000042 -0.017511
  1C   2pz        0.007053  0.114748 -0.003039  0.004569  0.180942 -0.002356
  1C   2px        0.090853 -0.003048  0.086063  0.027466 -0.004860  0.077067
  1C   2py       -0.033724  0.016320  0.037435 -0.027475  0.025599  0.030331
  1C   1dz2      -0.001612 -0.002425 -0.002293  0.001350 -0.005277  0.001095
  1C   1dxz      -0.000218 -0.007137 -0.000338  0.003204  0.015454 -0.004731
  1C   1dyz      -0.000197  0.008435 -0.001068  0.001475  0.023901  0.005464
  1C   1dx2y2     0.001021 -0.001035 -0.003928  0.011758 -0.003823  0.028984
  1C   1dxy       0.002269 -0.001238  0.002416 -0.021015  0.001554  0.038229
  2H   1s         0.021104  0.192300  0.114383  0.114474 -0.137592 -0.014340
  2H   2s         0.015868  0.145802  0.081062  0.103993 -0.108947 -0.046677
  3H   1s         0.166453 -0.000011 -0.044047 -0.240803  0.000042 -0.048218
  3H   2s         0.118543 -0.000146 -0.045157 -0.212834  0.000120 -0.126038
  4H   1s         0.021037 -0.192469  0.114202  0.114391  0.137575 -0.014327
  4H   2s         0.015895 -0.145784  0.080968  0.103928  0.108946 -0.046550
  5O   1s        -0.052988 -0.000011  0.061657 -0.028353  0.000000 -0.000034
  5O   2s         0.121327  0.000010 -0.132784  0.060316 -0.000015  0.004758
  5O   1pz       -0.011439  0.200977  0.055574 -0.033845  0.468841  0.039940
  5O   1px        0.271125 -0.005214  0.013722  0.133551 -0.011945  0.558521
  5O   1py        0.130122  0.028478 -0.390116  0.264268  0.066225 -0.182062
  5O   3s         0.191580  0.000078 -0.270251  0.115038  0.000043 -0.029905
  5O   2pz       -0.005724  0.115846  0.029022 -0.019718  0.300918  0.027692
  5O   2px        0.148966 -0.003004  0.015647  0.075219 -0.007615  0.402178
  5O   2py        0.067621  0.016384 -0.202166  0.153699  0.042466 -0.123526
  5O   1dz2       0.006617  0.003112 -0.008288  0.005538  0.006196  0.000821
  5O   1dxz       0.002221 -0.006088 -0.000027  0.001300 -0.009122  0.001748
  5O   1dyz       0.000631 -0.013554 -0.004398  0.002003 -0.026444 -0.001833
  5O   1dx2y2    -0.003653  0.002104 -0.016093  0.006178  0.004029 -0.011445
  5O   1dxy      -0.018481 -0.000496 -0.000036 -0.009870 -0.000594 -0.014681
  6H   1s         0.122047 -0.000048  0.028180  0.120008  0.000022 -0.166070
  6H   2s         0.107954  0.000038  0.010687  0.115549  0.000094 -0.260847
                     12        13        14        15        16        17   
                  -0.02617   0.11082   0.11917   0.17059   0.17821   0.25639
                   0.00000   0.00000   0.00000   0.00000   0.00000   0.00000
                  --------  --------  --------  --------  --------  --------
  0C   1s        -0.000000  0.130258 -0.065914 -0.000147 -0.040754  0.055249
  0C   2s         0.000115 -0.146716  0.084039 -0.000173  0.044205 -0.003265
  0C   1pz       -0.001346 -0.008897 -0.036224  0.433189  0.044153 -0.008375
  0C   1px        0.000007  0.200489  0.010622 -0.010864  0.135197 -0.123989
  0C   1py       -0.000237  0.100245  0.258471  0.060704 -0.295874  0.037206
  0C   3s        -0.000229 -2.165366  0.985156  0.003009  0.610103 -1.528569
  0C   2pz       -0.160478 -0.007434 -0.099331  1.368679  0.168545 -0.024322
  0C   2px        0.003815  0.541377  0.089387 -0.033661  0.628733 -1.441599
  0C   2py       -0.022504  0.152839  0.714042  0.191603 -1.094194 -0.088967
  0C   1dz2      -0.002774  0.003408 -0.008329  0.003373  0.014799 -0.011813
  0C   1dxz      -0.031948 -0.000330 -0.001341  0.000561 -0.000032  0.002718
  0C   1dyz       0.005375 -0.000494 -0.003895 -0.013344  0.002957  0.001573
  0C   1dx2y2     0.000016 -0.009194 -0.014376  0.001897 -0.004312  0.033131
  0C   1dxy      -0.004664 -0.000448  0.009590  0.000433 -0.005369 -0.009618
  1C   1s        -0.000019  0.023695  0.081841  0.000195  0.092325 -0.013578
  1C   2s        -0.000181 -0.096908 -0.093126 -0.000422 -0.158658  0.059392
  1C   1pz       -0.493238 -0.013858 -0.031477 -0.129924 -0.024082 -0.001796
  1C   1px        0.012502 -0.057839 -0.092994  0.003203 -0.053099 -0.392715
  1C   1py       -0.069603  0.086321  0.205982 -0.017922  0.161167 -0.059386
  1C   3s         0.000976 -0.193742 -1.386319 -0.003169 -1.472744  0.062754
  1C   2pz       -0.520654 -0.038299 -0.063019 -0.419646 -0.098025  0.111077
  1C   2px        0.013429 -0.238282 -0.096971  0.010857 -0.150061 -1.854713
  1C   2py       -0.073734  0.227869  0.430645 -0.058378  0.672399 -1.119093
  1C   1dz2      -0.007156  0.004829 -0.008898 -0.000369 -0.003044 -0.002990
  1C   1dxz       0.006301 -0.000716  0.002693 -0.014576 -0.002932 -0.001097
  1C   1dyz       0.029743  0.000997 -0.000660 -0.001159 -0.001616 -0.002367
  1C   1dx2y2    -0.004440 -0.002039  0.013303  0.000501 -0.009750 -0.012359
  1C   1dxy       0.000116  0.003144 -0.013901 -0.002011  0.020240  0.006393
  2H   1s         0.099352  0.035269 -0.048585 -0.072651  0.053037 -0.006466
  2H   2s         0.337754  0.991861 -0.808094 -1.471511  0.605574 -0.107405
  3H   1s         0.000046  0.047472  0.079073 -0.000170 -0.077997 -0.132412
  3H   2s         0.000088  1.223884  0.686121 -0.003035 -1.504596  0.002228
  4H   1s        -0.099348  0.035282 -0.048785  0.072669  0.053009 -0.006567
  4H   2s        -0.337994  0.992718 -0.809116  1.472367  0.600431 -0.107441
  5O   1s         0.000009  0.008459  0.001227 -0.000033 -0.013591 -0.066357
  5O   2s         0.000007 -0.023440 -0.009218  0.000119  0.054642  0.099377
  5O   1pz        0.410730  0.006943  0.005683  0.129349  0.011498  0.021808
  5O   1px       -0.010456  0.078200  0.052593 -0.003459 -0.052907  0.080310
  5O   1py        0.058021 -0.034645 -0.030646  0.018116 -0.092115 -0.139952
  5O   3s        -0.000228 -0.090939  0.026832  0.000157 -0.024797  1.287168
  5O   2pz        0.429802  0.003763  0.012954  0.153611  0.013869  0.088930
  5O   2px       -0.010953  0.112953  0.085530 -0.003972  0.008575  0.117954
  5O   2py        0.060868 -0.005805 -0.077019  0.021473 -0.098601 -0.608432
  5O   1dz2      -0.000200  0.002391 -0.007308 -0.000245  0.000581 -0.011430
  5O   1dxz      -0.001265  0.000669  0.000330  0.001534  0.000229 -0.002980
  5O   1dyz       0.000611  0.000968 -0.001164  0.001245  0.000286 -0.005236
  5O   1dx2y2    -0.000047  0.003419  0.004416 -0.000209  0.001233 -0.020515
  5O   1dxy      -0.000192 -0.004851  0.000816  0.000191 -0.001614  0.020987
  6H   1s        -0.000075 -0.026382  0.089913  0.000025  0.029719 -0.000582
  6H   2s        -0.000447  0.486491  1.324829  0.002450  1.395060  0.662264
                     18        19        20        21        22        23   
                   0.27948   0.53067   0.53362   0.58600   0.61366   0.66498
                   0.00000   0.00000   0.00000   0.00000   0.00000   0.00000
                  --------  --------  --------  --------  --------  --------
  0C   1s        -0.052360  0.000225  0.015795  0.018493  0.000031  0.013604
  0C   2s         0.023656 -0.003884 -0.213505 -0.149130 -0.001783 -0.153696
  0C   1pz       -0.008049 -0.311159 -0.047264  0.090064 -0.724063  0.011909
  0C   1px        0.131819 -0.006627 -0.880094 -0.402452  0.018107 -0.186372
  0C   1py        0.079951 -0.039450  0.201993 -0.682882 -0.106204 -0.117287
  0C   3s         0.905989 -0.000815 -0.075617 -0.141916  0.003457  1.182502
  0C   2pz       -0.103120  0.552183  0.099980 -0.208135  1.857436 -0.051789
  0C   2px        1.111177  0.002463  1.009421  0.350144 -0.047414  0.830092
  0C   2py        0.930519  0.065289 -0.564804  1.466645  0.273000  0.514306
  0C   1dz2       0.016129  0.014828  0.056679 -0.076563  0.024147 -0.040413
  0C   1dxz       0.004122  0.015598  0.000262 -0.001267  0.052806  0.009161
  0C   1dyz      -0.000012 -0.052420  0.014898 -0.027488 -0.090093 -0.000588
  0C   1dx2y2    -0.021016  0.007259  0.003388 -0.064919  0.011207  0.073455
  0C   1dxy      -0.038155  0.003341 -0.020724  0.019956  0.010019 -0.038727
  1C   1s         0.083259 -0.000846 -0.049419 -0.019138  0.000025  0.044516
  1C   2s        -0.055767 -0.002971 -0.258048  0.083349 -0.000376 -0.257192
  1C   1pz        0.033989 -0.919702 -0.003652  0.009482  0.441204  0.079681
  1C   1px        0.345468  0.024933  0.034200 -0.030694 -0.012164 -0.714726
  1C   1py       -0.179853 -0.127858  0.148575 -0.092878  0.062194 -0.698435
  1C   3s        -2.221293  0.004486  0.378556 -0.729666 -0.003300 -0.694417
  1C   2pz        0.264480  0.914722 -0.049939  0.069731 -1.103891  0.008930
  1C   2px        0.686018 -0.030177 -0.257992 -0.373520  0.029726  1.793860
  1C   2py       -1.747382  0.135711  0.181376 -0.515223 -0.162106  0.267456
  1C   1dz2      -0.011109  0.007075  0.100184  0.026520 -0.003623 -0.035526
  1C   1dxz       0.000912  0.003350 -0.005942  0.004004 -0.030992 -0.012313
  1C   1dyz      -0.003170 -0.020796  0.014098  0.000959  0.008572 -0.022204
  1C   1dx2y2    -0.002111  0.001735 -0.077710 -0.031249 -0.000501 -0.107107
  1C   1dxy      -0.003330  0.000875 -0.004246 -0.041401 -0.004901  0.079661
  2H   1s         0.093069 -0.219161  0.171067 -0.138839 -0.344959  0.055755
  2H   2s        -0.083602 -0.148865  0.082009 -0.060696 -0.394495 -0.066328
  3H   1s         0.003303 -0.002614 -0.140219  0.447639  0.002832 -0.030756
  3H   2s         0.524693 -0.003458 -0.119603  0.329731  0.001889  0.441696
  4H   1s         0.093124  0.224580  0.165093 -0.142318  0.341906  0.056100
  4H   2s        -0.083753  0.151965  0.078559 -0.064778  0.392088 -0.066728
  5O   1s        -0.079704  0.000423  0.023102 -0.002182 -0.000082 -0.035072
  5O   2s         0.099553 -0.001313 -0.074595 -0.094689 -0.000339  0.134921
  5O   1pz        0.016241 -0.038287 -0.002644  0.014219  0.105064  0.032175
  5O   1px       -0.102612  0.001647  0.032205  0.304372 -0.001093 -0.228090
  5O   1py       -0.133173 -0.004763  0.030172 -0.050036  0.014499 -0.268971
  5O   3s         1.690864 -0.005132 -0.252082  0.614211  0.004576 -0.131389
  5O   2pz        0.078967 -0.084932 -0.015003  0.030693  0.126610  0.023420
  5O   2px       -0.478773  0.005674  0.179968 -0.075790 -0.004716 -0.240088
  5O   2py       -0.645605 -0.009338  0.151094 -0.236053  0.016248 -0.210287
  5O   1dz2      -0.023907 -0.013498  0.018907 -0.016949  0.003437  0.057234
  5O   1dxz      -0.001289  0.016722 -0.002612 -0.001727 -0.034760  0.007524
  5O   1dyz      -0.009279  0.058267  0.002751 -0.000626 -0.020648  0.028877
  5O   1dx2y2    -0.025318 -0.009032 -0.007676  0.019807  0.004039  0.110455
  5O   1dxy       0.012217  0.000933  0.008728  0.022484 -0.004202 -0.051636
  6H   1s         0.062960 -0.004380 -0.296838  0.171239  0.001355 -0.166083
  6H   2s        -0.953421  0.005796  0.199742 -0.002257 -0.003397 -0.441794
                     24        25        26        27        28        29   
                   0.72696   0.77367   0.84631   0.85857   0.87575   0.92403
                   0.00000   0.00000   0.00000   0.00000   0.00000   0.00000
                  --------  --------  --------  --------  --------  --------
  0C   1s         0.030860 -0.034673 -0.000051 -0.031749  0.013425  0.055401
  0C   2s        -0.171523 -0.021320 -0.001279 -0.004555 -0.147503 -1.088527
  0C   1pz        0.030582  0.084908 -0.796907 -0.062726 -0.031813 -0.016374
  0C   1px       -0.045584  0.234421  0.020273 -0.097813  0.038952  0.400826
  0C   1py       -0.222928 -0.558470 -0.111988  0.436798  0.235818  0.190232
  0C   3s         1.373418  0.070185  0.003776  0.221183  0.420702  1.548550
  0C   2pz       -0.124451 -0.246084  1.201144  0.028345  0.053503 -0.006535
  0C   2px        1.029849 -0.843045 -0.030138  0.002005  0.075902 -1.060186
  0C   2py        1.061596  1.587430  0.169689 -0.220869 -0.370180 -0.148900
  0C   1dz2      -0.037858 -0.009470 -0.035797 -0.101184 -0.069490  0.002733
  0C   1dxz       0.000909  0.016384 -0.164425 -0.003868  0.000784  0.005450
  0C   1dyz      -0.001991 -0.002499  0.112833 -0.037097 -0.021282 -0.018076
  0C   1dx2y2     0.049335  0.019126 -0.012273 -0.090228 -0.028789 -0.119501
  0C   1dxy       0.014547 -0.109237 -0.026191  0.044569  0.012336 -0.060394
  1C   1s        -0.031280 -0.019063 -0.000008  0.014147 -0.051443 -0.005929
  1C   2s         0.684063 -0.681665 -0.000833 -1.143726  0.491100 -0.416440
  1C   1pz       -0.101699 -0.035293 -0.044229 -0.051822  0.071870 -0.010265
  1C   1px       -0.616728  0.186467  0.000793 -0.272183  0.214405  0.076971
  1C   1py        0.603400  0.276697 -0.006153  0.313112 -0.467819  0.085027
  1C   3s        -1.617309  1.561441 -0.000796  1.565329 -2.016982  1.496420
  1C   2pz        0.282617  0.204346  0.059330  0.218590 -0.050012  0.014197
  1C   2px        2.274649  0.249315  0.000316  0.871490 -0.473645 -0.486628
  1C   2py       -1.582585 -1.393073  0.006585 -1.382625  0.266259 -0.187204
  1C   1dz2       0.040278  0.073903  0.004503  0.020614  0.118427  0.022713
  1C   1dxz       0.010023 -0.021098  0.111205  0.011740 -0.004190 -0.008925
  1C   1dyz       0.015821  0.024722  0.002490  0.006851  0.046026 -0.007230
  1C   1dx2y2     0.053753  0.020389 -0.003062  0.028127  0.111750 -0.096336
  1C   1dxy      -0.074161  0.129376  0.015525 -0.084903  0.011009  0.038782
  2H   1s         0.217789 -0.135632  0.708357 -0.493724 -0.052153  0.389582
  2H   2s        -0.057868 -0.613648 -1.384002  0.482156  0.152491 -0.865152
  3H   1s         0.148803 -0.367659  0.000641  0.357156  0.398451  0.736442
  3H   2s         0.465403  0.996348 -0.001601 -0.765831 -0.701187 -1.171568
  4H   1s         0.218125 -0.135537 -0.709710 -0.492498 -0.051151  0.389663
  4H   2s        -0.058719 -0.613872  1.384190  0.478308  0.150531 -0.865676
  5O   1s         0.002159  0.016926 -0.000064 -0.032460 -0.040465  0.016615
  5O   2s        -0.054557 -0.162005  0.000181  0.113785  0.166148 -0.089799
  5O   1pz       -0.050846 -0.008262  0.082844 -0.021723 -0.070551  0.030432
  5O   1px       -0.081297 -0.071292 -0.002204  0.028046  0.048071 -0.111776
  5O   1py        0.345328  0.042469  0.012299  0.153291  0.510408 -0.240394
  5O   3s         0.742151  0.367355  0.001071  0.357768  0.523093 -0.155848
  5O   2pz        0.013022 -0.019579 -0.130090  0.046893  0.135302 -0.052822
  5O   2px       -0.295918 -0.090849  0.002779 -0.334274 -0.256529  0.260504
  5O   2py       -0.147027  0.124335 -0.019639 -0.387118 -1.006270  0.426500
  5O   1dz2      -0.078112  0.002317  0.003548  0.009096 -0.028042  0.031137
  5O   1dxz      -0.011501  0.003482  0.016121 -0.002985  0.002256 -0.000497
  5O   1dyz      -0.021262 -0.002148 -0.011471  0.006213 -0.017646  0.010503
  5O   1dx2y2    -0.030988 -0.014304  0.001263  0.022858 -0.070146  0.019210
  5O   1dxy       0.100799 -0.027540  0.002619  0.022551 -0.019617 -0.002849
  6H   1s         0.014507 -0.719217 -0.000253  0.170956 -0.706709 -0.142908
  6H   2s        -1.333746 -0.476078 -0.001378 -1.631993  1.421890 -0.043128
                     30        31        32        33        34        35   
                   0.94436   0.99607   1.08942   1.23032   1.39865   1.51438
                   0.00000   0.00000   0.00000   0.00000   0.00000   0.00000
                  --------  --------  --------  --------  --------  --------
  0C   1s        -0.011566  0.000020 -0.002392  0.107851  0.000009  0.000006
  0C   2s         0.575271  0.001246 -0.225563  2.091218  0.000141  0.000249
  0C   1pz       -0.046165 -0.133585 -0.028109  0.007817  0.130159  0.017662
  0C   1px       -0.203867  0.003107  0.017175  0.082698 -0.003289 -0.000400
  0C   1py        0.289442 -0.018965  0.202235 -0.044998  0.018345  0.002467
  0C   3s        -0.860735 -0.002569  1.733861 -6.185777 -0.000513 -0.000641
  0C   2pz        0.019025  0.542877  0.042207 -0.020481  0.064967  0.125366
  0C   2px        0.528791 -0.012961  0.670563 -1.209316 -0.001844 -0.003377
  0C   2py       -0.038625  0.076425 -0.178305 -0.063578  0.009218  0.017805
  0C   1dz2      -0.156617 -0.004076 -0.032944  0.041015  0.085654 -0.022513
  0C   1dxz       0.012120 -0.027648  0.002296  0.001075 -0.431775 -0.080943
  0C   1dyz      -0.041443  0.011361  0.000127  0.003161 -0.420815  0.075493
  0C   1dx2y2    -0.009047 -0.000852  0.056889 -0.042928  0.071390 -0.008874
  0C   1dxy      -0.037512 -0.004154  0.003907 -0.027821 -0.049917 -0.013516
  1C   1s         0.018041 -0.000011  0.009567 -0.037231 -0.000005 -0.000000
  1C   2s         0.804097  0.001387  0.211100 -0.656153  0.000003 -0.000125
  1C   1pz       -0.004793  0.101243 -0.019277 -0.010090  0.040068 -0.188148
  1C   1px        0.035736 -0.002516 -0.265098 -0.057090 -0.000973  0.004779
  1C   1py        0.040499  0.013822  0.088199  0.059977  0.005643 -0.026516
  1C   3s        -0.767462 -0.002679 -0.760817  3.603982  0.000149  0.000742
  1C   2pz        0.025805 -0.655934  0.117328 -0.029832 -0.030023  0.107822
  1C   2px        0.328090  0.015946  2.042360 -1.593242  0.000431 -0.002804
  1C   2py       -0.122882 -0.091310 -0.461749 -0.075573 -0.004241  0.015316
  1C   1dz2      -0.063772  0.002620 -0.009218  0.094965  0.039439 -0.166783
  1C   1dxz      -0.014204 -0.036982 -0.014602 -0.016539  0.602660 -0.034786
  1C   1dyz      -0.020557 -0.017469  0.013834  0.027680 -0.049326  0.661856
  1C   1dx2y2    -0.052745  0.003526  0.089562  0.012229 -0.007939 -0.094533
  1C   1dxy       0.111436 -0.004769  0.122345  0.088577  0.086539 -0.022405
  2H   1s        -0.368333  0.043383  0.009013  0.467017 -0.149463 -0.074685
  2H   2s         0.753833 -0.330503  0.033913  0.568868  0.092503 -0.076340
  3H   1s         0.371779 -0.000168 -0.008126  0.486858  0.000024  0.000039
  3H   2s        -0.196518  0.000826 -0.298130  0.779065  0.000086  0.000169
  4H   1s        -0.368379 -0.043251  0.008790  0.466661  0.149573  0.074736
  4H   2s         0.753955  0.332136  0.034250  0.570551 -0.092530  0.076370
  5O   1s         0.031641 -0.000009 -0.000979 -0.007540  0.000000 -0.000004
  5O   2s        -0.177045  0.000095  0.019696  0.218675 -0.000028  0.000193
  5O   1pz        0.048740 -0.929564  0.059317  0.003626 -0.056381 -0.115328
  5O   1px       -0.299760  0.023502  0.773748  0.055540  0.001435  0.002950
  5O   1py       -0.396970 -0.131134 -0.281773 -0.013981 -0.007954 -0.016308
  5O   3s         0.088273 -0.000024  0.012976 -0.687174  0.000068 -0.000478
  5O   2pz       -0.105022  1.272520 -0.111431 -0.019228  0.004196 -0.120627
  5O   2px        0.312720 -0.032082 -1.473877  0.161760 -0.000049  0.003118
  5O   2py        0.797135  0.179399  0.524635  0.163502  0.000553 -0.016868
  5O   1dz2      -0.025505 -0.009276 -0.020987  0.168762  0.050251  0.087348
  5O   1dxz       0.002629  0.000903  0.011880 -0.008862  0.172327 -0.313118
  5O   1dyz      -0.011499  0.037121 -0.018945  0.032871 -0.170079 -0.405704
  5O   1dx2y2    -0.032517 -0.005420 -0.078402 -0.064464  0.020198  0.066214
  5O   1dxy      -0.016352 -0.000862 -0.091005 -0.002571  0.028910 -0.033492
  6H   1s        -0.392561 -0.000114 -0.171732 -0.029985 -0.000021  0.000055
  6H   2s         0.350963  0.001731 -0.715260 -0.008134  0.000143 -0.000106
                     36        37        38        39        40        41   
                   1.58643   1.71879   1.80852   1.82476   1.85861   2.04594
                   0.00000   0.00000   0.00000   0.00000   0.00000   0.00000
                  --------  --------  --------  --------  --------  --------
  0C   1s        -0.022096 -0.038289 -0.000010 -0.020759 -0.041977  0.008894
  0C   2s        -0.260197 -0.281687  0.000562  0.444692 -0.312468 -0.167199
  0C   1pz        0.012643 -0.012521 -0.058979 -0.005204  0.010976  0.011411
  0C   1px        0.003545  0.067813  0.001761  0.296658  0.100181 -0.067586
  0C   1py       -0.088640  0.101065 -0.008285  0.090638 -0.059310 -0.092375
  0C   3s         0.817934  1.422316 -0.000293  0.194457  1.796231  0.125663
  0C   2pz       -0.017286  0.056558  0.311109  0.019803 -0.095443  0.030938
  0C   2px        0.115035  0.437741 -0.007893  0.054243  0.464589  0.234650
  0C   2py        0.142275 -0.321780  0.043954 -0.132229  0.758628 -0.175251
  0C   1dz2       0.187123 -0.177733 -0.058448  0.066752  0.308746 -0.552195
  0C   1dxz      -0.027494  0.099168  0.366006 -0.002138 -0.091431 -0.008075
  0C   1dyz       0.045466 -0.061853  0.300244 -0.031644  0.062538 -0.114973
  0C   1dx2y2    -0.032581 -0.002554 -0.052674 -0.321781 -0.195519  0.109798
  0C   1dxy       0.129186 -0.644914  0.043908 -0.065108  0.512821  0.251817
  1C   1s         0.016002  0.016523 -0.000012 -0.011749  0.031504 -0.011986
  1C   2s         0.099069  0.413420  0.000274  0.279181  0.404602 -0.332170
  1C   1pz       -0.007826 -0.008825 -0.051545  0.018132  0.011180  0.007913
  1C   1px        0.050600 -0.027312  0.001320 -0.012680 -0.223316  0.287101
  1C   1py        0.064234  0.058501 -0.007458 -0.130701 -0.119105 -0.004535
  1C   3s         1.603504 -1.202333 -0.000477 -0.424559 -2.336221  0.781588
  1C   2pz       -0.181264 -0.126074 -0.197197  0.089597  0.216394 -0.024587
  1C   2px        0.698966  0.433505  0.005843  1.060517  1.000011  0.192645
  1C   2py        1.409984  0.969461 -0.028473 -0.441411 -1.351621  0.208435
  1C   1dz2       0.057587  0.207057 -0.018192 -0.002858  0.340282 -0.571383
  1C   1dxz      -0.024353 -0.048332  0.099915  0.049799  0.009948  0.053316
  1C   1dyz      -0.015176  0.022002  0.090629 -0.061972  0.085941 -0.140402
  1C   1dx2y2    -0.225698 -0.248688 -0.015819 -0.348574  0.038391  0.050772
  1C   1dxy       0.114335  0.231810  0.011308 -0.413156 -0.172111 -0.183894
  2H   1s        -0.118244 -0.158764 -0.037164 -0.050675 -0.199107  0.283190
  2H   2s        -0.184174 -0.015406 -0.098316  0.163171 -0.135370 -0.068414
  3H   1s        -0.065410 -0.136092 -0.000161 -0.206498 -0.117274 -0.209184
  3H   2s         0.164179 -0.198591  0.000130 -0.007582  0.132165 -0.006729
  4H   1s        -0.118238 -0.158755  0.037164 -0.050753 -0.199037  0.283665
  4H   2s        -0.184319 -0.015498  0.098709  0.163077 -0.135541 -0.068417
  5O   1s        -0.038455  0.013834 -0.000001  0.004423 -0.011889  0.002602
  5O   2s         1.605977  0.011435 -0.000195 -0.187149 -0.433824  0.196817
  5O   1pz        0.020687 -0.021618 -0.045975  0.014780  0.022732 -0.002159
  5O   1px       -0.038821  0.093160  0.001412  0.282124 -0.053043  0.055718
  5O   1py       -0.153541  0.169599 -0.006578 -0.053611 -0.170566  0.025354
  5O   3s        -3.546118 -0.530680  0.000625  0.412251  1.915490 -0.717577
  5O   2pz       -0.160330 -0.003922  0.081048 -0.017011  0.051768 -0.036083
  5O   2px        0.399193 -0.035893 -0.002579 -0.564093 -0.371647 -0.014111
  5O   2py        1.207115  0.021997  0.011399  0.018359 -0.433340  0.252938
  5O   1dz2      -0.069831  0.431244  0.130475 -0.130502  0.543100  0.392610
  5O   1dxz      -0.021948 -0.057454  0.762621 -0.037562 -0.041484 -0.070771
  5O   1dyz      -0.031310  0.091190 -0.384939  0.035553  0.095915  0.088436
  5O   1dx2y2    -0.125292 -0.159768  0.036710  0.401845 -0.289225 -0.131953
  5O   1dxy       0.155420  0.241742  0.118467  0.373004  0.068854  0.350145
  6H   1s        -0.061913  0.425952 -0.000595 -0.579700 -0.096762 -0.422132
  6H   2s         0.072767  0.327388 -0.000191 -0.253308 -0.426550 -0.036693
                     42        43        44        45        46        47   
                   2.12475   2.20683   2.23891   2.31719   2.56304   2.58956
                   0.00000   0.00000   0.00000   0.00000   0.00000   0.00000
                  --------  --------  --------  --------  --------  --------
  0C   1s        -0.000013  0.013999  0.000000  0.026134  0.049543 -0.000043
  0C   2s        -0.000402  0.132674 -0.000122  0.230954  0.026822 -0.000029
  0C   1pz       -0.075977  0.013838 -0.068512 -0.005187  0.007622  0.000430
  0C   1px        0.001900 -0.040983  0.001673 -0.066503 -0.321895  0.000258
  0C   1py       -0.010713 -0.105347 -0.009646  0.024755 -0.111980  0.000158
  0C   3s         0.001068 -0.804811  0.000175 -1.112380 -1.459966  0.001310
  0C   2pz       -0.705634  0.085276 -0.068547 -0.034642 -0.000285  0.136731
  0C   2px        0.018289 -0.408657  0.001683 -0.622670 -0.881376 -0.002703
  0C   2py       -0.099792 -0.678249 -0.009661  0.134159 -0.155885  0.019399
  0C   1dz2       0.206427 -0.427791  0.114104  0.521196  0.473836 -0.059263
  0C   1dxz       0.062680 -0.009218  0.850381 -0.025432  0.056909 -0.323350
  0C   1dyz      -0.815928 -0.228404 -0.302274  0.113203  0.045897  0.177300
  0C   1dx2y2     0.116092 -0.852465  0.022274 -0.117606 -0.389517 -0.017177
  0C   1dxy       0.030650  0.051434  0.128230 -0.009452 -0.624500 -0.049946
  1C   1s        -0.000005 -0.025278 -0.000022 -0.072270 -0.042684  0.000039
  1C   2s        -0.000253  0.009263  0.000067 -0.241964  0.011992  0.000059
  1C   1pz       -0.045115  0.000761 -0.140319 -0.012038  0.003727 -0.209920
  1C   1px        0.001307 -0.271098  0.003500 -0.162808 -0.264862  0.005537
  1C   1py       -0.006335 -0.054182 -0.019815  0.055851 -0.075518 -0.029665
  1C   3s         0.000218  0.805020 -0.000117  1.260835  1.674558 -0.001691
  1C   2pz        0.329528 -0.114971 -0.184277 -0.021496 -0.043369 -0.288154
  1C   2px       -0.007808 -0.690297  0.004605 -0.489988 -1.052511  0.008214
  1C   2py        0.046451  0.689546 -0.026013  0.064494  0.116060 -0.040677
  1C   1dz2      -0.051776 -0.023781  0.087236 -0.709150 -0.420581  0.193491
  1C   1dxz      -0.618102 -0.001269  0.438524 -0.023824  0.102478 -0.403471
  1C   1dyz       0.094299 -0.022724 -0.271353 -0.240597 -0.010476 -0.845547
  1C   1dx2y2     0.001824 -0.115831  0.028016 -0.497217  0.746536  0.131297
  1C   1dxy      -0.090042 -0.004150  0.069304  0.305396 -0.461501 -0.034248
  2H   1s         0.485154  0.254327  0.427953 -0.135517 -0.135609 -0.176513
  2H   2s         0.090937 -0.004876 -0.134688  0.019300  0.018511  0.036391
  3H   1s        -0.000072 -0.690858  0.000104  0.256724  0.108854 -0.000125
  3H   2s        -0.000254  0.046100 -0.000112  0.061908 -0.038845  0.000040
  4H   1s        -0.485035  0.254151 -0.428206 -0.135084 -0.135226  0.176726
  4H   2s        -0.091114 -0.004905  0.134686  0.019283  0.018449 -0.036412
  5O   1s         0.000003  0.002759  0.000012  0.035182 -0.015479  0.000009
  5O   2s         0.000064  0.091859 -0.000213 -0.478414  0.464633 -0.000371
  5O   1pz        0.019901 -0.007717 -0.058041 -0.063835  0.034649  0.005021
  5O   1px       -0.000444 -0.049006  0.001523  0.138148 -0.123666 -0.000039
  5O   1py        0.002840  0.045810 -0.008034  0.477073 -0.267412  0.000910
  5O   3s        -0.000291 -0.549040  0.000169 -0.052244 -0.616608  0.000559
  5O   2pz       -0.065294  0.004600  0.214087  0.035664 -0.028532  0.440877
  5O   2px        0.001520  0.324315 -0.005443  0.114409  0.338277 -0.011525
  5O   2py       -0.009079  0.025887  0.030103 -0.232541  0.265161  0.062001
  5O   1dz2       0.051999 -0.139126  0.047249  0.031297  0.167756  0.209193
  5O   1dxz       0.271216  0.055384 -0.413046  0.008339  0.001422 -0.275170
  5O   1dyz      -0.158401 -0.089157 -0.263280 -0.036812  0.018524 -0.887774
  5O   1dx2y2     0.016007 -0.303814  0.048115 -0.288365 -0.140456  0.134849
  5O   1dxy       0.042814 -0.400652 -0.051479 -0.119067 -0.089573 -0.015283
  6H   1s        -0.000296  0.155923 -0.000032 -0.111924 -0.331633  0.000335
  6H   2s        -0.000268  0.308037  0.000091  0.022133  0.322602 -0.000165
                     48        49   
                   2.84271   2.93886
                   0.00000   0.00000
                  --------  --------
  0C   1s         0.032723 -0.004820
  0C   2s        -0.062961  0.074089
  0C   1pz       -0.009234 -0.001891
  0C   1px       -0.261266  0.076066
  0C   1py        0.018242  0.027067
  0C   3s        -0.324448  0.037271
  0C   2pz        0.000094 -0.000583
  0C   2px       -0.262675  0.078138
  0C   2py       -0.047961  0.018352
  0C   1dz2       0.173856 -0.026036
  0C   1dxz      -0.040802  0.014524
  0C   1dyz      -0.034980  0.014887
  0C   1dx2y2    -0.568761  0.160678
  0C   1dxy       0.132734 -0.065932
  1C   1s        -0.035469 -0.026558
  1C   2s        -0.244040 -1.291722
  1C   1pz        0.035285  0.157946
  1C   1px       -0.181852 -0.415676
  1C   1py       -0.282589 -1.192951
  1C   3s         0.250489 -1.640469
  1C   2pz        0.074544  0.110003
  1C   2px        0.057363 -0.237406
  1C   2py       -0.517150 -0.821708
  1C   1dz2      -0.080856  0.414074
  1C   1dxz      -0.099148  0.068137
  1C   1dyz       0.107955  0.139766
  1C   1dx2y2     0.731953  0.353435
  1C   1dxy       0.855949 -0.551079
  2H   1s         0.009016  0.001939
  2H   2s         0.009482  0.059946
  3H   1s        -0.167120  0.064907
  3H   2s         0.027239 -0.091676
  4H   1s         0.009003  0.001919
  4H   2s         0.009519  0.059983
  5O   1s        -0.008121 -0.060676
  5O   2s        -0.264138 -0.700872
  5O   1pz       -0.003697  0.035250
  5O   1px       -0.035912 -0.079363
  5O   1py        0.019750 -0.263835
  5O   3s         0.785153  3.043942
  5O   2pz        0.022757  0.224130
  5O   2px       -0.505545 -0.552492
  5O   2py       -0.252481 -1.686378
  5O   1dz2      -0.147390 -0.685140
  5O   1dxz      -0.095908 -0.089039
  5O   1dyz       0.030435 -0.300925
  5O   1dx2y2     0.322767 -1.023866
  5O   1dxy       0.781952  0.666850
  6H   1s         0.298242 -0.016820
  6H   2s        -0.415752  0.024767



                    ********************************
                    * MULLIKEN POPULATION ANALYSIS *
                    ********************************

-----------------------
MULLIKEN ATOMIC CHARGES
-----------------------
   0 C :   -0.504600
   1 C :    0.226278
   2 H :    0.189057
   3 H :    0.145920
   4 H :    0.188955
   5 O :   -0.363603
   6 H :    0.117992
Sum of atomic charges:   -0.0000000

--------------------------------
MULLIKEN REDUCED ORBITAL CHARGES
--------------------------------
  0 C s       :     3.314600  s :     3.314600
      pz      :     1.099169  p :     3.158435
      px      :     0.989464
      py      :     1.069802
      dz2     :     0.007123  d :     0.031565
      dxz     :     0.005700
      dyz     :     0.004644
      dx2y2   :     0.009987
      dxy     :     0.004111
  1 C s       :     3.158010  s :     3.158010
      pz      :     0.741723  p :     2.531799
      px      :     0.923157
      py      :     0.866919
      dz2     :     0.005193  d :     0.083913
      dxz     :     0.005516
      dyz     :     0.010997
      dx2y2   :     0.026664
      dxy     :     0.035542
  2 H s       :     0.810943  s :     0.810943
  3 H s       :     0.854080  s :     0.854080
  4 H s       :     0.811045  s :     0.811045
  5 O s       :     3.864192  s :     3.864192
      pz      :     1.283501  p :     4.472031
      px      :     1.790324
      py      :     1.398206
      dz2     :     0.002563  d :     0.027380
      dxz     :     0.001332
      dyz     :     0.009461
      dx2y2   :     0.007053
      dxy     :     0.006972
  6 H s       :     0.882008  s :     0.882008

------------------------
MULLIKEN OVERLAP CHARGES
------------------------
B(  0-C ,  1-C ) :   0.6210 B(  0-C ,  2-H ) :   0.7243 B(  0-C ,  3-H ) :   0.6433 
B(  0-C ,  4-H ) :   0.7244 B(  0-C ,  5-O ) :  -0.1685 B(  0-C ,  6-H ) :  -0.2289 
B(  1-C ,  5-O ) :   1.1872 B(  1-C ,  6-H ) :   0.7076 B(  5-O ,  6-H ) :  -0.1131 



                     *******************************
                     * LOEWDIN POPULATION ANALYSIS *
                     *******************************

----------------------
LOEWDIN ATOMIC CHARGES
----------------------
   0 C :   -0.398544
   1 C :    0.052975
   2 H :    0.157633
   3 H :    0.130164
   4 H :    0.157632
   5 O :   -0.198811
   6 H :    0.098950

-------------------------------
LOEWDIN REDUCED ORBITAL CHARGES
-------------------------------
  0 C s       :     2.994521  s :     2.994521
      pz      :     1.135945  p :     3.340592
      px      :     1.083890
      py      :     1.120756
      dz2     :     0.014047  d :     0.063431
      dxz     :     0.011736
      dyz     :     0.007777
      dx2y2   :     0.021184
      dxy     :     0.008687
  1 C s       :     2.942790  s :     2.942790
      pz      :     0.745116  p :     2.811460
      px      :     1.044508
      py      :     1.021836
      dz2     :     0.011548  d :     0.192775
      dxz     :     0.011362
      dyz     :     0.020818
      dx2y2   :     0.068090
      dxy     :     0.080957
  2 H s       :     0.842367  s :     0.842367
  3 H s       :     0.869836  s :     0.869836
  4 H s       :     0.842368  s :     0.842368
  5 O s       :     3.572567  s :     3.572567
      pz      :     1.274163  p :     4.570343
      px      :     1.785487
      py      :     1.510693
      dz2     :     0.006531  d :     0.055901
      dxz     :     0.001845
      dyz     :     0.013022
      dx2y2   :     0.017765
      dxy     :     0.016738
  6 H s       :     0.901050  s :     0.901050

---------------------------------
LOEWDIN BOND ORDERS (THRESH 0.05)
---------------------------------
B(  0-C ,  1-C ) :   1.1305 B(  0-C ,  2-H ) :   0.9242 B(  0-C ,  3-H ) :   0.9383 
B(  0-C ,  4-H ) :   0.9242 B(  0-C ,  5-O ) :   0.1121 B(  1-C ,  5-O ) :   2.3310 
B(  1-C ,  6-H ) :   0.8960 B(  5-O ,  6-H ) :   0.0674 

------------------------------------------
LOEWDIN REDUCED ORBITAL POPULATIONS PER MO
-------------------------------------------
THRESHOLD FOR PRINTING IS 0.1%
                      0         1         2         3         4         5   
                 -19.13785 -10.26803 -10.18814  -1.03533  -0.74699  -0.58229
                   2.00000   2.00000   2.00000   2.00000   2.00000   2.00000
                  --------  --------  --------  --------  --------  --------
 0 C  s               0.0       0.0      99.6       1.1      41.3       5.4
 0 C  px              0.0       0.1       0.0       1.5       0.8      10.8
 0 C  py              0.0       0.0       0.0       0.3       0.0       0.4
 0 C  dz2             0.0       0.0       0.0       0.0       0.0       0.1
 0 C  dx2y2           0.0       0.0       0.0       0.0       0.0       0.2
 1 C  s               0.0      99.1       0.0      19.3       9.0      17.3
 1 C  pz              0.0       0.0       0.0       0.2       0.1       0.4
 1 C  px              0.0       0.0       0.2       1.3      10.5       5.8
 1 C  py              0.1       0.0       0.0      12.0       5.6      14.8
 1 C  dz2             0.0       0.0       0.0       0.5       0.0       0.0
 1 C  dx2y2           0.0       0.0       0.0       0.7       0.5       0.0
 1 C  dxy             0.0       0.0       0.0       0.5       0.0       0.2
 2 H  s               0.0       0.0       0.1       0.2       8.1       4.1
 3 H  s               0.0       0.0       0.1       0.1       8.7       1.4
 4 H  s               0.0       0.0       0.1       0.2       8.1       4.1
 5 O  s              99.8       0.1       0.0      54.4       4.0       5.6
 5 O  pz              0.0       0.0       0.0       0.1       0.0       0.2
 5 O  px              0.0       0.0       0.0       0.7       0.5       0.2
 5 O  py              0.0       0.3       0.0       5.0       0.6       7.7
 5 O  dx2y2           0.0       0.1       0.0       0.1       0.0       0.2
 6 H  s               0.0       0.1       0.0       1.6       2.1      21.0

                      6         7         8         9        10        11   
                  -0.47177  -0.44222  -0.42732  -0.38977  -0.35241  -0.24937
                   2.00000   2.00000   2.00000   2.00000   2.00000   2.00000
                  --------  --------  --------  --------  --------  --------
 0 C  s               0.7       0.0       0.1       0.0       0.0       1.5
 0 C  pz              0.2      43.2       0.2       0.7      12.4       0.0
 0 C  px             11.2       0.0      21.1       0.5       0.0       8.2
 0 C  py             15.3       0.9       4.7      33.9       0.2       0.4
 0 C  dz2             0.0       0.0       0.3       0.3       0.0       0.0
 0 C  dxz             0.0       0.1       0.0       0.0       0.5       0.0
 0 C  dyz             0.0       0.3       0.0       0.0       0.1       0.0
 0 C  dx2y2           0.4       0.0       0.1       0.3       0.0       0.0
 0 C  dxy             0.1       0.0       0.0       0.3       0.0       0.0
 1 C  s               1.5       0.0       0.3       0.6       0.0       0.0
 1 C  pz              0.2      17.0       0.1       0.1      19.2       0.0
 1 C  px             17.4       0.0      14.0       0.6       0.0       2.5
[...]
 5 O  dxz             0.2       0.0       0.0       0.0       0.0       0.0
 5 O  dyz             1.2       0.0       0.0       0.2       0.0       0.0
 5 O  dx2y2           0.0       0.3       0.3       0.0       0.2       0.6
 5 O  dxy             0.0       0.0       0.0       0.0       0.1       1.0
 6 H  s               0.0      12.3      23.4       0.0      13.9       4.2

                     18        19        20        21        22        23   
                   0.27212   0.52588   0.53847   0.57689   0.60685   0.67169
                   0.00000   0.00000   0.00000   0.00000   0.00000   0.00000
                  --------  --------  --------  --------  --------  --------
 0 C  s               0.5       0.0       1.5       1.0       0.0       0.2
 0 C  pz              0.0      19.7       0.2       0.9      54.2       0.0
 0 C  px              6.2       0.0      67.2       7.0       0.0       3.5
 0 C  py              3.0       0.4       4.7      49.5       1.2       2.5
 0 C  dz2             0.3       0.1       2.0       2.4       0.3       0.3
 0 C  dxz             0.1       1.0       0.0       0.0       0.9       0.0
 0 C  dyz             0.0       1.4       0.1       0.4       4.6       0.0
 0 C  dx2y2           0.8       0.0       0.0       3.1       0.1       0.4
 0 C  dxy             4.1       0.0       0.3       0.1       0.0       0.5
 1 C  s              13.1       0.0       2.7       1.9       0.0       1.9
 1 C  pz              0.5      67.2       0.0       0.0      27.3       0.2
 1 C  px             11.1       0.0       2.8       7.6       0.0      41.3
 1 C  py             25.2       1.3       1.6       0.5       0.5      17.5
 1 C  dz2             4.0       0.0       4.3       0.0       0.0       0.9
 1 C  dxz             0.0       0.1       0.0       0.0       1.2       0.0
 1 C  dyz             0.4       0.3       0.1       0.0       0.1       0.1
 1 C  dx2y2           1.9       0.0       2.0       0.8       0.0       1.1
 1 C  dxy             2.1       0.0       0.0       1.3       0.0       1.6
 2 H  s               1.5       3.3       1.3       0.4       3.5       0.8
 3 H  s               2.9       0.0       0.6       8.7       0.0       0.8
 4 H  s               1.5       3.3       1.3       0.4       3.5       0.8
 5 O  s               9.8       0.0       0.5       0.1       0.0       0.9
 5 O  pz              0.0       0.8       0.0       0.0       2.1       0.1
 5 O  px              1.6       0.0       0.6       9.0       0.0       4.6
 5 O  py              1.9       0.0       0.1       0.2       0.0       7.3
 5 O  dz2             0.0       0.0       0.0       0.1       0.0       1.9
 5 O  dxz             0.0       0.1       0.0       0.0       0.2       0.1
 5 O  dyz             0.0       0.8       0.0       0.0       0.0       0.4
 5 O  dx2y2           0.0       0.0       0.0       0.6       0.0       5.3
 5 O  dxy             1.0       0.0       0.4       0.2       0.0       4.1
 6 H  s               6.5       0.0       5.5       3.5       0.0       0.8

                     24        25        26        27        28        29   
                   0.72265   0.79002   0.85407   0.85695   0.87283   0.93890
                   0.00000   0.00000   0.00000   0.00000   0.00000   0.00000
                  --------  --------  --------  --------  --------  --------
 0 C  s               0.4       1.1       0.0       1.2       0.4       9.8
 0 C  pz              0.0       0.6      25.5       0.0       0.1       0.1
 0 C  px              0.7       2.5       0.0       0.1       0.3       3.5
 0 C  py              2.1      25.4       0.5       0.1       7.2       4.1
 0 C  dz2             0.1       0.5       0.3       0.1       3.0       1.8
 0 C  dxz             0.0       0.1       6.6       0.0       0.0       0.0
 0 C  dyz             0.0       0.0       3.1       0.0       0.4       0.4
 0 C  dx2y2           0.0       0.5       0.0       0.0       1.8       3.0
 0 C  dxy             0.4       3.6       0.2       0.1       0.4       0.7
 1 C  s              10.4       8.0       0.0      39.3       3.3       3.5
 1 C  pz              0.8       0.2       0.9       0.3       0.1       0.1
 1 C  px             22.0       2.4       0.0       3.0       0.4       0.0
 1 C  py             27.8       7.8       0.0      10.6       4.5       2.7
 1 C  dz2             0.0       2.9       0.0       0.0       1.2       0.4
 1 C  dxz             0.0       0.1       1.2       0.0       0.0       0.1
 1 C  dyz             0.0       0.3       0.1       0.1       0.2       0.0
 1 C  dx2y2           1.1       0.1       0.0       1.2       0.7       1.7
 1 C  dxy             1.1       3.6       0.0       1.4       0.0       1.4
 2 H  s               3.7       0.7      30.2       2.9       7.4       2.2
 3 H  s               1.1      12.8       0.0       1.2      12.7      35.4
 4 H  s               3.7       0.7      30.2       2.9       7.3       2.2
 5 O  s               0.1       0.7       0.0       0.4       4.9       1.8
 5 O  pz              0.2       0.0       1.1       0.1       0.7       0.2
 5 O  px              3.2       0.2       0.0       0.4       1.8       5.6
 5 O  py              9.8       0.7       0.0       4.0      35.9      15.2
 5 O  dz2             3.0       0.0       0.0       0.3       0.6       0.0
 5 O  dyz             0.4       0.0       0.1       0.1       0.1       0.0
 5 O  dx2y2           2.3       0.4       0.0       0.6       0.2       0.3
 5 O  dxy             2.6       0.4       0.0       0.0       1.3       0.2
 6 H  s               3.1      23.9       0.0      29.5       3.4       3.8

                     30        31        32        33        34        35   
                   0.94445   0.99541   1.08768   1.23517   1.39724   1.51827
                   0.00000   0.00000   0.00000   0.00000   0.00000   0.00000
                  --------  --------  --------  --------  --------  --------
 0 C  s              15.6       0.0       0.4      68.3       0.0       0.0
 0 C  pz              0.1       1.0       0.0       0.0       0.8       0.2
 0 C  px              6.3       0.0       0.1       0.8       0.0       0.0
 0 C  py              1.9       0.0       1.7       0.1       0.0       0.0
 0 C  dz2             4.8       0.0       0.1       0.0       0.9       0.0
 0 C  dxz             0.0       0.3       0.0       0.0      20.3       0.4
 0 C  dyz             0.3       0.0       0.0       0.0      21.4       0.4
 0 C  dx2y2           0.1       0.0       0.4       0.0       0.6       0.0
 0 C  dxy             0.0       0.0       0.2       0.0       0.3       0.0
 1 C  s               6.0       0.0       0.1       6.5       0.0       0.0
 1 C  pz              0.0       2.4       0.1       0.0       0.0       1.4
 1 C  px              1.8       0.0       9.5       0.0       0.0       0.0
 1 C  py              1.0       0.0       1.1       0.1       0.0       0.0
 1 C  dz2             0.8       0.0       0.1       5.6       0.1       3.3
 1 C  dxz             0.0       0.1       0.0       0.0      43.6       0.4
 1 C  dyz             0.0       0.5       0.0       0.3       0.0      51.6
 1 C  dx2y2           0.0       0.0       1.0       0.2       0.0       1.0
 1 C  dxy             1.5       0.0       1.1       0.4       0.9       0.1
 2 H  s              17.1       0.4       0.1       3.8       0.6       0.2
 3 H  s               0.0       0.0       0.4       3.4       0.0       0.0
 4 H  s              17.1       0.4       0.1       3.7       0.6       0.2
 5 O  s               0.6       0.0       0.1       0.6       0.0       0.0
 5 O  pz              0.2      91.4       0.4       0.0       0.2       1.3
 5 O  px              6.4       0.1      64.6       0.5       0.0       0.0
 5 O  py             13.3       1.8       9.8       0.1       0.0       0.0
 5 O  dz2             0.9       0.1       0.1       4.6       0.5       0.9
 5 O  dxz             0.0       0.1       0.1       0.0       3.1      16.6
 5 O  dyz             0.2       1.2       0.2       0.2       5.9      21.1
 5 O  dx2y2           1.7       0.0       4.0       0.2       0.1       0.6
 5 O  dxy             0.1       0.0       4.1       0.3       0.1       0.2
 6 H  s               2.1       0.0       0.3       0.1       0.0       0.0

                     36        37        38        39        40        41   
                   1.58269   1.71041   1.80001   1.80194   1.84603   2.03905
                   0.00000   0.00000   0.00000   0.00000   0.00000   0.00000
                  --------  --------  --------  --------  --------  --------
 0 C  s               1.4       2.8       3.0       0.0       1.4       0.3
 0 C  pz              0.0       0.0       0.0       0.8       0.0       0.0
 0 C  px              0.0       0.4       1.5       0.0       0.8       1.0
 0 C  py              1.4       0.4       0.9       0.0       0.5       0.4
 0 C  dz2             5.1       1.3       0.2       0.4      12.3      17.6
 0 C  dxz             0.2       0.7       0.0      12.7       0.6       0.0
 0 C  dyz             0.3       0.3       0.1       9.2       0.3       0.7
 0 C  dx2y2           0.1       0.7       4.5       0.3      11.1       1.4
 0 C  dxy             7.3      33.2       2.4       0.2      15.8       5.2
 1 C  s               1.3       3.0       0.8       0.0       4.8       2.0
 1 C  pz              0.0       0.1       0.0       0.6       0.1       0.0
 1 C  px              0.4       0.6       3.2       0.0       2.3       1.8
 1 C  py              1.6       3.7       0.5       0.0       4.0       0.2
 1 C  dz2             1.3       4.8       1.0       0.1       5.0      23.4
 1 C  dxz             0.0       0.1       0.2       1.0       0.0       0.3
 1 C  dyz             0.0       0.0       0.6       1.3       0.1       1.3
 1 C  dx2y2           0.8       8.5      10.1       0.0       1.0       0.6
 1 C  dxy             0.2       1.1      13.2       0.0       5.5       4.1
 2 H  s               0.2       0.8       0.0       0.0       0.4       1.6
 3 H  s               0.2       0.3       0.4       0.0       0.8       0.7
 4 H  s               0.2       0.8       0.0       0.0       0.4       1.6
 5 O  s              60.4       1.8       0.1       0.0       8.1       0.7
 5 O  pz              0.0       0.0       0.0       0.2       0.0       0.0
 5 O  px              0.3       0.8       3.6       0.0       0.1       0.2
 5 O  py              2.2       0.6       0.1       0.0       1.4       0.1
 5 O  dz2             2.5      14.6      15.7       1.9      19.7      14.7
 5 O  dxz             0.1       0.5       0.0      51.9       0.1       0.5
 5 O  dyz             0.5       0.7       0.0      17.9       1.2       0.8
 5 O  dx2y2           6.1       2.1      23.8       0.2       0.1       1.0
 5 O  dxy             5.4      13.5       7.0       1.3       0.4      13.5
 6 H  s               0.1       1.7       6.9       0.0       1.6       4.3

                     42        43        44        45        46        47   
                   2.13550   2.20777   2.23185   2.33486   2.53528   2.60137
                   0.00000   0.00000   0.00000   0.00000   0.00000   0.00000
                  --------  --------  --------  --------  --------  --------
 0 C  s               0.0       0.3       0.0       0.8       1.4       0.0
 0 C  pz              3.5       0.1       0.9       0.0       0.0       0.1
 0 C  px              0.0       0.2       0.0       0.8       2.1       0.0
 0 C  py              0.1       3.2       0.0       0.3       0.2       0.0
 0 C  dz2             2.1      14.2       1.4      12.5      10.4       0.2
 0 C  dxz             1.1       0.0      45.5       0.0       0.2       6.4
 0 C  dyz            35.7       3.6      12.8       0.4       0.2       1.5
 0 C  dx2y2           0.8      44.3       0.1       2.5       1.7       0.0
 0 C  dxy             0.0       0.0       1.1       0.0      22.3       0.2
 1 C  s               0.0       0.5       0.0       2.7       2.1       0.0
 1 C  pz              0.9       0.0       1.0       0.0       0.0       1.7
 1 C  px              0.0       2.4       0.0       0.9       2.9       0.0
 1 C  py              0.0       0.7       0.0       0.4       0.4       0.0
 1 C  dz2             0.3       0.2       0.3      28.3       4.9       1.6
 1 C  dxz            34.3       0.0       6.2       0.0       0.5       8.6
 1 C  dyz             1.6       0.0       2.9       3.4       0.0      31.1
 1 C  dx2y2           0.0       0.0       0.0      15.4      24.3       0.8
 1 C  dxy             0.7       0.4       0.2       5.3      13.5       0.1
 2 H  s               2.9       1.1       6.0       0.4       0.7       0.6
 3 H  s               0.0      11.0       0.0       0.4       0.5       0.0
 4 H  s               2.9       1.1       6.0       0.4       0.7       0.6
 5 O  s               0.0       0.7       0.0       5.0       3.1       0.0
 5 O  pz              0.1       0.0       0.6       0.1       0.0       2.3
 5 O  px              0.0       0.5       0.0       0.6       0.6       0.0
 5 O  py              0.0       0.1       0.0       7.1       2.0       0.0
 5 O  dz2             0.2       1.0       0.2       0.0       2.4       2.1
 5 O  dxz            11.7       0.1       9.6       0.0       0.0       4.2
 5 O  dyz             1.1       0.4       4.9       0.3       0.1      37.2
 5 O  dx2y2           0.0       6.0       0.2      11.2       0.8       0.9
 5 O  dxy             0.3       7.8       0.1       0.4       0.4       0.0
 6 H  s               0.0       0.1       0.0       0.4       1.6       0.0

                     48        49   
                   2.85044   2.94763
                   0.00000   0.00000
                  --------  --------
 0 C  s               0.5       0.1
 0 C  px              1.6       0.1
 0 C  py              0.1       0.0
 0 C  dz2             0.9       0.0
 0 C  dx2y2          12.0       1.4
 0 C  dxy             0.3       0.2
 1 C  s               0.4      12.5
 1 C  pz              0.0       0.1
 1 C  px              0.2       1.2
 1 C  py              1.3       8.3
 1 C  dz2             0.6       2.0
 1 C  dxz             0.4       0.1
 1 C  dyz             0.3       0.1
 1 C  dx2y2          17.2       0.1
 1 C  dxy            28.6       5.1
 3 H  s               0.6       0.1
 5 O  s               1.8      14.8
 5 O  pz              0.0       0.1
 5 O  px              2.1       0.5
 5 O  py              0.1       6.2
 5 O  dz2             0.8      10.7
 5 O  dxz             0.3       0.2
 5 O  dyz             0.1       2.1
 5 O  dx2y2           5.2      24.0
 5 O  dxy            23.0      10.1
 6 H  s               1.5       0.0


                      *****************************
                      * MAYER POPULATION ANALYSIS *
                      *****************************

  NA   - Mulliken gross atomic population
  ZA   - Total nuclear charge
  QA   - Mulliken gross atomic charge
  VA   - Mayer's total valence
  BVA  - Mayer's bonded valence
  FA   - Mayer's free valence

  ATOM       NA         ZA         QA         VA         BVA        FA
  0 C      6.5145     6.0000    -0.5145     3.7702     3.7702     0.0000
  1 C      5.7712     6.0000     0.2288     3.8688     3.8688    -0.0000
  2 H      0.8112     1.0000     0.1888     0.9300     0.9300     0.0000
  3 H      0.8450     1.0000     0.1550     0.9368     0.9368    -0.0000
  4 H      0.8113     1.0000     0.1887     0.9301     0.9301     0.0000
  5 O      8.3531     8.0000    -0.3531     2.1041     2.1041    -0.0000
  6 H      0.8937     1.0000     0.1063     0.9291     0.9291    -0.0000

  Mayer bond orders larger than 0.1
B(  0-C ,  1-C ) :   0.9578 B(  0-C ,  2-H ) :   0.9320 B(  0-C ,  3-H ) :   0.9398 
B(  0-C ,  4-H ) :   0.9321 B(  1-C ,  5-O ) :   2.0150 B(  1-C ,  6-H ) :   0.8924 


-------
TIMINGS
-------

Total SCF time: 0 days 0 hours 0 min 2 sec 

Total time                  ....       2.883 sec
Sum of individual times     ....       2.608 sec  ( 90.5%)

Fock matrix formation       ....       1.954 sec  ( 67.8%)
  XC integration            ....       0.549 sec  ( 28.1% of F)
    Basis function eval.    ....       0.194 sec  ( 35.4% of XC)
    Density eval.           ....       0.127 sec  ( 23.1% of XC)
    XC-Functional eval.     ....       0.077 sec  ( 14.1% of XC)
    XC-Potential eval.      ....       0.088 sec  ( 16.1% of XC)
Diagonalization             ....       0.000 sec  (  0.0%)
Density matrix formation    ....       0.000 sec  (  0.0%)
Population analysis         ....       0.014 sec  (  0.5%)
Initial guess               ....       0.001 sec  (  0.0%)
Orbital Transformation      ....       0.000 sec  (  0.0%)
Orbital Orthonormalization  ....       0.000 sec  (  0.0%)
DIIS solution               ....       0.000 sec  (  0.0%)
SOSCF solution              ....       0.002 sec  (  0.1%)
Grid generation             ....       0.638 sec  ( 22.1%)

-------------------------   --------------------
FINAL SINGLE POINT ENERGY      -153.736864772332
-------------------------   --------------------

                                *** OPTIMIZATION RUN DONE ***

                            ***************************************
                            *     ORCA property calculations      *
                            ***************************************

                                    ---------------------
                                    Active property flags
                                    ---------------------
   (+) Dipole Moment


------------------------------------------------------------------------------
                       ORCA ELECTRIC PROPERTIES CALCULATION
------------------------------------------------------------------------------

Dipole Moment Calculation                       ... on
Quadrupole Moment Calculation                   ... off
Polarizability Calculation                      ... off
GBWName                                         ... /Users/lailaal-madhagi/Desktop/Testing_XAS_Analysis_code/Acetaldehyde//Results_dir_Acetaldehyde_geom_element_C_2019-11-03_18-34-06//GTE1_Acetaldehyde_geom_2019-11-03_18-34-39//opt.gbw
Electron density file                           ... /Users/lailaal-madhagi/Desktop/Testing_XAS_Analysis_code/Acetaldehyde//Results_dir_Acetaldehyde_geom_element_C_2019-11-03_18-34-06//GTE1_Acetaldehyde_geom_2019-11-03_18-34-39//opt.scfp.tmp
The origin for moment calculation is the CENTER OF MASS  = (-5.019521,  0.933223 -0.096652)

-------------
DIPOLE MOMENT
-------------
                                X             Y             Z
Electronic contribution:      2.65432       2.10866      -0.23066
Nuclear contribution   :     -3.21331      -2.92017       0.33104
                        -----------------------------------------
Total Dipole Moment    :     -0.55899      -0.81152       0.10038
                        -----------------------------------------
Magnitude (a.u.)       :      0.99051
Magnitude (Debye)      :      2.51767



--------------------
Rotational spectrum 
--------------------
 
Rotational constants in cm-1:     1.857192     0.337507     0.301638 
Rotational constants in MHz : 55677.230337 10118.218559  9042.869690 

 Dipole components along the rotational axes: 
x,y,z [a.u.] :    -0.930032     0.340801    -0.000147 
x,y,z [Debye]:    -2.363955     0.866248    -0.000374 

 

Timings for individual modules:

Sum of individual times         ...       53.387 sec (=   0.890 min)
GTO integral calculation        ...        3.672 sec (=   0.061 min)   6.9 %
SCF iterations                  ...       33.804 sec (=   0.563 min)  63.3 %
SCF Gradient evaluation         ...       14.134 sec (=   0.236 min)  26.5 %
Geometry relaxation             ...        1.777 sec (=   0.030 min)   3.3 %
                             ****ORCA TERMINATED NORMALLY****
TOTAL RUN TIME: 0 days 0 hours 0 minutes 54 seconds 638 msec
