
                                 *****************
                                 * O   R   C   A *
                                 *****************

           --- An Ab Initio, DFT and Semiempirical electronic structure package ---

                  #######################################################
                  #                        -***-                        #
                  #          Department of theory and spectroscopy      #
                  #               Directorship: Frank Neese             #
                  #        Max Planck Institute fuer Kohlenforschung    #
                  #                Kaiser Wilhelm Platz 1               #
                  #                 D-45470 Muelheim/Ruhr               #
                  #                      Germany                        #
                  #                                                     #
                  #                  All rights reserved                #
                  #                        -***-                        #
                  #######################################################


                         Program Version 4.1.0  - RELEASE  -


 With contributions from (in alphabetic order):
   Daniel Aravena         : Magnetic Properties
   Michael Atanasov       : Ab Initio Ligand Field Theory
   Alexander A. Auer      : GIAO ZORA
   Ute Becker             : Parallelization
   Giovanni Bistoni       : ED, Open-shell LED
   Martin Brehm           : Molecular dynamics
   Dmytro Bykov           : SCF Hessian
   Vijay G. Chilkuri      : MRCI spin determinant printing
   Dipayan Datta          : RHF DLPNO-CCSD density
   Achintya Kumar Dutta   : EOM-CC, STEOM-CC
   Dmitry Ganyushin       : Spin-Orbit,Spin-Spin,Magnetic field MRCI
   Miquel Garcia          : C-PCM Hessian
   Yang Guo               : DLPNO-NEVPT2, CIM, IAO-localization
   Andreas Hansen         : Spin unrestricted coupled pair/coupled cluster methods
   Benjamin Helmich-Paris : CASSCF linear response (MC-RPA)
   Lee Huntington         : MR-EOM, pCC
   Robert Izsak           : Overlap fitted RIJCOSX, COSX-SCS-MP3, EOM
   Christian Kollmar      : KDIIS, OOCD, Brueckner-CCSD(T), CCSD density
   Simone Kossmann        : Meta GGA functionals, TD-DFT gradient, OOMP2, MP2 Hessian
   Martin Krupicka        : AUTO-CI
   Lucas Lang             : DCDCAS
   Dagmar Lenk            : GEPOL surface, SMD
   Dimitrios Liakos       : Extrapolation schemes; parallel MDCI
   Dimitrios Manganas     : ROCIS; embedding schemes
   Dimitrios Pantazis     : SARC Basis sets
   Taras Petrenko         : DFT Hessian,TD-DFT gradient, ASA, ECA, R-Raman, ABS, FL, XAS/XES, NRVS
   Peter Pinski           : DLPNO-MP2, DLPNO-MP2 Gradient
   Christoph Reimann      : Effective Core Potentials
   Marius Retegan         : Local ZFS, SOC
   Christoph Riplinger    : Optimizer, TS searches, QM/MM, DLPNO-CCSD(T), (RO)-DLPNO pert. Triples
   Tobias Risthaus        : Range-separated hybrids, TD-DFT gradient, RPA, STAB
   Michael Roemelt        : Restricted open shell CIS
   Masaaki Saitow         : Open-shell DLPNO
   Barbara Sandhoefer     : DKH picture change effects
   Avijit Sen             : IP-ROCIS
   Kantharuban Sivalingam : CASSCF convergence, NEVPT2, FIC-MRCI
   Bernardo de Souza      : ESD, SOC TD-DFT
   Georgi Stoychev        : AutoAux, RI-MP2 NMR
   Willem Van den Heuvel  : Paramagnetic NMR
   Boris Wezisla          : Elementary symmetry handling
   Frank Wennmohs         : Technical directorship


 We gratefully acknowledge several colleagues who have allowed us to
 interface, adapt or use parts of their codes:
   Stefan Grimme, W. Hujo, H. Kruse,             : VdW corrections, initial TS optimization,
                  C. Bannwarth                     DFT functionals, gCP, sTDA/sTD-DF
   Ed Valeev                                     : LibInt (2-el integral package), F12 methods
   Garnet Chan, S. Sharma, J. Yang, R. Olivares  : DMRG
   Ulf Ekstrom                                   : XCFun DFT Library
   Mihaly Kallay                                 : mrcc  (arbitrary order and MRCC methods)
   Andreas Klamt, Michael Diedenhofen            : otool_cosmo (COSMO solvation model)
   Jiri Pittner, Ondrej Demel                    : Mk-CCSD
   Frank Weinhold                                : gennbo (NPA and NBO analysis)
   Christopher J. Cramer and Donald G. Truhlar   : smd solvation model
   Lars Goerigk                                  : TD-DFT with DH, B97 family of functionals
   V. Asgeirsson, H. Jonsson                     : NEB implementation
   FAccTs GmbH                                   : IRC, NEB, NEB-TS, Multilevel


 Your calculation uses the libint2 library for the computation of 2-el integrals
 For citations please refer to: http://libint.valeyev.net

 This ORCA versions uses:
   CBLAS   interface :  Fast vector & matrix operations
   LAPACKE interface :  Fast linear algebra routines
   SCALAPACK package :  Parallel linear algebra routines




***************************************
The coordinates will be read from file: /Users/lailaal-madhagi/Desktop/Testing_XAS_Analysis_code/piperidine//Results_dir_piperidine_geom_element_C_2019-11-27_17-36-51//GTE1_piperidine_geom_2019-11-27_17-36-58//opt.xyz
***************************************


----- Orbital basis set information -----
Your calculation utilizes the basis: 6-31G*
   H-He, Li-Ne : W. J. Hehre, R. Ditchfield and J.A. Pople, J. Chem. Phys. 56, 2257 (1972).
                 Note: He and Ne are unpublished basis sets taken from the Gaussian program.
                 Note: Li and B from J. D. Dill and J. A. Pople, J. Chem. Phys. 62, 2921 (1975).
   Na - Ar     : M. M. Francl, W. J. Pietro, W. J. Hehre, J. S. Binkley, M. S. Gordon, 
                 D. J. DeFrees and J. A. Pople, J. Chem. Phys. 77, 3654 (1982).
   K - Zn      : V. A. Rassolov, J. A. Pople, M. A. Ratner, and T. L. Windus, J. Chem. Phys. 109, 1223 (1998).

================================================================================
                                        WARNINGS
                       Please study these warnings very carefully!
================================================================================


INFO   : the flag for use of LIBINT has been found!

================================================================================
                                       INPUT FILE
================================================================================
NAME = /Users/lailaal-madhagi/Desktop/Testing_XAS_Analysis_code/piperidine//Results_dir_piperidine_geom_element_C_2019-11-27_17-36-51//GTE1_piperidine_geom_2019-11-27_17-36-58//freq.inp
|  1> ! B3LYP 6-31G* TIGHTSCF Grid3 FinalGrid5 Freq 
|  2> !NormalPrint 
|  3> %output 
|  4> Print[P_Basis] 2 
|  5> Print[P_MOS] 1 
|  6> end 
|  7> *xyzfile 0 1 /Users/lailaal-madhagi/Desktop/Testing_XAS_Analysis_code/piperidine//Results_dir_piperidine_geom_element_C_2019-11-27_17-36-51//GTE1_piperidine_geom_2019-11-27_17-36-58//opt.xyz                           ****END OF INPUT****
================================================================================

                       ****************************
                       * Single Point Calculation *
                       ****************************

---------------------------------
CARTESIAN COORDINATES (ANGSTROEM)
---------------------------------
  C      3.711912    1.885953   -0.229274
  C      2.292459    2.089597    0.324793
  C      1.334044    1.020121   -0.223946
  H      1.925531    3.095945    0.084911
  H      2.320695    2.019006    1.422815
  C      1.899588   -0.385300    0.014383
  H      1.199443    1.164485   -1.304228
  H      0.345809    1.108347    0.245760
  N      3.229403   -0.489220   -0.591508
  H      1.249670   -1.141259   -0.443024
  H      1.914423   -0.583226    1.106579
  C      4.183291    0.446317    0.009495
  H      5.165513    0.284370   -0.451023
  H      4.303098    0.286682    1.101674
  H      4.413891    2.589770    0.236608
  H      3.718092    2.081209   -1.309808
  H      3.576320   -1.441387   -0.496157

----------------------------
CARTESIAN COORDINATES (A.U.)
----------------------------
  NO LB      ZA    FRAG     MASS         X           Y           Z
   0 C     6.0000    0    12.011    7.014497    3.563935   -0.433265
   1 C     6.0000    0    12.011    4.332120    3.948765    0.613770
   2 C     6.0000    0    12.011    2.520978    1.927749   -0.423196
   3 H     1.0000    0     1.008    3.638727    5.850488    0.160459
   4 H     1.0000    0     1.008    4.385477    3.815369    2.688731
   5 C     6.0000    0    12.011    3.589701   -0.728112    0.027180
   6 H     1.0000    0     1.008    2.266619    2.200558   -2.464633
   7 H     1.0000    0     1.008    0.653483    2.094473    0.464418
   8 N     7.0000    0    14.007    6.102687   -0.924493   -1.117789
   9 H     1.0000    0     1.008    2.361533   -2.156667   -0.837194
  10 H     1.0000    0     1.008    3.617734   -1.102138    2.091131
  11 C     6.0000    0    12.011    7.905274    0.843418    0.017943
  12 H     1.0000    0     1.008    9.761405    0.537381   -0.852311
  13 H     1.0000    0     1.008    8.131677    0.541751    2.081862
  14 H     1.0000    0     1.008    8.341045    4.893955    0.447124
  15 H     1.0000    0     1.008    7.026175    3.932915   -2.475178
  16 H     1.0000    0     1.008    6.758265   -2.723826   -0.937601

--------------------------------
INTERNAL COORDINATES (ANGSTROEM)
--------------------------------
 C      0   0   0     0.000000000000     0.00000000     0.00000000
 C      1   0   0     1.537305010554     0.00000000     0.00000000
 C      2   1   0     1.537352365920   110.78296138     0.00000000
 H      2   1   3     1.097686847587   110.56869227   237.05448088
 H      2   1   3     1.100650963347   109.10929951   120.14360909
 C      3   2   1     1.533574043372   110.61922163    52.65213245
 H      3   2   1     1.098165564416   109.63856453   292.94022279
 H      3   2   1     1.097732370986   110.64606402   174.59017357
 N      6   3   2     1.465029491414   109.60132855   303.53202334
 H      6   3   2     1.096854000872   110.38308597   184.14445237
 H      6   3   2     1.110084185919   108.73733425    66.83941951
 C      9   6   3     1.465038744688   112.08937130    62.17059234
 H     12   9   6     1.096843210057   108.45363421   177.23372978
 H     12   9   6     1.110266569794   112.45711073    58.89927245
 H      1   2   3     1.097805874760   110.64275067   185.40290663
 H      1   2   3     1.098050851080   109.65198631    67.04702764
 H      9   6   3     1.017872284513   109.69312660   184.28161796

---------------------------
INTERNAL COORDINATES (A.U.)
---------------------------
 C      0   0   0     0.000000000000     0.00000000     0.00000000
 C      1   0   0     2.905085454252     0.00000000     0.00000000
 C      2   1   0     2.905174942924   110.78296138     0.00000000
 H      2   1   3     2.074327522746   110.56869227   237.05448088
 H      2   1   3     2.079928889763   109.10929951   120.14360909
 C      3   2   1     2.898034948063   110.61922163    52.65213245
 H      3   2   1     2.075232166450   109.63856453   292.94022279
 H      3   2   1     2.074413549504   110.64606402   174.59017357
 N      6   3   2     2.768504516890   109.60132855   303.53202334
 H      6   3   2     2.072753670544   110.38308597   184.14445237
 H      6   3   2     2.097755096984   108.73733425    66.83941951
 C      9   6   3     2.768522003045   112.08937130    62.17059234
 H     12   9   6     2.072733278858   108.45363421   177.23372978
 H     12   9   6     2.098099752559   112.45711073    58.89927245
 H      1   2   3     2.074552451506   110.64275067   185.40290663
 H      1   2   3     2.075015389660   109.65198631    67.04702764
 H      9   6   3     1.923499857039   109.69312660   184.28161796

---------------------
BASIS SET INFORMATION
---------------------
There are 3 groups of distinct atoms

 Group   1 Type C   : 10s4p1d contracted to 3s2p1d pattern {631/31/1}
 Group   2 Type H   : 4s contracted to 2s pattern {31}
 Group   3 Type N   : 10s4p1d contracted to 3s2p1d pattern {631/31/1}

Atom   0C    basis set group =>   1
Atom   1C    basis set group =>   1
Atom   2C    basis set group =>   1
Atom   3H    basis set group =>   2
Atom   4H    basis set group =>   2
Atom   5C    basis set group =>   1
Atom   6H    basis set group =>   2
Atom   7H    basis set group =>   2
Atom   8N    basis set group =>   3
Atom   9H    basis set group =>   2
Atom  10H    basis set group =>   2
Atom  11C    basis set group =>   1
Atom  12H    basis set group =>   2
Atom  13H    basis set group =>   2
Atom  14H    basis set group =>   2
Atom  15H    basis set group =>   2
Atom  16H    basis set group =>   2

-------------------------
BASIS SET IN INPUT FORMAT
-------------------------

 # Basis set for element : H 
 NewGTO H 
 S 3 
   1      18.7311370000      0.0334945995
   2       2.8253937000      0.2347269467
   3       0.6401217000      0.8137573184
 S 1 
   1       0.1612778000      1.0000000000
  end;

 # Basis set for element : C 
 NewGTO C 
 S 6 
   1    3047.5249000000      0.0018347002
   2     457.3695100000      0.0140373012
   3     103.9486900000      0.0688426061
   4      29.2101550000      0.2321844206
   5       9.2866630000      0.4679413416
   6       3.1639270000      0.3623120322
 S 3 
   1       7.8682724000     -0.1193324086
   2       1.8812885000     -0.1608542116
   3       0.5442493000      1.1434564826
 P 3 
   1       7.8682724000      0.0689990956
   2       1.8812885000      0.3164239798
   3       0.5442493000      0.7443082524
 S 1 
   1       0.1687144000      1.0000000000
 P 1 
   1       0.1687144000      1.0000000000
 D 1 
   1       0.8000000000      1.0000000000
  end;

 # Basis set for element : N 
 NewGTO N 
 S 6 
   1    4173.5110000000      0.0018347994
   2     627.4579000000      0.0139949958
   3     142.9021000000      0.0685869792
   4      40.2343300000      0.2322409295
   5      12.8202100000      0.4690698576
   6       4.3904370000      0.3604548906
 S 3 
   1      11.6263580000     -0.1149610229
   2       2.7162800000     -0.1691180337
   3       0.7722180000      1.1458522281
 P 3 
   1      11.6263580000      0.0675800232
   2       2.7162800000      0.3239071114
   3       0.7722180000      0.7408952549
 S 1 
   1       0.2120313000      1.0000000000
 P 1 
   1       0.2120313000      1.0000000000
 D 1 
   1       0.8000000000      1.0000000000
  end;

------------------------------------------------------------------------------
                           ORCA GTO INTEGRAL CALCULATION
------------------------------------------------------------------------------

                         BASIS SET STATISTICS AND STARTUP INFO

 # of primitive gaussian shells          ...  134
 # of primitive gaussian functions       ...  206
 # of contracted shells                  ...   58
 # of contracted basis functions         ...  106
 Highest angular momentum                ...    2
 Maximum contraction depth               ...    6
 Integral package used                   ... LIBINT
 Integral threshhold            Thresh   ...  2.500e-11
 Primitive cut-off              TCut     ...  2.500e-12


------------------------------ INTEGRAL EVALUATION ----------------------------


 * One electron integrals 
 Pre-screening matrix                    ... done
 Shell pair data                         ... done (   0.001 sec)

-------------------------------------------------------------------------------
                                 ORCA SCF
-------------------------------------------------------------------------------

------------
SCF SETTINGS
------------
Hamiltonian:
 Density Functional     Method          .... DFT(GTOs)
 Exchange Functional    Exchange        .... B88
   X-Alpha parameter    XAlpha          ....  0.666667
   Becke's b parameter  XBeta           ....  0.004200
 Correlation Functional Correlation     .... LYP
 LDA part of GGA corr.  LDAOpt          .... VWN-5
 Gradients option       PostSCFGGA      .... off
 Hybrid DFT is turned on
   Fraction HF Exchange ScalHFX         ....  0.200000
   Scaling of DF-GGA-X  ScalDFX         ....  0.720000
   Scaling of DF-GGA-C  ScalDFC         ....  0.810000
   Scaling of DF-LDA-C  ScalLDAC        ....  1.000000
   Perturbative correction              ....  0.000000
   Density functional embedding theory  .... OFF
   NL short-range parameter             ....  4.800000


General Settings:
 Integral files         IntName         .... /Users/lailaal-madhagi/Desktop/Testing_XAS_Analysis_code/piperidine//Results_dir_piperidine_geom_element_C_2019-11-27_17-36-51//GTE1_piperidine_geom_2019-11-27_17-36-58//freq
 Hartree-Fock type      HFTyp           .... RHF
 Total Charge           Charge          ....    0
 Multiplicity           Mult            ....    1
 Number of Electrons    NEL             ....   48
 Basis Dimension        Dim             ....  106
 Nuclear Repulsion      ENuc            ....    258.3295770455 Eh

Convergence Acceleration:
 DIIS                   CNVDIIS         .... on
   Start iteration      DIISMaxIt       ....    12
   Startup error        DIISStart       ....  0.200000
   # of expansion vecs  DIISMaxEq       ....     5
   Bias factor          DIISBfac        ....   1.050
   Max. coefficient     DIISMaxC        ....  10.000
 Newton-Raphson         CNVNR           .... off
 SOSCF                  CNVSOSCF        .... on
   Start iteration      SOSCFMaxIt      ....   150
   Startup grad/error   SOSCFStart      ....  0.003300
 Level Shifting         CNVShift        .... on
   Level shift para.    LevelShift      ....    0.2500
   Turn off err/grad.   ShiftErr        ....    0.0010
 Zerner damping         CNVZerner       .... off
 Static damping         CNVDamp         .... on
   Fraction old density DampFac         ....    0.7000
   Max. Damping (<1)    DampMax         ....    0.9800
   Min. Damping (>=0)   DampMin         ....    0.0000
   Turn off err/grad.   DampErr         ....    0.1000
 Fernandez-Rico         CNVRico         .... off

SCF Procedure:
 Maximum # iterations   MaxIter         ....   125
 SCF integral mode      SCFMode         .... Direct
   Integral package                     .... LIBINT
 Reset frequency        DirectResetFreq ....    20
 Integral Threshold     Thresh          ....  2.500e-11 Eh
 Primitive CutOff       TCut            ....  2.500e-12 Eh

Convergence Tolerance:
 Convergence Check Mode ConvCheckMode   .... Total+1el-Energy
 Convergence forced     ConvForced      .... 0
 Energy Change          TolE            ....  1.000e-08 Eh
 1-El. energy change                    ....  1.000e-05 Eh
 Orbital Gradient       TolG            ....  1.000e-05
 Orbital Rotation angle TolX            ....  1.000e-05
 DIIS Error             TolErr          ....  5.000e-07


Diagonalization of the overlap matrix:
Smallest eigenvalue                        ... 4.973e-03
Time for diagonalization                   ...    0.002 sec
Threshold for overlap eigenvalues          ... 1.000e-08
Number of eigenvalues below threshold      ... 0
Time for construction of square roots      ...    0.001 sec
Total time needed                          ...    0.003 sec

-------------------
DFT GRID GENERATION
-------------------

General Integration Accuracy     IntAcc      ...  4.340
Radial Grid Type                 RadialGrid  ... Gauss-Chebyshev
Angular Grid (max. acc.)         AngularGrid ... Lebedev-194
Angular grid pruning method      GridPruning ... 3 (G Style)
Weight generation scheme         WeightScheme... Becke
Basis function cutoff            BFCut       ...    1.0000e-11
Integration weight cutoff        WCut        ...    1.0000e-14
Grids for H and He will be reduced by one unit

# of grid points (after initial pruning)     ...  36534 (   0.0 sec)
# of grid points (after weights+screening)   ...  33334 (   0.1 sec)
nearest neighbour list constructed           ...    0.0 sec
Grid point re-assignment to atoms done       ...    0.0 sec
Grid point division into batches done        ...    0.0 sec
Reduced shell lists constructed in    0.2 sec

Total number of grid points                  ...    33334
Total number of batches                      ...      529
Average number of points per batch           ...       63
Average number of grid points per atom       ...     1961
Average number of shells per batch           ...    45.22 (77.96%)
Average number of basis functions per batch  ...    85.29 (80.46%)
Average number of large shells per batch     ...    36.73 (81.23%)
Average number of large basis fcns per batch ...    68.74 (80.60%)
Maximum spatial batch extension              ...  19.80, 18.41, 21.21 au
Average spatial batch extension              ...   2.88,  2.98,  3.03 au

Time for grid setup =    0.352 sec

------------------------------
INITIAL GUESS: MODEL POTENTIAL
------------------------------
Loading Hartree-Fock densities                     ... done
Calculating cut-offs                               ... done
Setting up the integral package                    ... done
Initializing the effective Hamiltonian             ... done
Starting the Coulomb interaction                   ... done (   0.1 sec)
Reading the grid                                   ... done
Mapping shells                                     ... done
Starting the XC term evaluation                    ... done (   0.3 sec)
  promolecular density results
     # of electrons  =     47.992263772
     EX              =    -35.564448573
     EC              =     -1.559060296
     EX+EC           =    -37.123508868
Transforming the Hamiltonian                       ... done (   0.0 sec)
Diagonalizing the Hamiltonian                      ... done (   0.0 sec)
Back transforming the eigenvectors                 ... done (   0.0 sec)
Now organizing SCF variables                       ... done
                      ------------------
                      INITIAL GUESS DONE (   0.8 sec)
                      ------------------
--------------
SCF ITERATIONS
--------------
               ***  Starting incremental Fock matrix formation  ***

                         ----------------------------
                         !        ITERATION     0   !
                         ----------------------------
   Total Energy        :    -251.506847960919 Eh
   Energy Change       :    -251.506847960919 Eh
   MAX-DP              :       0.076872379288
   RMS-DP              :       0.003401652010
   Actual Damping      :       0.7000
   Actual Level Shift  :       0.2500 Eh
   Int. Num. El.       :    47.99876261 (UP=   23.99938130 DN=   23.99938130)
   Exchange            :   -29.46391306
   Correlation         :    -1.86856493


                         ----------------------------
                         !        ITERATION     1   !
                         ----------------------------
   Total Energy        :    -251.608897939564 Eh
   Energy Change       :      -0.102049978645 Eh
   MAX-DP              :       0.046359285075
   RMS-DP              :       0.002525781142
   Actual Damping      :       0.7000
   Actual Level Shift  :       0.2500 Eh
   Int. Num. El.       :    47.99860406 (UP=   23.99930203 DN=   23.99930203)
   Exchange            :   -29.20730328
   Correlation         :    -1.85672554

                               ***Turning on DIIS***

                         ----------------------------
                         !        ITERATION     2   !
                         ----------------------------
   Total Energy        :    -251.648546831816 Eh
   Energy Change       :      -0.039648892252 Eh
   MAX-DP              :       0.076392225674
   RMS-DP              :       0.004069504133
   Actual Damping      :       0.0000
   Actual Level Shift  :       0.2500 Eh
   Int. Num. El.       :    47.99852593 (UP=   23.99926297 DN=   23.99926297)
   Exchange            :   -29.03870784
   Correlation         :    -1.84866902
   DIIS-Error          :       0.028408526261


                         ----------------------------
                         !        ITERATION     3   !
                         ----------------------------
   Total Energy        :    -251.707235736440 Eh
   Energy Change       :      -0.058688904624 Eh
   MAX-DP              :       0.032842828439
   RMS-DP              :       0.001785554712
   Actual Damping      :       0.0000
   Actual Level Shift  :       0.2500 Eh
   Int. Num. El.       :    47.99844269 (UP=   23.99922134 DN=   23.99922134)
   Exchange            :   -28.80000617
   Correlation         :    -1.83728386
   DIIS-Error          :       0.055473244096
   DIIS coefficients:
      0.59859   0.40141


                         ----------------------------
                         !        ITERATION     4   !
                         ----------------------------
   Total Energy        :    -251.723285510161 Eh
   Energy Change       :      -0.016049773721 Eh
   MAX-DP              :       0.009812996172
   RMS-DP              :       0.000474520715
   Actual Damping      :       0.0000
   Actual Level Shift  :       0.2500 Eh
   Int. Num. El.       :    47.99848824 (UP=   23.99924412 DN=   23.99924412)
   Exchange            :   -28.90608236
   Correlation         :    -1.84306942
   DIIS-Error          :       0.007549420288
   DIIS coefficients:
      0.19990   0.01256   0.78754

                      *** Initiating the SOSCF procedure ***
                           *** Shutting down DIIS ***
                      *** Re-Reading the Fockian *** 
                      *** Removing any level shift *** 

                         ----------------------------
                         !        ITERATION     5   !
                         ----------------------------
   Total Energy        :    -251.723903026041 Eh
   Energy Change       :      -0.000617515881 Eh
   MAX-DP              :       0.003531283958
   RMS-DP              :       0.000166586120
   Orbital gradient    :       0.000809393730
   Orbital Rotation    :       0.000809393730
   Actual Damping      :       0.0000
   Int. Num. El.       :    47.99848408 (UP=   23.99924204 DN=   23.99924204)
   Exchange            :   -28.92432369
   Correlation         :    -1.84403630

               *** Restarting incremental Fock matrix formation ***

                         ----------------------------
                         !        ITERATION     6   !
                         ----------------------------
   Total Energy        :    -251.723935989896 Eh
   Energy Change       :      -0.000032963855 Eh
   MAX-DP              :       0.001756722742
   RMS-DP              :       0.000090512166
   Orbital gradient    :       0.000383639953
   Orbital Rotation    :       0.000635980766
   Actual Damping      :       0.0000
   Int. Num. El.       :    47.99848043 (UP=   23.99924021 DN=   23.99924021)
   Exchange            :   -28.92914531
   Correlation         :    -1.84423683


                         ----------------------------
                         !        ITERATION     7   !
                         ----------------------------
   Total Energy        :    -251.723934668002 Eh
   Energy Change       :       0.000001321894 Eh
   MAX-DP              :       0.001180745332
   RMS-DP              :       0.000037849988
   Orbital gradient    :       0.000480655450
   Orbital Rotation    :       0.000326330339
   Actual Damping      :       0.0000
   Int. Num. El.       :    47.99847699 (UP=   23.99923850 DN=   23.99923850)
   Exchange            :   -28.92996247
   Correlation         :    -1.84432043


                         ----------------------------
                         !        ITERATION     8   !
                         ----------------------------
   Total Energy        :    -251.723941134114 Eh
   Energy Change       :      -0.000006466112 Eh
   MAX-DP              :       0.000218023664
   RMS-DP              :       0.000008990028
   Orbital gradient    :       0.000025801874
   Orbital Rotation    :       0.000057066968
   Actual Damping      :       0.0000
   Int. Num. El.       :    47.99847651 (UP=   23.99923826 DN=   23.99923826)
   Exchange            :   -28.92988320
   Correlation         :    -1.84429305


                         ----------------------------
                         !        ITERATION     9   !
                         ----------------------------
   Total Energy        :    -251.723941134810 Eh
   Energy Change       :      -0.000000000696 Eh
   MAX-DP              :       0.000071700549
   RMS-DP              :       0.000003401071
   Orbital gradient    :       0.000034277359
   Orbital Rotation    :       0.000027898220
   Actual Damping      :       0.0000
   Int. Num. El.       :    47.99847656 (UP=   23.99923828 DN=   23.99923828)
   Exchange            :   -28.92950818
   Correlation         :    -1.84427441


                         ----------------------------
                         !        ITERATION    10   !
                         ----------------------------
   Total Energy        :    -251.723941169354 Eh
   Energy Change       :      -0.000000034544 Eh
   MAX-DP              :       0.000020607525
   RMS-DP              :       0.000001031186
   Orbital gradient    :       0.000004503112
   Orbital Rotation    :       0.000006942416
   Actual Damping      :       0.0000
   Int. Num. El.       :    47.99847660 (UP=   23.99923830 DN=   23.99923830)
   Exchange            :   -28.92969455
   Correlation         :    -1.84428460

                 **** Energy Check signals convergence ****
              ***Rediagonalizing the Fockian in SOSCF/NRSCF***

               *****************************************************
               *                     SUCCESS                       *
               *           SCF CONVERGED AFTER  11 CYCLES          *
               *****************************************************

Setting up the final grid:

General Integration Accuracy     IntAcc      ...  5.010
Radial Grid Type                 RadialGrid  ... Gauss-Chebyshev
Angular Grid (max. acc.)         AngularGrid ... Lebedev-434
Angular grid pruning method      GridPruning ... 3 (G Style)
Weight generation scheme         WeightScheme... Becke
Basis function cutoff            BFCut       ...    1.0000e-11
Integration weight cutoff        WCut        ...    1.0000e-14
Grids for H and He will be reduced by one unit

# of grid points (after initial pruning)     ... 137692 (   0.1 sec)
# of grid points (after weights+screening)   ... 124043 (   0.4 sec)
nearest neighbour list constructed           ...    0.0 sec
Grid point re-assignment to atoms done       ...    0.0 sec
Grid point division into batches done        ...    0.9 sec
Reduced shell lists constructed in    1.7 sec

Total number of grid points                  ...   124043
Total number of batches                      ...     1946
Average number of points per batch           ...       63
Average number of grid points per atom       ...     7297
Average number of shells per batch           ...    42.23 (72.80%)
Average number of basis functions per batch  ...    79.41 (74.92%)
Average number of large shells per batch     ...    33.66 (79.71%)
Average number of large basis fcns per batch ...    62.67 (78.92%)
Maximum spatial batch extension              ...  16.58, 16.11, 19.06 au
Average spatial batch extension              ...   1.95,  1.97,  1.94 au

Final grid set up in    2.3 sec
Final integration                            ... done (   1.5 sec)
Change in XC energy                          ...    -0.000208971
Integrated number of electrons               ...    48.000000794
Previous integrated no of electrons          ...    47.998476577

----------------
TOTAL SCF ENERGY
----------------

Total Energy       :         -251.72415014 Eh           -6849.76236 eV

Components:
Nuclear Repulsion  :          258.32957705 Eh            7029.50516 eV
Electronic Energy  :         -510.05372718 Eh          -13879.26753 eV
One Electron Energy:         -850.52113183 Eh          -23143.85661 eV
Two Electron Energy:          340.46740465 Eh            9264.58908 eV

Virial components:
Potential Energy   :         -501.95870096 Eh          -13658.99066 eV
Kinetic Energy     :          250.23455082 Eh            6809.22830 eV
Virial Ratio       :            2.00595281


DFT components:
N(Alpha)           :       24.000000397087 electrons
N(Beta)            :       24.000000397087 electrons
N(Total)           :       48.000000794175 electrons
E(X)               :      -28.929893337544 Eh       
E(C)               :       -1.844303100190 Eh       
E(XC)              :      -30.774196437734 Eh       
DFET-embed. en.    :        0.000000000000 Eh       

---------------
SCF CONVERGENCE
---------------

  Last Energy change         ...    1.1194e-09  Tolerance :   1.0000e-08
  Last MAX-Density change    ...    9.0252e-06  Tolerance :   1.0000e-07
  Last RMS-Density change    ...    4.3698e-07  Tolerance :   5.0000e-09
  Last Orbital Gradient      ...    3.2549e-06  Tolerance :   1.0000e-05
  Last Orbital Rotation      ...    3.0052e-06  Tolerance :   1.0000e-05

             **** THE GBW FILE WAS UPDATED (/Users/lailaal-madhagi/Desktop/Testing_XAS_Analysis_code/piperidine//Results_dir_piperidine_geom_element_C_2019-11-27_17-36-51//GTE1_piperidine_geom_2019-11-27_17-36-58//freq.gbw) ****
             **** DENSITY FILE WAS UPDATED (/Users/lailaal-madhagi/Desktop/Testing_XAS_Analysis_code/piperidine//Results_dir_piperidine_geom_element_C_2019-11-27_17-36-51//GTE1_piperidine_geom_2019-11-27_17-36-58//freq.scfp.tmp) ****
             **** ENERGY FILE WAS UPDATED (/Users/lailaal-madhagi/Desktop/Testing_XAS_Analysis_code/piperidine//Results_dir_piperidine_geom_element_C_2019-11-27_17-36-51//GTE1_piperidine_geom_2019-11-27_17-36-58//freq.en.tmp) ****
----------------
ORBITAL ENERGIES
----------------

  NO   OCC          E(Eh)            E(eV) 
   0   2.0000     -14.299590      -389.1116 
   1   2.0000     -10.188984      -277.2564 
   2   2.0000     -10.188896      -277.2539 
   3   2.0000     -10.164515      -276.5905 
   4   2.0000     -10.162486      -276.5353 
   5   2.0000     -10.162427      -276.5337 
   6   2.0000      -0.895220       -24.3602 
   7   2.0000      -0.771669       -20.9982 
   8   2.0000      -0.737953       -20.0807 
   9   2.0000      -0.623671       -16.9709 
  10   2.0000      -0.607153       -16.5215 
  11   2.0000      -0.540233       -14.7005 
  12   2.0000      -0.498559       -13.5665 
  13   2.0000      -0.442033       -12.0283 
  14   2.0000      -0.438678       -11.9370 
  15   2.0000      -0.411240       -11.1904 
  16   2.0000      -0.396367       -10.7857 
  17   2.0000      -0.385893       -10.5007 
  18   2.0000      -0.371595       -10.1116 
  19   2.0000      -0.335822        -9.1382 
  20   2.0000      -0.318034        -8.6541 
  21   2.0000      -0.302513        -8.2318 
  22   2.0000      -0.300806        -8.1854 
  23   2.0000      -0.210879        -5.7383 
  24   0.0000       0.087337         2.3766 
  25   0.0000       0.121749         3.3130 
  26   0.0000       0.131770         3.5856 
  27   0.0000       0.139950         3.8082 
  28   0.0000       0.161011         4.3813 
  29   0.0000       0.170870         4.6496 
  30   0.0000       0.176570         4.8047 
  31   0.0000       0.186477         5.0743 
  32   0.0000       0.189826         5.1654 
  33   0.0000       0.190667         5.1883 
  34   0.0000       0.192553         5.2396 
  35   0.0000       0.232687         6.3317 
  36   0.0000       0.244414         6.6509 
  37   0.0000       0.255418         6.9503 
  38   0.0000       0.268271         7.3000 
  39   0.0000       0.286872         7.8062 
  40   0.0000       0.292719         7.9653 
  41   0.0000       0.529404        14.4058 
  42   0.0000       0.537986        14.6393 
  43   0.0000       0.559309        15.2196 
  44   0.0000       0.561869        15.2892 
  45   0.0000       0.573572        15.6077 
  46   0.0000       0.596808        16.2400 
  47   0.0000       0.598306        16.2807 
  48   0.0000       0.647636        17.6231 
  49   0.0000       0.664911        18.0931 
  50   0.0000       0.677897        18.4465 
  51   0.0000       0.724279        19.7086 
  52   0.0000       0.736510        20.0415 
  53   0.0000       0.802042        21.8247 
  54   0.0000       0.820676        22.3317 
  55   0.0000       0.841972        22.9112 
  56   0.0000       0.847392        23.0587 
  57   0.0000       0.856671        23.3112 
  58   0.0000       0.859415        23.3859 
  59   0.0000       0.893458        24.3122 
  60   0.0000       0.901476        24.5304 
  61   0.0000       0.918780        25.0013 
  62   0.0000       0.931863        25.3573 
  63   0.0000       0.949105        25.8264 
  64   0.0000       0.958759        26.0892 
  65   0.0000       0.973377        26.4869 
  66   0.0000       0.981065        26.6961 
  67   0.0000       1.009430        27.4680 
  68   0.0000       1.034111        28.1396 
  69   0.0000       1.213183        33.0124 
  70   0.0000       1.216846        33.1121 
  71   0.0000       1.318217        35.8705 
  72   0.0000       1.382412        37.6174 
  73   0.0000       1.416873        38.5551 
  74   0.0000       1.443129        39.2695 
  75   0.0000       1.555765        42.3345 
  76   0.0000       1.607998        43.7559 
  77   0.0000       1.664591        45.2958 
  78   0.0000       1.723699        46.9042 
  79   0.0000       1.752811        47.6964 
  80   0.0000       1.766862        48.0788 
  81   0.0000       1.797255        48.9058 
  82   0.0000       1.910717        51.9932 
  83   0.0000       1.926979        52.4358 
  84   0.0000       1.949681        53.0535 
  85   0.0000       2.001911        54.4748 
  86   0.0000       2.011429        54.7338 
  87   0.0000       2.033865        55.3443 
  88   0.0000       2.044165        55.6246 
  89   0.0000       2.098049        57.0908 
  90   0.0000       2.160216        58.7825 
  91   0.0000       2.186796        59.5058 
  92   0.0000       2.283307        62.1319 
  93   0.0000       2.289064        62.2886 
  94   0.0000       2.372110        64.5484 
  95   0.0000       2.375839        64.6499 
  96   0.0000       2.404611        65.4328 
  97   0.0000       2.420110        65.8545 
  98   0.0000       2.435885        66.2838 
  99   0.0000       2.452881        66.7463 
 100   0.0000       2.620733        71.3138 
 101   0.0000       2.658245        72.3345 
 102   0.0000       2.693114        73.2834 
 103   0.0000       2.744416        74.6793 
 104   0.0000       2.748214        74.7827 
 105   0.0000       2.815980        76.6267 
------------------
MOLECULAR ORBITALS
------------------
                      0         1         2         3         4         5   
                 -14.29959 -10.18898 -10.18890 -10.16452 -10.16249 -10.16243
                   2.00000   2.00000   2.00000   2.00000   2.00000   2.00000
                  --------  --------  --------  --------  --------  --------
  0C   1s        -0.000057 -0.002416  0.000587  0.032154 -0.332403  0.937755
  0C   2s        -0.000713  0.001261  0.000120  0.000198 -0.013927  0.036225
  0C   1pz        0.000091  0.000033 -0.000052 -0.000114  0.000063  0.000073
  0C   1px       -0.000075  0.000032  0.000004  0.000270  0.000467 -0.000146
  0C   1py        0.000431 -0.000294  0.000257  0.000013  0.000167 -0.000322
  0C   3s         0.001491 -0.009670 -0.001406  0.006839  0.014976 -0.034838
  0C   2pz       -0.000128 -0.000473 -0.000652  0.001044 -0.000478 -0.000835
  0C   2px       -0.000524 -0.000996  0.001083 -0.004110 -0.001973  0.001579
  0C   2py       -0.000906  0.004917  0.000138  0.000775 -0.002153  0.002279
  0C   1dz2      -0.000010 -0.000441  0.000077  0.000329 -0.000076  0.000026
  0C   1dxz       0.000018  0.000060  0.000043  0.000553 -0.000028  0.000084
  0C   1dyz       0.000011 -0.000200  0.000146 -0.000084  0.000008  0.000098
  0C   1dx2y2     0.000100 -0.000491  0.000152 -0.000578 -0.000052  0.000029
  0C   1dxy       0.000095 -0.000500  0.000009  0.000259  0.000096  0.000033
  1C   1s         0.000084  0.000464 -0.000708  0.994388 -0.020282 -0.041314
  1C   2s         0.000674  0.000664 -0.001008  0.038620 -0.001407 -0.002901
  1C   1pz        0.000159  0.000004 -0.000008 -0.000070  0.000080  0.000169
  1C   1px        0.000045  0.000371  0.000112  0.000152  0.000176 -0.000193
  1C   1py       -0.000122 -0.000053  0.000326 -0.000419  0.000196  0.000206
  1C   3s        -0.002546 -0.001671  0.002538 -0.036749  0.005500  0.011479
  1C   2pz       -0.000215 -0.000198  0.000300  0.001106 -0.000598 -0.001278
  1C   2px       -0.000760 -0.000192  0.000532 -0.001076 -0.003929  0.003055
  1C   2py        0.002083  0.000871 -0.001234  0.002953 -0.002862 -0.001882
  1C   1dz2      -0.000029  0.000059 -0.000090  0.000033  0.000199  0.000411
  1C   1dxz       0.000039  0.000003  0.000018  0.000055 -0.000499  0.000385
  1C   1dyz      -0.000108  0.000025 -0.000029 -0.000153 -0.000354 -0.000225
  1C   1dx2y2     0.000079  0.000105 -0.000046 -0.000047  0.000188 -0.000621
  1C   1dxy       0.000066 -0.000017 -0.000108 -0.000040 -0.000645 -0.000139
  2C   1s        -0.000057  0.000421  0.002461  0.032869  0.938154  0.331205
  2C   2s        -0.000712 -0.000610 -0.001110  0.000227  0.036924  0.011949
  2C   1pz        0.000092  0.000034 -0.000051 -0.000113  0.000015  0.000096
  2C   1px       -0.000219  0.000090 -0.000218 -0.000215  0.000541 -0.000160
  2C   1py        0.000378 -0.000081  0.000303 -0.000164 -0.000010 -0.000230
  2C   3s         0.001489  0.005126  0.008322  0.006810 -0.036511 -0.010258
  2C   2pz       -0.000132  0.000781  0.000173  0.001029 -0.000335 -0.000898
  2C   2px        0.000983  0.001797  0.001840  0.002651 -0.003904  0.000567
  2C   2py       -0.000357 -0.001203 -0.004280  0.003238  0.000804  0.000164
  2C   1dz2      -0.000010  0.000103  0.000436  0.000333  0.000068 -0.000043
  2C   1dxz      -0.000021  0.000084 -0.000126 -0.000367 -0.000109 -0.000068
  2C   1dyz      -0.000003 -0.000001  0.000210 -0.000416  0.000001  0.000032
  2C   1dx2y2     0.000111  0.000197  0.000543  0.000154 -0.000025  0.000090
  2C   1dxy       0.000082  0.000022  0.000424 -0.000616  0.000061 -0.000039
  3H   1s        -0.000057  0.000064 -0.000097 -0.000416 -0.000198 -0.000415
  3H   2s        -0.000776 -0.000521  0.000791  0.004966  0.000012  0.000030
  4H   1s         0.000340  0.000114 -0.000173 -0.000180 -0.000316 -0.000661
  4H   2s         0.000325  0.000517 -0.000786  0.006104 -0.000054 -0.000106
  5C   1s        -0.000017  0.201631  0.974782  0.000354 -0.002450 -0.000847
  5C   2s        -0.000871  0.009200  0.037215 -0.000899 -0.001360 -0.000053
  5C   1pz       -0.000066  0.000143 -0.000179 -0.000157  0.000043  0.000169
  5C   1px        0.000285  0.000369  0.000620  0.000069  0.000026 -0.000036
  5C   1py       -0.000098  0.000226  0.000331 -0.000376 -0.000248 -0.000168
  5C   3s         0.007927 -0.012284 -0.032902  0.002428  0.009462  0.000421
  5C   2pz       -0.000503 -0.000858  0.000297  0.000707 -0.000509 -0.000171
  5C   2px        0.003975 -0.002521 -0.000037  0.000720 -0.001010 -0.001493
  5C   2py       -0.000327 -0.002884 -0.003062  0.001507  0.004341  0.000185
  5C   1dz2       0.000066  0.000081 -0.000033 -0.000050  0.000462  0.000164
  5C   1dxz       0.000497  0.000012 -0.000049  0.000013 -0.000092  0.000008
  5C   1dyz      -0.000125  0.000018  0.000112  0.000024  0.000223  0.000187
  5C   1dx2y2    -0.000299 -0.000020  0.000232  0.000036  0.000417  0.000165
  5C   1dxy       0.000105 -0.000116  0.000036  0.000138  0.000559  0.000073
  6H   1s        -0.000170 -0.000292 -0.000554 -0.000519 -0.000047 -0.000268
  6H   2s        -0.000230  0.000299  0.000204  0.000272  0.005951  0.001326
  7H   1s        -0.000096 -0.000144 -0.000376 -0.000371 -0.000344 -0.000151
  7H   2s         0.000720 -0.000038  0.000365  0.000293  0.004414  0.002646
  8N   1s         0.995341 -0.000049  0.000074  0.000036 -0.000022 -0.000046
  8N   2s         0.033014  0.000084 -0.000128  0.000362 -0.000365 -0.000765
  8N   1pz        0.001849  0.000086 -0.000134 -0.000067 -0.000040 -0.000082
  8N   1px        0.000025  0.000393  0.000348 -0.000006  0.000266  0.000017
  8N   1py       -0.000058  0.000272 -0.000070  0.000016 -0.000077 -0.000358
  8N   3s        -0.026226 -0.002229  0.003390 -0.002063  0.000701  0.001467
  8N   2pz       -0.005286  0.000164 -0.000238 -0.000577  0.000274  0.000575
  8N   2px        0.000606 -0.002576 -0.001857  0.000388 -0.000047 -0.000717
  8N   2py       -0.001696 -0.001170 -0.000324 -0.001070  0.000879  0.001616
  8N   1dz2       0.000131 -0.000229  0.000341 -0.000048 -0.000080 -0.000167
  8N   1dxz       0.000102  0.000686  0.000718  0.000034 -0.000010 -0.000008
  8N   1dyz      -0.000279  0.000624 -0.000311 -0.000094  0.000011  0.000028
  8N   1dx2y2    -0.000066 -0.000018 -0.000896  0.000054 -0.000071 -0.000140
  8N   1dxy      -0.000057  0.000849 -0.000186  0.000045 -0.000053 -0.000121
  9H   1s        -0.000365 -0.000095 -0.000469 -0.000052 -0.000376 -0.000115
  9H   2s        -0.000265 -0.000024  0.004975  0.000940  0.000118 -0.000344
 10H   1s        -0.000627  0.000424 -0.000240 -0.000233 -0.000582  0.000074
 10H   2s        -0.000747  0.002097  0.005599 -0.000729  0.000235  0.000098
 11C   1s        -0.000017 -0.974848  0.201313  0.000355  0.000878 -0.002426
 11C   2s        -0.000871 -0.037812  0.006307 -0.000899  0.000815 -0.001090
 11C   1pz       -0.000065  0.000104 -0.000203 -0.000157  0.000104  0.000139
 11C   1px       -0.000155  0.000802  0.000120  0.000188  0.000018  0.000194
 11C   1py       -0.000258  0.000159  0.000001 -0.000333  0.000049 -0.000227
 11C   3s         0.007926  0.035073 -0.001766  0.002422 -0.005624  0.007622
 11C   2pz       -0.000488  0.000079  0.000915  0.000713  0.000181 -0.000504
 11C   2px       -0.002835 -0.003335 -0.002681 -0.001517  0.002067 -0.000926
 11C   2py       -0.002808  0.002363 -0.000379  0.000690 -0.001643  0.003783
 11C   1dz2       0.000069 -0.000002 -0.000087 -0.000050 -0.000163  0.000463
 11C   1dxz      -0.000299  0.000040  0.000004 -0.000026 -0.000052 -0.000136
 11C   1dyz      -0.000414 -0.000110  0.000041  0.000010 -0.000038  0.000266
 11C   1dx2y2     0.000051 -0.000023  0.000138  0.000142 -0.000314  0.000547
 11C   1dxy      -0.000315 -0.000204  0.000088  0.000012 -0.000081  0.000339
 12H   1s        -0.000365  0.000469 -0.000098 -0.000051  0.000147 -0.000365
 12H   2s        -0.000265 -0.004556  0.001994  0.000941 -0.000343 -0.000124
 13H   1s        -0.000627  0.000052 -0.000484 -0.000232  0.000423 -0.000406
 13H   2s        -0.000747 -0.005970  0.000295 -0.000729 -0.000071  0.000244
 14H   1s        -0.000096  0.000402 -0.000017 -0.000371  0.000099 -0.000362
 14H   2s         0.000720 -0.000319  0.000179  0.000290 -0.000718  0.005096
 15H   1s        -0.000171  0.000624  0.000048 -0.000519 -0.000178 -0.000206
 15H   2s        -0.000230 -0.000307 -0.000193  0.000266 -0.002712  0.005462
 16H   1s         0.000211  0.000192 -0.000292 -0.000010  0.000015  0.000032
 16H   2s         0.003040 -0.000282  0.000429 -0.000182  0.000549  0.001151
                      6         7         8         9        10        11   
                  -0.89522  -0.77167  -0.73795  -0.62367  -0.60715  -0.54023
                   2.00000   2.00000   2.00000   2.00000   2.00000   2.00000
                  --------  --------  --------  --------  --------  --------
  0C   1s        -0.038650  0.101400  0.099676  0.031516 -0.097690  0.068915
  0C   2s         0.071878 -0.192344 -0.190089 -0.063974  0.194911 -0.136194
  0C   1pz        0.003483 -0.018779 -0.006035  0.018728 -0.006771  0.115712
  0C   1px       -0.006213  0.048491 -0.030207 -0.106747 -0.004042 -0.043364
  0C   1py       -0.031705 -0.005640  0.037830  0.074838  0.083310 -0.054531
  0C   3s         0.050292 -0.148699 -0.162547 -0.049828  0.177578 -0.160124
  0C   2pz        0.001393 -0.002112  0.001807  0.007820 -0.003473  0.043289
  0C   2px       -0.000220  0.008004 -0.011023 -0.035586  0.002906 -0.009810
  0C   2py       -0.004533 -0.005734  0.007172  0.016556  0.035755 -0.013445
  0C   1dz2      -0.002200  0.000570  0.000501 -0.000524  0.005585 -0.006553
  0C   1dxz      -0.000239  0.002437 -0.001742 -0.005877  0.001262 -0.005276
  0C   1dyz      -0.000652 -0.000370  0.000700  0.002526  0.002396 -0.001872
  0C   1dx2y2    -0.002611 -0.005347  0.004585  0.008205  0.003312  0.000635
  0C   1dxy      -0.000693 -0.000872  0.001468  0.000106  0.005903 -0.006267
  1C   1s        -0.028789  0.134469  0.000014 -0.116284  0.000035 -0.067497
  1C   2s         0.051934 -0.253902 -0.000061  0.230225 -0.000035  0.134641
  1C   1pz       -0.008207  0.021738  0.000163  0.023311 -0.000294  0.131364
  1C   1px        0.006675 -0.010800 -0.074151 -0.020962  0.128335 -0.011476
  1C   1py       -0.018376  0.029813 -0.026989  0.057813  0.046707  0.032369
  1C   3s         0.037729 -0.208598  0.000105  0.209739 -0.000256  0.153872
  1C   2pz       -0.001133  0.002379  0.000058  0.014774 -0.000086  0.047825
  1C   2px        0.002569 -0.002065 -0.019032 -0.009162  0.038382 -0.001470
  1C   2py       -0.006992  0.005725 -0.006995  0.025331  0.014036  0.004601
  1C   1dz2      -0.001141  0.001288 -0.000018  0.003956  0.000027  0.005714
  1C   1dxz      -0.000462  0.000427  0.004773  0.001314 -0.006922  0.001912
  1C   1dyz       0.001256 -0.001154  0.001721 -0.003541 -0.002504 -0.005149
  1C   1dx2y2    -0.000204 -0.000621 -0.005007 -0.003929  0.004524 -0.006314
  1C   1dxy      -0.000170 -0.000523  0.005987 -0.003308 -0.005420 -0.005319
  2C   1s        -0.038654  0.101430 -0.099666  0.031574  0.097664  0.068902
  2C   2s         0.071845 -0.192327  0.190031 -0.064035 -0.194862 -0.136184
  2C   1pz        0.003413 -0.018608  0.006101  0.018406  0.006622  0.115424
  2C   1px        0.025155 -0.033573  0.001203  0.033731  0.050490  0.068748
  2C   1py       -0.020281 -0.035539 -0.048388  0.125954 -0.066516 -0.013805
  2C   3s         0.050425 -0.148972  0.162627 -0.050135 -0.177473 -0.159921
  2C   2pz        0.001430 -0.002055 -0.001808  0.007718  0.003488  0.043308
  2C   2px        0.003152 -0.002523 -0.003885  0.016656  0.025288  0.016454
  2C   2py       -0.003339 -0.009396 -0.012722  0.035666 -0.025380 -0.003804
  2C   1dz2      -0.002206  0.000588 -0.000492 -0.000558 -0.005601 -0.006595
  2C   1dxz       0.000599 -0.001613 -0.000877  0.002857  0.002501  0.005230
  2C   1dyz      -0.000346 -0.001823 -0.001654  0.005687 -0.001032  0.001936
  2C   1dx2y2    -0.001131 -0.001780 -0.002250  0.001529 -0.006371 -0.006043
  2C   1dxy      -0.002455 -0.005119 -0.004277  0.008091 -0.002235  0.001729
  3H   1s         0.009861 -0.071823 -0.000012  0.108751 -0.000024  0.058855
  3H   2s         0.002524 -0.012757  0.000024  0.040720 -0.000023  0.029634
  4H   1s         0.012762 -0.073640 -0.000017  0.092318 -0.000020  0.120773
  4H   2s         0.001151 -0.012876 -0.000048  0.029716  0.000033  0.066566
  5C   1s        -0.087256  0.009789 -0.111794  0.081634 -0.082734 -0.055384
  5C   2s         0.165878 -0.017220  0.217922 -0.161844  0.169114  0.109838
  5C   1pz       -0.028606 -0.014911 -0.013375 -0.026366 -0.006248  0.110112
  5C   1px        0.074773  0.057392 -0.024077  0.092600  0.037103 -0.004505
  5C   1py        0.005857 -0.059492  0.025623 -0.029894 -0.101420 -0.053834
  5C   3s         0.090656 -0.024972  0.173766 -0.162138  0.147962  0.131516
  5C   2pz        0.001174 -0.002183  0.008830 -0.012764  0.009446  0.041952
  5C   2px        0.000663  0.007542 -0.009747  0.025888  0.004635  0.005170
  5C   2py       -0.001707 -0.016389  0.000893 -0.008798 -0.042688 -0.011122
  5C   1dz2      -0.004228  0.000556 -0.000267 -0.003116  0.005037  0.006522
  5C   1dxz      -0.006610 -0.004246  0.000525 -0.006474 -0.002009  0.003457
  5C   1dyz       0.000876  0.001955  0.000229  0.001725  0.003833  0.002057
  5C   1dx2y2     0.007887  0.008961 -0.003560  0.005945  0.004293 -0.000137
  5C   1dxy      -0.000480  0.000532 -0.001752 -0.003973  0.005790  0.007058
  6H   1s         0.017612 -0.054620  0.056982 -0.025756 -0.081941 -0.117443
  6H   2s         0.001897 -0.008501  0.009732 -0.007289 -0.029216 -0.061011
  7H   1s         0.013565 -0.054429  0.061785 -0.028675 -0.094907 -0.064198
  7H   2s        -0.001754 -0.009871  0.012660 -0.010044 -0.036724 -0.033368
  8N   1s        -0.164006 -0.077069 -0.000012 -0.071225  0.000014  0.041963
  8N   2s         0.337807  0.163271  0.000055  0.157251 -0.000014 -0.091726
  8N   1pz        0.080884  0.029110  0.000253 -0.002414  0.000351  0.067346
  8N   1px       -0.000943  0.017781 -0.114452  0.041567 -0.164454 -0.020786
  8N   1py        0.003075 -0.048631 -0.041686 -0.114305 -0.059847  0.057388
  8N   3s         0.336457  0.179399 -0.000102  0.188219 -0.000097 -0.132525
  8N   2pz        0.041300  0.016446  0.000066  0.002436  0.000135  0.029722
  8N   2px       -0.000192  0.006493 -0.046086  0.018954 -0.072532 -0.008260
  8N   2py        0.000826 -0.017781 -0.016811 -0.052275 -0.026389  0.022861
  8N   1dz2      -0.008368 -0.003563  0.000040 -0.004422  0.000047  0.008169
  8N   1dxz      -0.001259  0.000720 -0.009615  0.002038 -0.011600 -0.001166
  8N   1dyz       0.003378 -0.002005 -0.003490 -0.005596 -0.004219  0.003232
  8N   1dx2y2    -0.001492 -0.002160  0.003838 -0.008022  0.001076  0.006153
  8N   1dxy      -0.001234 -0.001818 -0.004609 -0.006752 -0.001321  0.005172
  9H   1s         0.034422 -0.001962  0.071614 -0.071324  0.084636  0.044441
  9H   2s         0.003268 -0.000441  0.016876 -0.027250  0.032542  0.023310
 10H   1s         0.036504 -0.007510  0.062016 -0.067501  0.066507  0.104598
 10H   2s         0.001732 -0.002053  0.007742 -0.022800  0.019304  0.059832
 11C   1s        -0.087271  0.009770  0.111797  0.081685  0.082680 -0.055367
 11C   2s         0.165853 -0.017190 -0.217885 -0.161892 -0.168998  0.109738
 11C   1pz       -0.028338 -0.014776  0.013452 -0.026025  0.006248  0.110042
 11C   1px       -0.061140 -0.005738 -0.001914 -0.051804 -0.036760  0.038493
 11C   1py       -0.043632 -0.082484 -0.035092 -0.082388  0.101618 -0.038199
 11C   3s         0.090831 -0.025038 -0.173873 -0.162366 -0.147799  0.131555
 11C   2pz        0.001272 -0.002126 -0.008895 -0.012793 -0.009490  0.042018
 11C   2px        0.000553  0.004699 -0.007007 -0.014292 -0.023939  0.003306
 11C   2py       -0.001727 -0.017537 -0.007118 -0.023590  0.035694 -0.011761
 11C   1dz2      -0.004267  0.000535  0.000260 -0.003156 -0.005034  0.006547
 11C   1dxz       0.004456  0.001981  0.000546  0.003836  0.000923 -0.003958
 11C   1dyz       0.004881  0.004205  0.000164  0.005455 -0.004242 -0.000616
 11C   1dx2y2     0.000903  0.002080  0.002348 -0.002878 -0.006438  0.006917
 11C   1dxy       0.007871  0.008759  0.003222  0.006579 -0.003236 -0.001370
 12H   1s         0.034431 -0.001940 -0.071615 -0.071375 -0.084614  0.044456
 12H   2s         0.003269 -0.000406 -0.016863 -0.027266 -0.032516  0.023305
 13H   1s         0.036481 -0.007501 -0.061979 -0.067491 -0.066438  0.104558
 13H   2s         0.001697 -0.002090 -0.007737 -0.022793 -0.019304  0.059905
 14H   1s         0.013563 -0.054403 -0.061783 -0.028626  0.094907 -0.064179
 14H   2s        -0.001745 -0.009889 -0.012706 -0.010028  0.036759 -0.033368
 15H   1s         0.017622 -0.054631 -0.057013 -0.025740  0.081989 -0.117487
 15H   2s         0.001875 -0.008504 -0.009725 -0.007292  0.029211 -0.060945
 16H   1s         0.098493  0.073873  0.000019  0.115427 -0.000027 -0.067477
 16H   2s         0.002208  0.010825 -0.000011  0.036919  0.000001 -0.031628
                     12        13        14        15        16        17   
                  -0.49856  -0.44203  -0.43868  -0.41124  -0.39637  -0.38589
                   2.00000   2.00000   2.00000   2.00000   2.00000   2.00000
                  --------  --------  --------  --------  --------  --------
  0C   1s         0.011252 -0.033458 -0.009249 -0.003892  0.007259  0.008194
  0C   2s        -0.021013  0.067137  0.019158  0.008990 -0.013968 -0.017265
  0C   1pz       -0.018912  0.140404 -0.186899 -0.083592  0.013351 -0.122688
  0C   1px       -0.102871  0.069500 -0.024721 -0.100658  0.170517  0.170311
  0C   1py       -0.107062  0.029342  0.002903  0.064320  0.141093 -0.069316
  0C   3s        -0.040497  0.087468  0.034940  0.010959 -0.028799 -0.027040
  0C   2pz       -0.015327  0.064299 -0.082095 -0.037206  0.001165 -0.066857
  0C   2px       -0.045654  0.033990 -0.000527 -0.037001  0.060355  0.079200
  0C   2py       -0.035385  0.012911  0.007874  0.035268  0.078429 -0.032514
  0C   1dz2      -0.001237 -0.000283  0.007023  0.002735  0.000294  0.002853
  0C   1dxz      -0.003272  0.002358 -0.003348  0.003909  0.006065  0.004138
  0C   1dyz      -0.002627 -0.000118  0.001223 -0.006506  0.005802 -0.002999
  0C   1dx2y2    -0.001437 -0.001530 -0.001197  0.003471 -0.005981 -0.000295
  0C   1dxy       0.001684  0.011166 -0.000621 -0.000865  0.003614 -0.001660
  1C   1s         0.002275  0.033722 -0.000056  0.006347  0.022307  0.000010
  1C   2s        -0.004603 -0.068967  0.000084 -0.012121 -0.043725 -0.000076
  1C   1pz       -0.038398  0.112718 -0.000065 -0.261353  0.060764  0.000575
  1C   1px        0.037257  0.062013 -0.043300 -0.016654 -0.095493 -0.234012
  1C   1py       -0.102575 -0.169822 -0.015454  0.044120  0.263165 -0.084974
  1C   3s        -0.005884 -0.087699  0.000193 -0.021634 -0.075869  0.000116
  1C   2pz       -0.009550  0.047876 -0.000033 -0.126073  0.035961  0.000208
  1C   2px        0.015900  0.028599 -0.019514 -0.004363 -0.042712 -0.097804
  1C   2py       -0.043828 -0.077844 -0.007043  0.010932  0.117752 -0.035613
  1C   1dz2      -0.000032  0.000905  0.000019 -0.011038 -0.003859 -0.000017
  1C   1dxz      -0.001541 -0.000462 -0.005550 -0.000459  0.002758  0.003298
  1C   1dyz       0.004251  0.001163 -0.002029  0.001167 -0.007593  0.001182
  1C   1dx2y2    -0.002192  0.009227 -0.001953 -0.001233 -0.003546 -0.004260
  1C   1dxy      -0.001829  0.007744  0.002280 -0.001028 -0.003001  0.005087
  2C   1s         0.011258 -0.033439  0.009338 -0.003881  0.007268 -0.008178
  2C   2s        -0.021033  0.067055 -0.019285  0.009011 -0.013933  0.017327
  2C   1pz       -0.019451  0.141287  0.186608 -0.083912  0.014064  0.122153
  2C   1px        0.147550 -0.071618 -0.016167  0.035419 -0.221460  0.085986
  2C   1py       -0.015867 -0.022083 -0.017848  0.113891 -0.001763  0.162774
  2C   3s        -0.040607  0.087656 -0.035212  0.010807 -0.028833  0.026588
  2C   2pz       -0.015516  0.064800  0.081958 -0.037245  0.001311  0.066688
  2C   2px        0.057747 -0.033982  0.005085  0.005538 -0.096784  0.039875
  2C   2py        0.002286 -0.011750 -0.006203  0.050645  0.021067  0.075990
  2C   1dz2      -0.001268 -0.000290 -0.007004  0.002743  0.000355 -0.002872
  2C   1dxz       0.004186 -0.001770 -0.001823  0.001204 -0.008382  0.001201
  2C   1dyz       0.000102 -0.001580 -0.003102 -0.007516  0.000566  0.004958
  2C   1dx2y2     0.001436  0.010733  0.000779 -0.000240  0.002488  0.001691
  2C   1dxy      -0.001701 -0.003442  0.001067  0.003533 -0.006532  0.000009
  3H   1s        -0.052007 -0.149543  0.000235  0.058506  0.142092  0.000101
  3H   2s        -0.032371 -0.103583  0.000205  0.054292  0.125813  0.000130
  4H   1s        -0.019356  0.042269 -0.000066 -0.164094  0.003491 -0.000007
  4H   2s        -0.017487  0.042092 -0.000117 -0.118023  0.007250 -0.000065
  5C   1s         0.007356  0.030876 -0.011928 -0.002085 -0.002699 -0.003619
  5C   2s        -0.016367 -0.063945  0.022998  0.000911  0.005294  0.007941
  5C   1pz       -0.036565  0.139560  0.244021  0.199475  0.000195  0.012281
  5C   1px        0.151408  0.061472 -0.087408  0.081902  0.122533  0.251716
  5C   1py        0.144989  0.110688  0.033631 -0.047377  0.002822 -0.001201
  5C   3s        -0.007253 -0.089414  0.030262  0.011969  0.019961  0.020562
  5C   2pz       -0.007385  0.056028  0.100544  0.088687  0.002545  0.003702
  5C   2px        0.056054  0.028594 -0.044829  0.040851  0.033565  0.113174
  5C   2py        0.070696  0.046173  0.015296 -0.025983  0.017974 -0.010245
  5C   1dz2      -0.003458  0.000315  0.008836  0.007764 -0.000615  0.002129
  5C   1dxz      -0.007207 -0.002621  0.004056  0.003514 -0.005139 -0.013871
  5C   1dyz      -0.006113 -0.000909 -0.002224 -0.005785 -0.003410  0.001846
  5C   1dx2y2     0.004419  0.000892 -0.004726  0.001832  0.013426  0.004074
  5C   1dxy       0.005164 -0.011759  0.000841 -0.002467 -0.000100 -0.006757
  6H   1s        -0.009962 -0.046064 -0.113300  0.060613  0.000776 -0.059674
  6H   2s        -0.010004 -0.040377 -0.073912  0.045528 -0.000530 -0.045120
  7H   1s        -0.083769  0.104453  0.046101 -0.032223  0.123439  0.001170
  7H   2s        -0.050725  0.070438  0.043652 -0.032036  0.108066 -0.002335
  8N   1s        -0.012337 -0.010768  0.000020  0.026511 -0.022589 -0.000026
  8N   2s         0.032086  0.022627 -0.000048 -0.060128  0.053600  0.000054
  8N   1pz        0.054700  0.063671 -0.000540  0.149952  0.105337  0.000685
  8N   1px       -0.104319  0.043383  0.214331  0.026554 -0.084836 -0.277132
  8N   1py        0.286921 -0.117934  0.078207 -0.072211  0.234196 -0.100680
  8N   3s         0.024025  0.044553 -0.000057 -0.093481  0.093788  0.000204
  8N   2pz        0.017769  0.043703 -0.000204  0.091827  0.062308  0.000362
  8N   2px       -0.048720  0.022254  0.093483  0.011390 -0.042092 -0.134664
  8N   2py        0.133780 -0.060321  0.034191 -0.030745  0.116022 -0.048911
  8N   1dz2       0.006451  0.005032 -0.000018  0.013077  0.010100  0.000065
  8N   1dxz      -0.004844  0.000972  0.003099  0.001284 -0.003157 -0.015045
  8N   1dyz       0.013337 -0.002528  0.001131 -0.003389  0.008730 -0.005471
  8N   1dx2y2     0.003336 -0.009709 -0.000489 -0.002381  0.008378 -0.000390
  8N   1dxy       0.002834 -0.008154  0.000624 -0.002009  0.007051  0.000429
  9H   1s        -0.097508 -0.129175 -0.029444 -0.058695 -0.046632 -0.099338
  9H   2s        -0.057888 -0.090510 -0.027358 -0.051228 -0.041361 -0.092245
 10H   1s        -0.038481  0.039786  0.142248  0.125740  0.002825  0.013664
 10H   2s        -0.030292  0.043054  0.104544  0.103372  0.003122  0.008847
 11C   1s         0.007350  0.030910  0.011831 -0.002082 -0.002715  0.003612
 11C   2s        -0.016274 -0.064067 -0.022657  0.000777  0.005247 -0.007964
 11C   1pz       -0.035811  0.139273 -0.244035  0.199746  0.000693 -0.013269
 11C   1px       -0.209377 -0.117889 -0.045831 -0.031503 -0.095988  0.191805
 11C   1py        0.013651  0.045287 -0.082436 -0.088609 -0.076831  0.162579
 11C   3s        -0.007398 -0.089470 -0.030275  0.012185  0.020273 -0.020407
 11C   2pz       -0.007202  0.056018 -0.100600  0.088933  0.002607 -0.004116
 11C   2px       -0.088608 -0.051499 -0.024700 -0.014387 -0.037468  0.080152
 11C   2py        0.017983  0.016960 -0.040803 -0.046005 -0.007905  0.080762
 11C   1dz2      -0.003520  0.000277 -0.008853  0.007776 -0.000654 -0.002048
 11C   1dxz       0.009410  0.002630  0.001613  0.001076  0.006118 -0.009456
 11C   1dyz      -0.000053  0.000967  0.004273 -0.006689  0.000658 -0.010313
 11C   1dx2y2     0.005884 -0.011417  0.000017 -0.002102  0.002236  0.005933
 11C   1dxy       0.003485  0.002933  0.004811  0.002208  0.013264 -0.005222
 12H   1s        -0.097541 -0.129114  0.029806 -0.058683 -0.046817  0.099274
 12H   2s        -0.057817 -0.090438  0.027648 -0.051182 -0.041540  0.092152
 13H   1s        -0.038446  0.039410 -0.142251  0.125710  0.002855 -0.013709
 13H   2s        -0.030189  0.042783 -0.104666  0.103409  0.003154 -0.008907
 14H   1s        -0.083773  0.104294 -0.046362 -0.032202  0.123382 -0.000954
 14H   2s        -0.050799  0.070319 -0.043835 -0.032077  0.108054  0.002554
 15H   1s        -0.009942 -0.045730  0.113451  0.060600  0.000682  0.059701
 15H   2s        -0.010036 -0.040110  0.073959  0.045442 -0.000586  0.045149
 16H   1s        -0.161008  0.090207 -0.000118  0.028921 -0.141974 -0.000124
 16H   2s        -0.095784  0.054690 -0.000019  0.024793 -0.118918 -0.000127
                     18        19        20        21        22        23   
                  -0.37160  -0.33582  -0.31803  -0.30251  -0.30081  -0.21088
                   2.00000   2.00000   2.00000   2.00000   2.00000   2.00000
                  --------  --------  --------  --------  --------  --------
  0C   1s         0.016721  0.000751  0.007871 -0.011084  0.001163  0.013414
  0C   2s        -0.035295 -0.005031 -0.017482  0.027500 -0.000355 -0.030235
  0C   1pz        0.053634 -0.221300 -0.227980  0.037686 -0.070631 -0.003225
  0C   1px        0.048054 -0.109006  0.021537 -0.254168  0.115221 -0.032649
  0C   1py        0.264893  0.092555  0.038290 -0.059070 -0.212397  0.081129
  0C   3s        -0.061230  0.011615 -0.029976  0.027681 -0.015579 -0.083429
  0C   2pz        0.009034 -0.104694 -0.099728  0.019983 -0.030429  0.029784
  0C   2px        0.029889 -0.059643  0.026500 -0.122478  0.055852 -0.070850
  0C   2py        0.104586  0.056724  0.010965 -0.021295 -0.099473  0.034520
  0C   1dz2      -0.001524  0.015080  0.019685 -0.000313  0.001995  0.003648
  0C   1dxz       0.003200 -0.002444 -0.005453 -0.010083  0.001690  0.002469
  0C   1dyz       0.008200 -0.009209 -0.005021 -0.000015 -0.005533 -0.000581
  0C   1dx2y2     0.006731  0.002496 -0.002389  0.004915 -0.009560  0.002525
  0C   1dxy       0.007417 -0.001734  0.001289 -0.014782 -0.010206  0.002680
  1C   1s         0.000012  0.000000  0.010226 -0.000057  0.016011  0.005393
  1C   2s        -0.000049 -0.000003 -0.025927  0.000172 -0.037843  0.002452
  1C   1pz       -0.000112  0.000001  0.299374 -0.000798  0.062187 -0.011897
  1C   1px        0.040530  0.014170  0.017264  0.298026 -0.085819  0.006391
  1C   1py        0.014754  0.005184 -0.046010  0.107507  0.239329 -0.017647
  1C   3s        -0.000077 -0.000041 -0.020002  0.000143 -0.056049 -0.110476
  1C   2pz       -0.000010  0.000096  0.124422 -0.000408  0.028626 -0.015812
  1C   2px        0.048668 -0.010715  0.009575  0.152010 -0.038671 -0.006189
  1C   2py        0.017667 -0.003989 -0.025627  0.054922  0.107617  0.017155
  1C   1dz2      -0.000001  0.000040  0.027111  0.000041 -0.001025  0.002194
  1C   1dxz       0.000489 -0.009185 -0.000409 -0.007632  0.001198  0.000504
  1C   1dyz       0.000159 -0.003353  0.001403 -0.002741 -0.003244 -0.001386
  1C   1dx2y2    -0.005160 -0.002532  0.002294  0.006547 -0.016242  0.003139
  1C   1dxy       0.006148  0.002984  0.001934 -0.007712 -0.013680  0.002630
  2C   1s        -0.016728 -0.000751  0.007862  0.011077  0.001239  0.013404
  2C   2s         0.035280  0.005057 -0.017554 -0.027501 -0.000511 -0.030187
  2C   1pz       -0.054207  0.221478 -0.227774 -0.036241 -0.070716 -0.003188
  2C   1px        0.206866 -0.023147 -0.041807 -0.233083  0.046462 -0.027143
  2C   1py       -0.172031 -0.140684  0.015357 -0.116553 -0.237710  0.083061
  2C   3s         0.061118 -0.011806 -0.029680 -0.027550 -0.016034 -0.083255
  2C   2pz       -0.009348  0.104723 -0.099746 -0.019383 -0.030592  0.029758
  2C   2px        0.090142 -0.008789 -0.027729 -0.107720  0.020232  0.032254
  2C   2py       -0.060655 -0.081447 -0.008777 -0.061681 -0.112625  0.071967
  2C   1dz2       0.001482 -0.015030  0.019639  0.000381  0.001996  0.003659
  2C   1dxz       0.007772 -0.007896  0.007546 -0.007784  0.002278 -0.001504
  2C   1dyz      -0.004211  0.005473 -0.000287 -0.006389 -0.005358 -0.002034
  2C   1dx2y2    -0.008420  0.001243  0.000872  0.013770 -0.011587  0.003067
  2C   1dxy      -0.005345 -0.002740 -0.002566 -0.007383 -0.007721  0.002010
  3H   1s        -0.000010  0.000008 -0.101337 -0.000621  0.166149 -0.021692
  3H   2s         0.000027  0.000065 -0.101711 -0.000741  0.187306 -0.033973
  4H   1s        -0.000027  0.000025  0.222147  0.000034  0.015314  0.002089
  4H   2s        -0.000049 -0.000020  0.248848  0.000033  0.025983  0.042296
  5C   1s        -0.020515 -0.001180  0.007150 -0.002525 -0.008015  0.015618
  5C   2s         0.043896  0.009684 -0.013858  0.008653  0.017649 -0.039503
  5C   1pz        0.032582 -0.200630  0.042303  0.062932  0.063206  0.119496
  5C   1px        0.032879 -0.054394  0.054960  0.169501 -0.077709 -0.028971
  5C   1py        0.268772  0.114763 -0.068375  0.059304  0.232913 -0.032226
  5C   3s         0.074420 -0.021568 -0.040436  0.000238  0.028766 -0.034630
  5C   2pz       -0.000882 -0.086858  0.009826  0.036570  0.018426  0.009363
  5C   2px        0.018421 -0.034697  0.044438  0.072543 -0.042595 -0.022879
  5C   2py        0.119753  0.055378 -0.036766  0.021294  0.117234  0.010527
  5C   1dz2       0.001272 -0.013892  0.004669  0.005477  0.004125  0.023390
  5C   1dxz      -0.001702 -0.002106  0.004178 -0.008982  0.000810 -0.013858
  5C   1dyz      -0.008401  0.008956 -0.005527 -0.004764 -0.006297 -0.003971
  5C   1dx2y2    -0.005592  0.000281  0.003817  0.009359 -0.005661 -0.004309
  5C   1dxy      -0.007693 -0.003060  0.000490 -0.014034 -0.012186  0.005346
  6H   1s         0.020802 -0.162914  0.169340  0.021779  0.025671  0.012748
  6H   2s         0.015768 -0.148776  0.185751  0.025079  0.033022  0.076712
  7H   1s        -0.133004  0.078576 -0.055244  0.132901 -0.075207  0.012009
  7H   2s        -0.131904  0.078485 -0.057605  0.147782 -0.080975  0.044546
  8N   1s        -0.000006  0.000007  0.012107 -0.000012  0.003169 -0.054052
  8N   2s         0.000007 -0.000019 -0.024631  0.000047 -0.012387  0.117020
  8N   1pz       -0.000005  0.000141  0.084018  0.000739 -0.087979 -0.512340
  8N   1px        0.025202 -0.059819 -0.001070 -0.177992  0.051519 -0.045914
  8N   1py        0.009231 -0.021769  0.003609 -0.064221 -0.144030  0.123133
  8N   3s         0.000060 -0.000052 -0.064150  0.000064 -0.007801  0.241719
  8N   2pz        0.000020  0.000109  0.051801  0.000468 -0.051433 -0.431450
  8N   2px        0.033020 -0.044856  0.000600 -0.109074  0.029456 -0.027836
  8N   2py        0.011987 -0.016480 -0.001384 -0.039393 -0.082128  0.074013
  8N   1dz2       0.000005 -0.000014  0.007281  0.000066 -0.005412 -0.013530
  8N   1dxz       0.000369  0.004023  0.000974 -0.011201  0.000678 -0.003416
  8N   1dyz       0.000161  0.001472 -0.002618 -0.004069 -0.001931  0.009251
  8N   1dx2y2     0.007177  0.003199  0.001581  0.000782 -0.013594  0.000941
  8N   1dxy      -0.008543 -0.003800  0.001319 -0.000873 -0.011418  0.000817
  9H   1s        -0.123687  0.029653 -0.010218 -0.132465 -0.100784 -0.043495
  9H   2s        -0.121139  0.029276 -0.007027 -0.144093 -0.111462 -0.046660
 10H   1s         0.011934 -0.150445  0.042284  0.045400  0.028617  0.128591
 10H   2s         0.009281 -0.144859  0.069545  0.044024  0.036006  0.223980
 11C   1s         0.020524  0.001189  0.007154  0.002586 -0.007991  0.015618
 11C   2s        -0.044022 -0.009795 -0.013894 -0.008730  0.017616 -0.039568
 11C   1pz       -0.033035  0.200613  0.042364 -0.064023  0.062735  0.119266
 11C   1px        0.197814  0.032902  0.001934  0.168326 -0.088745  0.043381
 11C   1py       -0.184836 -0.122634 -0.087636  0.061792  0.228881 -0.005960
 11C   3s        -0.074076  0.021895 -0.040281 -0.000595  0.028445 -0.034452
 11C   2pz        0.000562  0.086868  0.009873 -0.037078  0.018319  0.009533
 11C   2px        0.091161  0.009264 -0.010455  0.069435 -0.042137  0.010749
 11C   2py       -0.079681 -0.064525 -0.056770  0.029441  0.117418  0.023028
 11C   1dz2      -0.001252  0.013882  0.004682 -0.005441  0.004088  0.023296
 11C   1dxz      -0.006746  0.004221  0.000380 -0.010026  0.003429  0.013303
 11C   1dyz       0.005333 -0.008177 -0.006917 -0.002042 -0.005363  0.005949
 11C   1dx2y2     0.008511  0.002994  0.001143  0.012260 -0.012868  0.004560
 11C   1dxy       0.004182 -0.000829  0.003661 -0.011646 -0.003563 -0.005133
 12H   1s         0.123652 -0.029585 -0.010271  0.133149 -0.099799 -0.043429
 12H   2s         0.120967 -0.029250 -0.007106  0.144844 -0.110256 -0.046569
 13H   1s        -0.011976  0.150367  0.042245 -0.045568  0.028309  0.128552
 13H   2s        -0.009350  0.144933  0.069543 -0.044201  0.035718  0.223928
 14H   1s         0.133057 -0.078567 -0.055119 -0.132439 -0.076144  0.012016
 14H   2s         0.132037 -0.078453 -0.057394 -0.147271 -0.082028  0.044548
 15H   1s        -0.020824  0.162994  0.169390 -0.021859  0.025561  0.012759
 15H   2s        -0.015766  0.148733  0.185799 -0.025175  0.032841  0.076586
 16H   1s        -0.000029 -0.000018 -0.012992 -0.000412  0.114620 -0.070713
 16H   2s        -0.000056 -0.000107 -0.014950 -0.000452  0.114429 -0.070813
                     24        25        26        27        28        29   
                   0.08734   0.12175   0.13177   0.13995   0.16101   0.17087
                   0.00000   0.00000   0.00000   0.00000   0.00000   0.00000
                  --------  --------  --------  --------  --------  --------
  0C   1s         0.034326 -0.053618  0.012812  0.062255 -0.003679 -0.051028
  0C   2s        -0.048229  0.042449 -0.022773 -0.061845 -0.014990  0.076874
  0C   1pz        0.012062 -0.130243 -0.096701  0.020342 -0.011074  0.080480
  0C   1px       -0.048257  0.034093 -0.043650 -0.081069 -0.082465  0.048639
  0C   1py       -0.066886  0.033440 -0.069910 -0.111618 -0.030776  0.075115
  0C   3s        -0.436371  1.050591 -0.204022 -1.153334  0.227853  0.642408
  0C   2pz        0.072646 -0.329304 -0.131160  0.061137 -0.000898  0.349805
  0C   2px       -0.110013  0.096635 -0.225506 -0.076363 -0.627752  0.208800
  0C   2py       -0.166852 -0.086684 -0.218557 -0.405929 -0.039089  0.545993
  0C   1dz2      -0.002584 -0.006343 -0.005540  0.006956 -0.002434  0.006738
  0C   1dxz       0.002584 -0.000808  0.008703 -0.003226  0.006530 -0.006749
  0C   1dyz       0.003878  0.010619  0.004105  0.002246  0.003312 -0.002231
  0C   1dx2y2    -0.003661 -0.002530  0.009786 -0.002836 -0.006692 -0.008101
  0C   1dxy       0.009962 -0.001969 -0.005076  0.000253  0.003760 -0.001215
  1C   1s         0.047773 -0.033808  0.033141  0.000064  0.079599  0.078621
  1C   2s        -0.070405  0.052050 -0.009470 -0.000118 -0.053317 -0.080031
  1C   1pz       -0.058347 -0.023355 -0.233992 -0.000605  0.026211  0.007310
  1C   1px        0.017537 -0.050232  0.007092  0.029868  0.021117  0.042453
  1C   1py       -0.048372  0.137753 -0.021014  0.011088 -0.058027 -0.117611
  1C   3s        -0.633509  0.486327 -0.791739 -0.001061 -1.620965 -1.307057
  1C   2pz       -0.176730  0.091692 -0.584208 -0.002058  0.265435 -0.090229
  1C   2px        0.059659 -0.162884 -0.031095  0.390709 -0.027114  0.204978
  1C   2py       -0.163952  0.447133  0.082330  0.143399  0.075893 -0.569153
  1C   1dz2      -0.003341  0.003493  0.012270 -0.000009  0.008973 -0.013650
  1C   1dxz      -0.000098 -0.002744 -0.001280  0.008156 -0.002701  0.003595
  1C   1dyz       0.000264  0.007554  0.003651  0.003001  0.007493 -0.010121
  1C   1dx2y2    -0.007851  0.002377 -0.000187  0.002922  0.000508  0.005042
  1C   1dxy      -0.006596  0.002024 -0.000148 -0.003459  0.000449  0.004170
  2C   1s         0.034241 -0.053517  0.012949 -0.062220 -0.003598 -0.050527
  2C   2s        -0.048389  0.042411 -0.022592  0.061850 -0.014855  0.076525
  2C   1pz        0.011820 -0.130234 -0.097173 -0.020390 -0.011518  0.081130
  2C   1px        0.080174 -0.047691  0.078429 -0.133642  0.083163 -0.085488
  2C   1py       -0.020291  0.003495 -0.025427  0.033487  0.029462  0.026401
  2C   3s        -0.434086  1.048533 -0.207527  1.152674  0.225576  0.633020
  2C   2pz        0.071749 -0.329136 -0.133593 -0.060219 -0.003215  0.353135
  2C   2px        0.193887 -0.018605  0.314346 -0.318800  0.507738 -0.511055
  2C   2py       -0.058043 -0.129511 -0.021450  0.262104  0.373139  0.284644
  2C   1dz2      -0.002559 -0.006317 -0.005457 -0.006981 -0.002370  0.006720
  2C   1dxz      -0.004497 -0.006240 -0.009336 -0.001146 -0.007152  0.006680
  2C   1dyz       0.001335  0.008643 -0.002500 -0.003816 -0.001609  0.002665
  2C   1dx2y2     0.009151 -0.002417 -0.003343  0.000239  0.002516 -0.002612
  2C   1dxy      -0.005355 -0.002138  0.010507  0.002833 -0.007246 -0.007733
  3H   1s         0.041354 -0.029477 -0.020850 -0.000088 -0.024990  0.051287
  3H   2s         0.502791 -0.790576 -0.005649 -0.001341  0.583899  1.138355
  4H   1s        -0.013179  0.016877  0.058840  0.000081  0.038447 -0.030307
  4H   2s         0.402925 -0.082124  1.148650  0.002324  0.354844  0.411329
  5C   1s         0.045733  0.005822  0.014214 -0.060404 -0.079533 -0.006128
  5C   2s        -0.050988  0.023364 -0.009886  0.060017  0.094835 -0.000603
  5C   1pz       -0.077359 -0.123106 -0.117368  0.056908  0.011770 -0.155515
  5C   1px        0.093069  0.026709 -0.089421 -0.069074 -0.000494  0.044298
  5C   1py        0.084832 -0.015650 -0.032887 -0.127251 -0.112715 -0.029354
  5C   3s        -0.713040 -0.330420 -0.299960  1.110714  1.256682  0.211830
  5C   2pz       -0.152784 -0.246012 -0.280694  0.122201  0.059762 -0.583694
  5C   2px        0.239131  0.129856 -0.373140 -0.066127 -0.113470  0.344173
  5C   2py        0.183200 -0.275426 -0.021627 -0.376854 -0.446275  0.086022
  5C   1dz2      -0.002576  0.005341 -0.001375 -0.008578  0.003445 -0.001460
  5C   1dxz       0.005100  0.001683 -0.000842  0.003046 -0.003766  0.006268
  5C   1dyz       0.001452 -0.011943 -0.002927 -0.000818 -0.003765  0.012536
  5C   1dx2y2    -0.005022 -0.002716  0.005083  0.000335 -0.015215 -0.006480
  5C   1dxy       0.008353 -0.002994 -0.003645 -0.001932  0.001287 -0.007842
  6H   1s        -0.018806 -0.044446 -0.036648 -0.031567 -0.007703  0.008071
  6H   2s         0.212358 -0.871402 -0.261718 -0.588923 -0.045192 -0.022003
  7H   1s         0.043847  0.016167  0.017399  0.001676  0.040519 -0.044225
  7H   2s         0.497323 -0.198798  0.541899 -0.766443  0.429130 -0.950118
  8N   1s         0.059078  0.045467 -0.049709  0.000089  0.061749  0.024979
  8N   2s        -0.108566 -0.063335  0.053309 -0.000084 -0.096137 -0.004382
  8N   1pz        0.012217 -0.048619  0.102646 -0.000065 -0.097092 -0.043233
  8N   1px       -0.042498 -0.042477  0.047077  0.038599 -0.012198  0.032625
  8N   1py        0.116615  0.116228 -0.128402  0.014227  0.032832 -0.090425
  8N   3s        -0.725862 -0.677506  0.914634 -0.001323 -0.809915 -0.647107
  8N   2pz       -0.015514 -0.031880  0.330191 -0.000476 -0.203231 -0.118860
  8N   2px       -0.105562 -0.112911  0.103603  0.233589 -0.060453  0.132194
  8N   2py        0.289250  0.310694 -0.283474  0.085484  0.166181 -0.364849
  8N   1dz2       0.003695 -0.001642 -0.006052  0.000007 -0.007830  0.001588
  8N   1dxz      -0.001587  0.000009  0.004083 -0.005626  0.000163  0.001826
  8N   1dyz       0.004428 -0.000044 -0.011302 -0.002081 -0.000481 -0.005121
  8N   1dx2y2    -0.004762  0.004044 -0.000255 -0.004315  0.004173  0.008211
  8N   1dxy      -0.003997  0.003390 -0.000266  0.005125  0.003513  0.006872
  9H   1s         0.039530 -0.036041 -0.012037 -0.002266 -0.034968  0.024773
  9H   2s         0.590162 -0.251271 -0.344492 -0.733492 -0.891140 -0.146817
 10H   1s        -0.014561  0.039554  0.005417 -0.037541 -0.009549  0.000503
 10H   2s         0.451360  0.473993  0.517323 -0.687208 -0.641302  0.557810
 11C   1s         0.045539  0.005723  0.014162  0.060296 -0.079617 -0.005743
 11C   2s        -0.051177  0.023404 -0.010045 -0.060138  0.095261 -0.000740
 11C   1pz       -0.076830 -0.122960 -0.117755 -0.057136  0.012094 -0.155547
 11C   1px       -0.125846 -0.010363  0.089453 -0.134832  0.072945 -0.016523
 11C   1py        0.005070 -0.029402  0.032018  0.052955 -0.085953 -0.051325
 11C   3s        -0.708642 -0.328627 -0.298277 -1.108640  1.257008  0.204341
 11C   2pz       -0.151431 -0.245400 -0.281640 -0.122390  0.060101 -0.581806
 11C   2px       -0.302511  0.077374  0.300165 -0.292784  0.373732 -0.323679
[...]
      3      -0.010573   0.016542   0.010407  -0.009995   0.000269   0.000091
      4       0.029273  -0.046444   0.002072   0.027777   0.000117  -0.000172
      5       0.036980  -0.037407  -0.001187   0.017854   0.000376  -0.003358
      6       0.039514   0.035295  -0.011938  -0.015435   0.001212   0.002181
      7       0.000781  -0.006938   0.008777   0.001584   0.000572   0.000793
      8       0.025587   0.012377  -0.003323  -0.006993  -0.002141  -0.002932
      9       0.028982  -0.024360  -0.031310   0.012981  -0.000468  -0.002763
     10      -0.083128   0.072901  -0.008798  -0.037676  -0.001057   0.007262
     11      -0.418798   0.476282   0.015377  -0.261050   0.000684  -0.005939
     12       0.143930  -0.167682  -0.037388   0.094635  -0.004616   0.002033
     13      -0.394965   0.462685   0.003363  -0.260681  -0.000810  -0.006896
     14      -0.005286   0.014389   0.000552  -0.008244  -0.004469   0.040202
     15       0.009176  -0.027750  -0.020699  -0.038907   0.001322   0.000215
     16      -0.004914  -0.003507  -0.061995  -0.033418  -0.012879  -0.015545
     17      -0.001930   0.016216   0.027205   0.027410   0.046395   0.058112
     18      -0.386016  -0.269283   0.084665   0.132732   0.004747   0.003715
     19      -0.007220   0.042117  -0.005533   0.008357  -0.002907  -0.002825
     20       0.070026   0.052038  -0.015398  -0.020925   0.027814   0.032921
     21      -0.149513  -0.093592   0.019598   0.043513  -0.015394  -0.024785
     22       0.067484   0.009056  -0.047784  -0.040904  -0.001448  -0.002097
     23      -0.356254  -0.249363   0.076364   0.127035   0.007218   0.011909
     24      -0.000881   0.002484   0.013912   0.002964  -0.002792  -0.001089
     25       0.003269  -0.008477   0.004929  -0.008188  -0.001297   0.001960
     26      -0.002317   0.004183   0.000031   0.004405  -0.000358   0.003026
     27       0.001219   0.090182   0.036625   0.094536   0.036802   0.045917
     28       0.001626   0.040442   0.180945   0.136782   0.036196   0.043757
     29       0.004079  -0.205867  -0.425720  -0.414342   0.040638   0.045686
     30      -0.044771   0.184735   0.269256   0.312781  -0.029659  -0.018429
     31       0.033443   0.119297   0.393870   0.304421   0.108288   0.136233
     32       0.009592   0.026409   0.084749   0.070900  -0.602188  -0.765075
     33      -0.003876   0.026444  -0.055696   0.050107  -0.009497   0.007949
     34      -0.009424   0.013155   0.034896  -0.000044   0.013152  -0.009137
     35      -0.001832   0.017502  -0.026867   0.026613  -0.058735   0.045663
     36      -0.003268  -0.102554   0.144569  -0.157728   0.063780  -0.048590
     37      -0.000421  -0.020764  -0.116744   0.041539  -0.004811   0.002853
     38       0.002034  -0.226309   0.424099  -0.403202  -0.050034   0.034739
     39       0.010743  -0.240374   0.457342  -0.423288   0.065569  -0.062611
     40       0.054106  -0.020022  -0.130654   0.029990  -0.125376   0.088294
     41       0.009561   0.031728  -0.086349   0.070505   0.764737  -0.602998
     42       0.070848   0.066076  -0.012504  -0.006925  -0.017122   0.016839
     43       0.149764   0.064108   0.053691  -0.058501  -0.011882   0.011916
     44      -0.363088  -0.246233  -0.091918   0.126525  -0.009703   0.009827
     45       0.305361   0.176925   0.073000  -0.106604   0.001832  -0.000504
     46       0.247861   0.202735   0.070853  -0.078585   0.006050  -0.003062
     47       0.069830   0.050274   0.018123  -0.020315  -0.034274   0.025033
     48      -0.002804   0.011227  -0.210196   0.003615  -0.008077   0.001698
     49       0.002308  -0.009817  -0.076725  -0.013242  -0.001998  -0.007542
     50      -0.001893  -0.031891  -0.000164  -0.017292   0.000325  -0.002573
                 42         43         44         45         46         47    
      0      -0.005021  -0.000303   0.033587   0.012550   0.008076  -0.014601
      1      -0.004645  -0.001299   0.044256   0.012496   0.008932  -0.015134
      2      -0.009613   0.001137  -0.034834   0.010045   0.002761  -0.007739
      3      -0.008020   0.005705   0.005047  -0.023079  -0.000201   0.007815
      4       0.022452  -0.014709  -0.014671   0.063135  -0.001605  -0.021420
      5       0.067027   0.009837   0.010467  -0.036252   0.000833   0.008371
      6       0.006422  -0.053306   0.001136  -0.017035   0.012869   0.019734
      7      -0.000255   0.012303  -0.000805   0.001534  -0.001802  -0.002264
      8      -0.009874  -0.036262   0.000995   0.009159  -0.002744  -0.005773
      9       0.120856  -0.067590  -0.059458   0.270965  -0.004021  -0.090158
     10      -0.331385   0.174626   0.173722  -0.743077   0.016438   0.247303
     11       0.100643  -0.044161  -0.043206   0.181232  -0.003849  -0.060689
     12      -0.027520  -0.000033  -0.001273   0.003484  -0.000596  -0.000092
     13       0.069943   0.001251   0.001497  -0.007915   0.000027  -0.000213
     14      -0.905702  -0.075857  -0.084195   0.257300  -0.006245  -0.047185
     15       0.000368   0.009375   0.000304   0.014795   0.033171   0.030910
     16      -0.000644   0.009999   0.000236   0.015690   0.038876   0.035119
     17       0.001554   0.006881   0.000585   0.013019   0.028710   0.024733
     18       0.012133   0.074330  -0.001262  -0.004241  -0.002796  -0.001888
     19      -0.011891  -0.093714   0.003393   0.004469   0.005189   0.004395
     20       0.080319   0.716997  -0.018417  -0.017414  -0.034755  -0.032892
     21      -0.088236   0.553598  -0.012868   0.203067  -0.149313  -0.228201
     22       0.012154  -0.049314   0.002214  -0.017554   0.015304   0.021815
     23       0.043157  -0.282179   0.007546  -0.097206   0.071935   0.109460
     24      -0.000072   0.000393  -0.000218   0.000154   0.000266   0.000271
     25       0.000203  -0.000137  -0.000359  -0.000415   0.000098  -0.000738
     26       0.000104   0.000091   0.000088  -0.000022   0.000003   0.000210
     27      -0.000720  -0.112597  -0.002443  -0.173769  -0.403249  -0.362414
     28       0.001020  -0.124958  -0.002824  -0.200130  -0.471020  -0.422407
     29      -0.000783  -0.080321  -0.002015  -0.125117  -0.292892  -0.263113
     30      -0.001347   0.001748  -0.000218   0.001619   0.002287   0.003401
     31       0.005958   0.005181   0.001065   0.008334   0.017612   0.014976
     32      -0.021219  -0.003178  -0.005102  -0.026538  -0.048438  -0.035729
     33       0.000179  -0.000376  -0.013564  -0.019697   0.049914  -0.047182
     34      -0.000727  -0.000009   0.001616   0.002247  -0.008428   0.007260
     35       0.001508   0.000555   0.007080   0.012149  -0.028590   0.025262
     36      -0.000648   0.003536   0.166390   0.241023  -0.606122   0.560209
     37       0.001308  -0.000584  -0.023481  -0.038415   0.101184  -0.092940
     38      -0.000520  -0.001948  -0.080923  -0.116159   0.292621  -0.270620
     39      -0.002819  -0.000472  -0.004850  -0.006249   0.012995  -0.012430
     40       0.005330   0.000887   0.003144   0.004938  -0.011669   0.009081
     41      -0.020902  -0.004778  -0.004699  -0.025041   0.047081  -0.034686
     42       0.062717   0.007790  -0.403176  -0.150150  -0.097356   0.172521
     43       0.068917   0.009233  -0.404063  -0.149835  -0.100393   0.175176
     44       0.044821   0.007044  -0.286434  -0.100035  -0.066317   0.116021
     45      -0.001406  -0.001339   0.006165   0.000366   0.001337  -0.001630
     46      -0.015992   0.003593  -0.115869   0.007583  -0.004859   0.001343
     47       0.075546  -0.019557   0.704018  -0.025377   0.029275  -0.015808
     48       0.000354  -0.000856   0.000133  -0.001415   0.005927  -0.003460
     49      -0.000999   0.000828   0.001197   0.004185   0.002185   0.009293
     50       0.000239  -0.000598  -0.000643  -0.002087  -0.000014  -0.002142
                  48         49         50    
      0       0.025520  -0.022149   0.000399
      1       0.019576  -0.014770  -0.000345
      2       0.055544  -0.056376   0.000246
      3       0.000619  -0.007245   0.000048
      4       0.000109   0.019665  -0.000134
      5      -0.000369  -0.027943  -0.000063
      6       0.034710   0.025767  -0.000083
      7       0.001186   0.002615  -0.000520
      8      -0.057710  -0.053675   0.000247
      9      -0.001947   0.081336  -0.000093
     10       0.000751  -0.222804   0.000252
     11      -0.000314   0.053307  -0.000204
     12       0.003568   0.005569  -0.000057
     13       0.001004  -0.013858   0.000163
     14       0.004462   0.274750   0.000595
     15      -0.004146  -0.004020   0.001018
     16      -0.004279  -0.004180   0.001339
     17      -0.007575  -0.007676  -0.001876
     18       0.061309   0.063444   0.000147
     19      -0.064199  -0.061704  -0.000230
     20       0.465231   0.470133  -0.000834
     21      -0.480294  -0.371007   0.000586
     22       0.045416   0.034249   0.001402
     23       0.225945   0.174576  -0.000268
     24      -0.000445  -0.000060  -0.024477
     25      -0.000165   0.000189   0.067208
     26       0.000008   0.000278  -0.002729
     27       0.052706   0.050911  -0.006400
     28       0.062507   0.060728  -0.005712
     29       0.039221   0.038550  -0.001774
     30       0.002267   0.001051   0.002378
     31      -0.010251  -0.012295  -0.001386
     32       0.042824   0.046963   0.003785
     33      -0.006725   0.006260  -0.001649
     34       0.000783  -0.000718   0.000368
     35       0.007785  -0.008129  -0.001869
     36       0.089622  -0.084501   0.008586
     37      -0.015625   0.015031  -0.000273
     38      -0.043871   0.042013  -0.001810
     39      -0.004903   0.007477  -0.000916
     40       0.008935  -0.010380  -0.002583
     41      -0.041081   0.048540   0.003768
     42      -0.315045   0.269512  -0.001352
     43      -0.319324   0.271901   0.000696
     44      -0.207587   0.177253  -0.000265
     45       0.003524  -0.007226   0.000028
     46       0.085999  -0.092583  -0.000268
     47      -0.457283   0.499783  -0.000834
     48      -0.000145   0.000787   0.340408
     49       0.000035  -0.002035  -0.934408
     50       0.000046   0.002881   0.075259


-----------
IR SPECTRUM
-----------

 Mode    freq (cm**-1)   T**2         TX         TY         TZ
-------------------------------------------------------------------
   6:       245.14    1.307282  (  0.383052  -1.063518  -0.171704)
   7:       250.11    0.447903  (  0.630681   0.223883  -0.004673)
   8:       401.26    1.404478  (  0.305993  -0.836280   0.781974)
   9:       435.85    7.458489  (  0.696681  -1.924207  -1.808467)
  10:       452.47    0.896817  (  0.889969   0.323685   0.000956)
  11:       549.49   19.875080  (  0.847587  -2.355567  -3.688900)
  12:       781.39   83.974418  ( -1.556181   4.317154   7.931892)
  13:       826.69    0.445498  (  0.235554  -0.624075   0.023297)
  14:       828.74    0.547657  ( -0.691231  -0.264298   0.001712)
  15:       880.61   12.334752  (  0.313462  -0.864236  -3.389630)
  16:       884.61    0.056834  ( -0.218294  -0.088502  -0.036724)
  17:       918.98    3.558642  (  0.095302  -0.252919   1.866974)
  18:       991.54    0.820007  ( -0.850207  -0.311683   0.002812)
  19:      1056.57    1.421491  ( -0.096038   0.269905   1.157333)
  20:      1069.10    1.759034  (  1.246031   0.454338   0.004314)
  21:      1073.31   10.366937  ( -0.049977   0.141884   3.216257)
  22:      1142.89   18.200140  (  4.010067   1.455836  -0.006380)
  23:      1180.29    5.438426  (  0.765061  -0.428001  -2.161000)
  24:      1180.41    3.709055  (  1.603474   0.812551   0.691150)
  25:      1195.00    5.802287  (  2.262975   0.825366  -0.001132)
  26:      1301.95    3.801428  (  0.499156  -1.398096   1.263962)
  27:      1306.68    2.567454  (  1.508367   0.540573  -0.007969)
  28:      1325.87    0.416633  ( -0.016930   0.031965   0.644457)
  29:      1363.61   19.424972  ( -4.141554  -1.507456   0.009013)
  30:      1381.00   18.195148  ( -4.007406  -1.461392   0.013378)
  31:      1398.87    0.737166  (  0.815868   0.267172  -0.012041)
  32:      1400.60    0.519772  (  0.210437  -0.654414  -0.217324)
  33:      1445.85    6.441788  ( -0.878158   2.375463   0.166745)
  34:      1499.08    2.375802  (  1.450455   0.521501   0.004387)
  35:      1507.98    0.217145  ( -0.437718  -0.159338  -0.012648)
  36:      1512.81    5.808257  ( -0.165909   0.455083  -2.360854)
  37:      1522.84    4.785339  ( -0.720219   2.034532  -0.356793)
  38:      1526.77    0.663005  ( -0.781675  -0.228010   0.000260)
  39:      1539.47    1.634766  ( -0.188766   0.468419  -1.174613)
  40:      2903.45   30.088611  ( -5.092371  -1.474248  -1.408178)
  41:      2910.79  149.730935  (  0.470276  -3.071410  11.835380)
  42:      3019.90   29.141212  ( -0.935312   2.512649   4.685403)
  43:      3039.88   19.795648  ( -4.086034   0.567783  -1.666611)
  44:      3040.21   20.135871  (  2.820626   3.142477  -1.518150)
  45:      3068.70   69.109846  ( -2.670564   7.839829   0.717647)
  46:      3071.91   95.648829  (  9.233956   3.221721   0.058354)
  47:      3074.25    7.813499  ( -0.364601   0.540358   2.718194)
  48:      3081.21   15.828828  (  3.758194   1.298105  -0.140456)
  49:      3086.93   89.267291  ( -0.057197   0.118484  -9.447221)
  50:      3496.34    2.150134  ( -0.469516   1.286456   0.524136)

The first frequency considered to be a vibration is 6
The total number of vibrations considered is 45


--------------------------
THERMOCHEMISTRY AT 298.15K
--------------------------

Temperature         ... 298.15 K
Pressure            ... 1.00 atm
Total Mass          ... 85.15 AMU

Throughout the following assumptions are being made:
  (1) The electronic state is orbitally nondegenerate
  (2) There are no thermally accessible electronically excited states
  (3) Hindered rotations indicated by low frequency modes are not
      treated as such but are treated as vibrations and this may
      cause some error
  (4) All equations used are the standard statistical mechanics
      equations for an ideal gas
  (5) All vibrations are strictly harmonic

freq.     245.14  E(vib)   ...       0.31 
freq.     250.11  E(vib)   ...       0.31 
freq.     401.26  E(vib)   ...       0.19 
freq.     435.85  E(vib)   ...       0.17 
freq.     452.47  E(vib)   ...       0.16 
freq.     549.49  E(vib)   ...       0.12 
freq.     781.39  E(vib)   ...       0.05 
freq.     826.69  E(vib)   ...       0.04 
freq.     828.74  E(vib)   ...       0.04 
freq.     880.61  E(vib)   ...       0.04 
freq.     884.61  E(vib)   ...       0.04 
freq.     918.98  E(vib)   ...       0.03 
freq.     991.54  E(vib)   ...       0.02 
freq.    1056.57  E(vib)   ...       0.02 
freq.    1069.10  E(vib)   ...       0.02 
freq.    1073.31  E(vib)   ...       0.02 
freq.    1142.89  E(vib)   ...       0.01 
freq.    1180.29  E(vib)   ...       0.01 
freq.    1180.41  E(vib)   ...       0.01 
freq.    1195.00  E(vib)   ...       0.01 
freq.    1301.95  E(vib)   ...       0.01 
freq.    1306.68  E(vib)   ...       0.01 
freq.    1325.87  E(vib)   ...       0.01 
freq.    1363.61  E(vib)   ...       0.01 
freq.    1381.00  E(vib)   ...       0.01 
freq.    1398.87  E(vib)   ...       0.00 
freq.    1400.60  E(vib)   ...       0.00 
freq.    1445.85  E(vib)   ...       0.00 
freq.    1499.08  E(vib)   ...       0.00 
freq.    1507.98  E(vib)   ...       0.00 
freq.    1512.81  E(vib)   ...       0.00 
freq.    1522.84  E(vib)   ...       0.00 
freq.    1526.77  E(vib)   ...       0.00 
freq.    1539.47  E(vib)   ...       0.00 
freq.    2903.45  E(vib)   ...       0.00 
freq.    2910.79  E(vib)   ...       0.00 
freq.    3019.90  E(vib)   ...       0.00 
freq.    3039.88  E(vib)   ...       0.00 
freq.    3040.21  E(vib)   ...       0.00 
freq.    3068.70  E(vib)   ...       0.00 
freq.    3071.91  E(vib)   ...       0.00 
freq.    3074.25  E(vib)   ...       0.00 
freq.    3081.21  E(vib)   ...       0.00 
freq.    3086.93  E(vib)   ...       0.00 
freq.    3496.34  E(vib)   ...       0.00 

------------
INNER ENERGY
------------

The inner energy is: U= E(el) + E(ZPE) + E(vib) + E(rot) + E(trans)
    E(el)   - is the total energy from the electronic structure calculation
              = E(kin-el) + E(nuc-el) + E(el-el) + E(nuc-nuc)
    E(ZPE)  - the the zero temperature vibrational energy from the frequency calculation
    E(vib)  - the the finite temperature correction to E(ZPE) due to population
              of excited vibrational states
    E(rot)  - is the rotational thermal energy
    E(trans)- is the translational thermal energy

Summary of contributions to the inner energy U:
Electronic energy                ...   -251.72415014 Eh
Zero point energy                ...      0.15986224 Eh     100.31 kcal/mol
Thermal vibrational correction   ...      0.00270191 Eh       1.70 kcal/mol
Thermal rotational correction    ...      0.00141627 Eh       0.89 kcal/mol
Thermal translational correction ...      0.00141627 Eh       0.89 kcal/mol
-----------------------------------------------------------------------
Total thermal energy                   -251.55875344 Eh


Summary of corrections to the electronic energy:
(perhaps to be used in another calculation)
Total thermal correction                  0.00553445 Eh       3.47 kcal/mol
Non-thermal (ZPE) correction              0.15986224 Eh     100.31 kcal/mol
-----------------------------------------------------------------------
Total correction                          0.16539670 Eh     103.79 kcal/mol


--------
ENTHALPY
--------

The enthalpy is H = U + kB*T
                kB is Boltzmann's constant
Total free energy                 ...   -251.55875344 Eh 
Thermal Enthalpy correction       ...      0.00094421 Eh       0.59 kcal/mol
-----------------------------------------------------------------------
Total Enthalpy                    ...   -251.55780923 Eh


Note: Rotational entropy computed according to Herzberg 
Infrared and Raman Spectra, Chapter V,1, Van Nostrand Reinhold, 1945 
Point Group:  C1, Symmetry Number:   1  
Rotational constants in cm-1:     0.150150     0.147236     0.084186 

Vibrational entropy computed according to the QRRHO of S. Grimme
Chem.Eur.J. 2012 18 9955


-------
ENTROPY
-------

The entropy contributions are T*S = T*(S(el)+S(vib)+S(rot)+S(trans))
     S(el)   - electronic entropy
     S(vib)  - vibrational entropy
     S(rot)  - rotational entropy
     S(trans)- translational entropy
The entropies will be listed as mutliplied by the temperature to get
units of energy

Electronic entropy                ...      0.00000000 Eh      0.00 kcal/mol
Vibrational entropy               ...      0.00399014 Eh      2.50 kcal/mol
Rotational entropy                ...      0.01247864 Eh      7.83 kcal/mol
Translational entropy             ...      0.01864357 Eh     11.70 kcal/mol
-----------------------------------------------------------------------
Final entropy term                ...      0.03511235 Eh     22.03 kcal/mol


-------------------
GIBBS FREE ENTHALPY
-------------------

The Gibbs free enthalpy is G = H - T*S

Total enthalpy                    ...   -251.55780923 Eh 
Total entropy correction          ...     -0.03511235 Eh    -22.03 kcal/mol
-----------------------------------------------------------------------
Final Gibbs free enthalpy         ...   -251.59292158 Eh

For completeness - the Gibbs free enthalpy minus the electronic energy
G-E(el)                           ...      0.13122856 Eh     82.35 kcal/mol


Timings for individual modules:

Sum of individual times         ...      657.529 sec (=  10.959 min)
GTO integral calculation        ...        0.483 sec (=   0.008 min)   0.1 %
SCF iterations                  ...       33.981 sec (=   0.566 min)   5.2 %
Analytical frequency calculation...      623.065 sec (=  10.384 min)  94.8 %
                             ****ORCA TERMINATED NORMALLY****
TOTAL RUN TIME: 0 days 0 hours 10 minutes 58 seconds 726 msec
