
                                 *****************
                                 * O   R   C   A *
                                 *****************

           --- An Ab Initio, DFT and Semiempirical electronic structure package ---

                  #######################################################
                  #                        -***-                        #
                  #          Department of theory and spectroscopy      #
                  #               Directorship: Frank Neese             #
                  #        Max Planck Institute fuer Kohlenforschung    #
                  #                Kaiser Wilhelm Platz 1               #
                  #                 D-45470 Muelheim/Ruhr               #
                  #                      Germany                        #
                  #                                                     #
                  #                  All rights reserved                #
                  #                        -***-                        #
                  #######################################################


                         Program Version 4.1.0  - RELEASE  -


 With contributions from (in alphabetic order):
   Daniel Aravena         : Magnetic Properties
   Michael Atanasov       : Ab Initio Ligand Field Theory
   Alexander A. Auer      : GIAO ZORA
   Ute Becker             : Parallelization
   Giovanni Bistoni       : ED, Open-shell LED
   Martin Brehm           : Molecular dynamics
   Dmytro Bykov           : SCF Hessian
   Vijay G. Chilkuri      : MRCI spin determinant printing
   Dipayan Datta          : RHF DLPNO-CCSD density
   Achintya Kumar Dutta   : EOM-CC, STEOM-CC
   Dmitry Ganyushin       : Spin-Orbit,Spin-Spin,Magnetic field MRCI
   Miquel Garcia          : C-PCM Hessian
   Yang Guo               : DLPNO-NEVPT2, CIM, IAO-localization
   Andreas Hansen         : Spin unrestricted coupled pair/coupled cluster methods
   Benjamin Helmich-Paris : CASSCF linear response (MC-RPA)
   Lee Huntington         : MR-EOM, pCC
   Robert Izsak           : Overlap fitted RIJCOSX, COSX-SCS-MP3, EOM
   Christian Kollmar      : KDIIS, OOCD, Brueckner-CCSD(T), CCSD density
   Simone Kossmann        : Meta GGA functionals, TD-DFT gradient, OOMP2, MP2 Hessian
   Martin Krupicka        : AUTO-CI
   Lucas Lang             : DCDCAS
   Dagmar Lenk            : GEPOL surface, SMD
   Dimitrios Liakos       : Extrapolation schemes; parallel MDCI
   Dimitrios Manganas     : ROCIS; embedding schemes
   Dimitrios Pantazis     : SARC Basis sets
   Taras Petrenko         : DFT Hessian,TD-DFT gradient, ASA, ECA, R-Raman, ABS, FL, XAS/XES, NRVS
   Peter Pinski           : DLPNO-MP2, DLPNO-MP2 Gradient
   Christoph Reimann      : Effective Core Potentials
   Marius Retegan         : Local ZFS, SOC
   Christoph Riplinger    : Optimizer, TS searches, QM/MM, DLPNO-CCSD(T), (RO)-DLPNO pert. Triples
   Tobias Risthaus        : Range-separated hybrids, TD-DFT gradient, RPA, STAB
   Michael Roemelt        : Restricted open shell CIS
   Masaaki Saitow         : Open-shell DLPNO
   Barbara Sandhoefer     : DKH picture change effects
   Avijit Sen             : IP-ROCIS
   Kantharuban Sivalingam : CASSCF convergence, NEVPT2, FIC-MRCI
   Bernardo de Souza      : ESD, SOC TD-DFT
   Georgi Stoychev        : AutoAux, RI-MP2 NMR
   Willem Van den Heuvel  : Paramagnetic NMR
   Boris Wezisla          : Elementary symmetry handling
   Frank Wennmohs         : Technical directorship


 We gratefully acknowledge several colleagues who have allowed us to
 interface, adapt or use parts of their codes:
   Stefan Grimme, W. Hujo, H. Kruse,             : VdW corrections, initial TS optimization,
                  C. Bannwarth                     DFT functionals, gCP, sTDA/sTD-DF
   Ed Valeev                                     : LibInt (2-el integral package), F12 methods
   Garnet Chan, S. Sharma, J. Yang, R. Olivares  : DMRG
   Ulf Ekstrom                                   : XCFun DFT Library
   Mihaly Kallay                                 : mrcc  (arbitrary order and MRCC methods)
   Andreas Klamt, Michael Diedenhofen            : otool_cosmo (COSMO solvation model)
   Jiri Pittner, Ondrej Demel                    : Mk-CCSD
   Frank Weinhold                                : gennbo (NPA and NBO analysis)
   Christopher J. Cramer and Donald G. Truhlar   : smd solvation model
   Lars Goerigk                                  : TD-DFT with DH, B97 family of functionals
   V. Asgeirsson, H. Jonsson                     : NEB implementation
   FAccTs GmbH                                   : IRC, NEB, NEB-TS, Multilevel


 Your calculation uses the libint2 library for the computation of 2-el integrals
 For citations please refer to: http://libint.valeyev.net

 This ORCA versions uses:
   CBLAS   interface :  Fast vector & matrix operations
   LAPACKE interface :  Fast linear algebra routines
   SCALAPACK package :  Parallel linear algebra routines




***************************************
The coordinates will be read from file: /Users/lailaal-madhagi/Desktop/Testing_XAS_Analysis_code/piperidine/piperidine_geom.xyz
***************************************


----- Orbital basis set information -----
Your calculation utilizes the basis: 6-31G*
   H-He, Li-Ne : W. J. Hehre, R. Ditchfield and J.A. Pople, J. Chem. Phys. 56, 2257 (1972).
                 Note: He and Ne are unpublished basis sets taken from the Gaussian program.
                 Note: Li and B from J. D. Dill and J. A. Pople, J. Chem. Phys. 62, 2921 (1975).
   Na - Ar     : M. M. Francl, W. J. Pietro, W. J. Hehre, J. S. Binkley, M. S. Gordon, 
                 D. J. DeFrees and J. A. Pople, J. Chem. Phys. 77, 3654 (1982).
   K - Zn      : V. A. Rassolov, J. A. Pople, M. A. Ratner, and T. L. Windus, J. Chem. Phys. 109, 1223 (1998).

================================================================================
                                        WARNINGS
                       Please study these warnings very carefully!
================================================================================


WARNING: Geometry Optimization
  ===> : Switching off AutoStart
         For restart on a previous wavefunction, please use MOREAD

INFO   : the flag for use of LIBINT has been found!

================================================================================
                                       INPUT FILE
================================================================================
NAME = /Users/lailaal-madhagi/Desktop/Testing_XAS_Analysis_code/piperidine//Results_dir_piperidine_geom_element_C_2019-11-27_17-36-51//GTE1_piperidine_geom_2019-11-27_17-36-58//opt.inp
|  1> ! B3LYP 6-31G* TIGHTSCF Grid3 FinalGrid5 Opt 
|  2> !NormalPrint 
|  3> %output 
|  4> Print[P_Basis] 2 
|  5> Print[P_MOS] 1 
|  6> end 
|  7> *xyzfile 0 1 /Users/lailaal-madhagi/Desktop/Testing_XAS_Analysis_code/piperidine/piperidine_geom.xyz                           ****END OF INPUT****
================================================================================

                       *****************************
                       * Geometry Optimization Run *
                       *****************************

Geometry optimization settings:
Update method            Update   .... BFGS
Choice of coordinates    CoordSys .... Z-matrix Internals
Initial Hessian          InHess   .... Almoef's Model

Convergence Tolerances:
Energy Change            TolE     ....  5.0000e-06 Eh
Max. Gradient            TolMAXG  ....  3.0000e-04 Eh/bohr
RMS Gradient             TolRMSG  ....  1.0000e-04 Eh/bohr
Max. Displacement        TolMAXD  ....  4.0000e-03 bohr
RMS Displacement         TolRMSD  ....  2.0000e-03 bohr

------------------------------------------------------------------------------
                        ORCA OPTIMIZATION COORDINATE SETUP
------------------------------------------------------------------------------

The optimization will be done in new redundant internal coordinates
Making redundant internal coordinates   ...  (new redundants) done
Evaluating the initial hessian          ...  (Almloef) done
Evaluating the coordinates              ...  done
Calculating the B-matrix                .... done
Calculating the G-matrix                .... done
Diagonalizing the G-matrix              .... done
The first mode is                       ....   53
The number of degrees of freedom        ....   45

    -----------------------------------------------------------------
                    Redundant Internal Coordinates


    -----------------------------------------------------------------
         Definition                    Initial Value    Approx d2E/dq
    -----------------------------------------------------------------
      1. B(C   1,C   0)                  1.5316         0.371442   
      2. B(C   2,C   1)                  1.5316         0.371426   
      3. B(H   3,C   1)                  1.1111         0.333295   
      4. B(H   4,C   1)                  1.1127         0.331321   
      5. B(C   5,C   2)                  1.5340         0.368107   
      6. B(H   6,C   2)                  1.1124         0.331643   
      7. B(H   7,C   2)                  1.1111         0.333272   
      8. B(N   8,C   5)                  1.4708         0.415913   
      9. B(H   9,C   5)                  1.1112         0.333085   
     10. B(H  10,C   5)                  1.1138         0.329938   
     11. B(C  11,N   8)                  1.4708         0.415910   
     12. B(C  11,C   0)                  1.5340         0.368096   
     13. B(H  12,C  11)                  1.1112         0.333096   
     14. B(H  13,C  11)                  1.1138         0.329933   
     15. B(H  14,C   0)                  1.1111         0.333271   
     16. B(H  15,C   0)                  1.1124         0.331645   
     17. B(H  16,N   8)                  1.0466         0.378253   
     18. A(C   1,C   0,H  15)          109.4763         0.319676   
     19. A(H  14,C   0,H  15)          108.4423         0.283672   
     20. A(C   1,C   0,H  14)          109.9777         0.319932   
     21. A(C  11,C   0,H  14)          110.1050         0.319459   
     22. A(C   1,C   0,C  11)          109.6599         0.362081   
     23. A(C  11,C   0,H  15)          109.1558         0.319204   
     24. A(C   0,C   1,C   2)          109.5360         0.362639   
     25. A(C   2,C   1,H   3)          110.0937         0.319933   
     26. A(C   2,C   1,H   4)          109.4032         0.319623   
     27. A(H   3,C   1,H   4)          108.2871         0.283632   
     28. A(C   0,C   1,H   4)          109.4040         0.319625   
     29. A(C   0,C   1,H   3)          110.0945         0.319935   
     30. A(C   1,C   2,C   5)          109.6596         0.362081   
     31. A(H   6,C   2,H   7)          108.4423         0.283672   
     32. A(C   5,C   2,H   7)          110.1057         0.319461   
     33. A(C   1,C   2,H   7)          109.9776         0.319929   
     34. A(C   1,C   2,H   6)          109.4760         0.319673   
     35. A(C   5,C   2,H   6)          109.1559         0.319205   
     36. A(N   8,C   5,H   9)          109.3594         0.323939   
     37. A(C   2,C   5,H   9)          108.9957         0.319431   
     38. A(C   2,C   5,N   8)          110.2234         0.366858   
     39. A(H   9,C   5,H  10)          107.9926         0.283420   
     40. A(N   8,C   5,H  10)          110.1752         0.323435   
     41. A(C   2,C   5,H  10)          110.0501         0.318937   
     42. A(C   5,N   8,C  11)          111.1415         0.372293   
     43. A(C  11,N   8,H  16)          108.6006         0.327981   
     44. A(C   5,N   8,H  16)          108.6011         0.327982   
     45. A(H  12,C  11,H  13)          107.9924         0.283421   
     46. A(N   8,C  11,H  13)          110.1750         0.323434   
     47. A(C   0,C  11,H  13)          110.0498         0.318935   
     48. A(N   8,C  11,H  12)          109.3600         0.323941   
     49. A(C   0,C  11,H  12)          108.9962         0.319432   
     50. A(C   0,C  11,N   8)          110.2231         0.366855   
     51. D(H   3,C   1,C   0,H  14)     61.0436         0.011024   
     52. D(H   3,C   1,C   0,C  11)   -177.7403         0.011024   
     53. D(H   3,C   1,C   0,H  15)    -58.0081         0.011024   
     54. D(C   2,C   1,C   0,C  11)    -56.5433         0.011024   
     55. D(C   2,C   1,C   0,H  15)     63.1888         0.011024   
     56. D(H   4,C   1,C   0,H  15)   -176.8961         0.011024   
     57. D(C   2,C   1,C   0,H  14)   -177.7595         0.011024   
     58. D(H   4,C   1,C   0,H  14)    -57.8444         0.011024   
     59. D(H   4,C   1,C   0,C  11)     63.3717         0.011024   
     60. D(H   6,C   2,C   1,H   3)     58.0088         0.011023   
     61. D(C   5,C   2,C   1,H   4)    -63.3722         0.011023   
     62. D(C   5,C   2,C   1,H   3)    177.7408         0.011023   
     63. D(C   5,C   2,C   1,C   0)     56.5434         0.011023   
     64. D(H   6,C   2,C   1,H   4)    176.8958         0.011023   
     65. D(H   7,C   2,C   1,H   4)     57.8445         0.011023   
     66. D(H   7,C   2,C   1,H   3)    -61.0425         0.011023   
     67. D(H   7,C   2,C   1,C   0)    177.7601         0.011023   
     68. D(H   6,C   2,C   1,C   0)    -63.1886         0.011023   
     69. D(H  10,C   5,C   2,H   6)   -176.6564         0.010839   
     70. D(H  10,C   5,C   2,C   1)     63.4159         0.010839   
     71. D(H   9,C   5,C   2,H   7)     60.5315         0.010839   
     72. D(N   8,C   5,C   2,H   7)   -179.4397         0.010839   
     73. D(N   8,C   5,C   2,H   6)     61.6274         0.010839   
     74. D(N   8,C   5,C   2,C   1)    -58.3003         0.010839   
     75. D(H   9,C   5,C   2,H   6)    -58.4014         0.010839   
     76. D(H  10,C   5,C   2,H   7)    -57.7236         0.010839   
     77. D(H   9,C   5,C   2,C   1)   -178.3290         0.010839   
     78. D(H  16,N   8,C   5,C   2)   -179.9931         0.014752   
     79. D(C  11,N   8,C   5,H  10)    -61.0404         0.014752   
     80. D(C  11,N   8,C   5,H   9)   -179.5895         0.014752   
     81. D(C  11,N   8,C   5,C   2)     60.6016         0.014752   
     82. D(H  16,N   8,C   5,H  10)     58.3649         0.014752   
     83. D(H  16,N   8,C   5,H   9)    -60.1842         0.014752   
     84. D(H  13,C  11,N   8,H  16)    -58.3655         0.014752   
     85. D(H  12,C  11,N   8,H  16)     60.1836         0.014752   
     86. D(H  12,C  11,N   8,C   5)    179.5892         0.014752   
     87. D(C   0,C  11,N   8,H  16)    179.9933         0.014752   
     88. D(H  13,C  11,C   0,H  15)    176.6564         0.010838   
     89. D(H  13,C  11,C   0,H  14)     57.7238         0.010838   
     90. D(H  13,C  11,C   0,C   1)    -63.4156         0.010838   
     91. D(H  12,C  11,C   0,H  15)     58.4015         0.010838   
     92. D(C   0,C  11,N   8,C   5)    -60.6011         0.014752   
     93. D(H  12,C  11,C   0,H  14)    -60.5310         0.010838   
     94. D(H  12,C  11,C   0,C   1)    178.3296         0.010838   
     95. D(N   8,C  11,C   0,H  15)    -61.6280         0.010838   
     96. D(H  13,C  11,N   8,C   5)     61.0402         0.014752   
     97. D(N   8,C  11,C   0,H  14)    179.4395         0.010838   
     98. D(N   8,C  11,C   0,C   1)     58.3001         0.010838   
    -----------------------------------------------------------------

Number of atoms                         .... 17
Number of degrees of freedom            .... 98

         *************************************************************
         *                GEOMETRY OPTIMIZATION CYCLE   1            *
         *************************************************************
---------------------------------
CARTESIAN COORDINATES (ANGSTROEM)
---------------------------------
  C      3.696050    1.887700   -0.248400
  C      2.298280    2.073660    0.349370
  C      1.345010    1.031690   -0.243320
  H      1.924850    3.098000    0.135540
  H      2.348030    1.943550    1.453290
  C      1.898630   -0.376610    0.008460
  H      1.250730    1.196270   -1.339440
  H      0.338200    1.133930    0.215340
  N      3.237150   -0.510540   -0.586190
  H      1.214780   -1.121740   -0.451930
  H      1.942340   -0.579740    1.102720
  C      4.178480    0.453470    0.003530
  H      5.179560    0.321820   -0.460490
  H      4.279780    0.271310    1.097670
  H      4.403180    2.613970    0.206560
  H      3.658260    2.072850   -1.344640
  H      3.589870   -1.478180   -0.400020

----------------------------
CARTESIAN COORDINATES (A.U.)
----------------------------
  NO LB      ZA    FRAG     MASS         X           Y           Z
   0 C     6.0000    0    12.011    6.984522    3.567236   -0.469408
   1 C     6.0000    0    12.011    4.343120    3.918649    0.660214
   2 C     6.0000    0    12.011    2.541701    1.949612   -0.459808
   3 H     1.0000    0     1.008    3.637439    5.854372    0.256133
   4 H     1.0000    0     1.008    4.437134    3.672777    2.746320
   5 C     6.0000    0    12.011    3.587891   -0.711690    0.015987
   6 H     1.0000    0     1.008    2.363537    2.260623   -2.531175
   7 H     1.0000    0     1.008    0.639105    2.142817    0.406934
   8 N     7.0000    0    14.007    6.117327   -0.964781   -1.107739
   9 H     1.0000    0     1.008    2.295602   -2.119781   -0.854024
  10 H     1.0000    0     1.008    3.670491   -1.095550    2.083839
  11 C     6.0000    0    12.011    7.896183    0.856934    0.006671
  12 H     1.0000    0     1.008    9.787950    0.608152   -0.870200
  13 H     1.0000    0     1.008    8.087612    0.512702    2.074296
  14 H     1.0000    0     1.008    8.320804    4.939687    0.390342
  15 H     1.0000    0     1.008    6.913110    3.917119   -2.541001
  16 H     1.0000    0     1.008    6.783871   -2.793355   -0.755928

--------------------------------
INTERNAL COORDINATES (ANGSTROEM)
--------------------------------
 C      0   0   0     0.000000000000     0.00000000     0.00000000
 C      1   0   0     1.531558378711     0.00000000     0.00000000
 C      2   1   0     1.531569982045   109.53597392     0.00000000
 H      2   1   3     1.111056105424   110.09450615   238.80307186
 H      2   1   3     1.112673825072   109.40398820   119.91508728
 C      3   2   1     1.534013416760   109.65963375    56.54341682
 H      3   2   1     1.112409254366   109.47604900   296.81144183
 H      3   2   1     1.111075330164   109.97762281   177.76007422
 N      6   3   2     1.470775869329   110.22342885   301.69971772
 H      6   3   2     1.111228370543   108.99574490   181.67097338
 H      6   3   2     1.113812061615   110.05007411    63.41590087
 C      9   6   3     1.470777728754   111.14153215    60.60155671
 H     12   9   6     1.111218902512   109.35998690   179.58920635
 H     12   9   6     1.113816095772   110.17502221    61.04015756
 H      1   2   3     1.111075853126   109.97773251   182.24051126
 H      1   2   3     1.112407634008   109.47626509    63.18884935
 H      9   6   3     1.046612553384   108.60111463   180.00688186

---------------------------
INTERNAL COORDINATES (A.U.)
---------------------------
 C      0   0   0     0.000000000000     0.00000000     0.00000000
 C      1   0   0     2.894225893876     0.00000000     0.00000000
 C      2   1   0     2.894247820999   109.53597392     0.00000000
 H      2   1   3     2.099591758673   110.09450615   238.80307186
 H      2   1   3     2.102648805768   109.40398820   119.91508728
 C      3   2   1     2.898865243437   109.65963375    56.54341682
 H      3   2   1     2.102148839592   109.47604900   296.81144183
 H      3   2   1     2.099628088167   109.97762281   177.76007422
 N      6   3   2     2.779363597411   110.22342885   301.69971772
 H      6   3   2     2.099917292570   108.99574490   181.67097338
 H      6   3   2     2.104799761111   110.05007411    63.41590087
 C      9   6   3     2.779367111217   111.14153215    60.60155671
 H     12   9   6     2.099899400584   109.35998690   179.58920635
 H     12   9   6     2.104807384562   110.17502221    61.04015756
 H      1   2   3     2.099629076421   109.97773251   182.24051126
 H      1   2   3     2.102145777559   109.47626509    63.18884935
 H      9   6   3     1.977811094219   108.60111463   180.00688186

---------------------
BASIS SET INFORMATION
---------------------
There are 3 groups of distinct atoms

 Group   1 Type C   : 10s4p1d contracted to 3s2p1d pattern {631/31/1}
 Group   2 Type H   : 4s contracted to 2s pattern {31}
 Group   3 Type N   : 10s4p1d contracted to 3s2p1d pattern {631/31/1}

Atom   0C    basis set group =>   1
Atom   1C    basis set group =>   1
Atom   2C    basis set group =>   1
Atom   3H    basis set group =>   2
Atom   4H    basis set group =>   2
Atom   5C    basis set group =>   1
Atom   6H    basis set group =>   2
Atom   7H    basis set group =>   2
Atom   8N    basis set group =>   3
Atom   9H    basis set group =>   2
Atom  10H    basis set group =>   2
Atom  11C    basis set group =>   1
Atom  12H    basis set group =>   2
Atom  13H    basis set group =>   2
Atom  14H    basis set group =>   2
Atom  15H    basis set group =>   2
Atom  16H    basis set group =>   2

-------------------------
BASIS SET IN INPUT FORMAT
-------------------------

 # Basis set for element : H 
 NewGTO H 
 S 3 
   1      18.7311370000      0.0334945995
   2       2.8253937000      0.2347269467
   3       0.6401217000      0.8137573184
 S 1 
   1       0.1612778000      1.0000000000
  end;

 # Basis set for element : C 
 NewGTO C 
 S 6 
   1    3047.5249000000      0.0018347002
   2     457.3695100000      0.0140373012
   3     103.9486900000      0.0688426061
   4      29.2101550000      0.2321844206
   5       9.2866630000      0.4679413416
   6       3.1639270000      0.3623120322
 S 3 
   1       7.8682724000     -0.1193324086
   2       1.8812885000     -0.1608542116
   3       0.5442493000      1.1434564826
 P 3 
   1       7.8682724000      0.0689990956
   2       1.8812885000      0.3164239798
   3       0.5442493000      0.7443082524
 S 1 
   1       0.1687144000      1.0000000000
 P 1 
   1       0.1687144000      1.0000000000
 D 1 
   1       0.8000000000      1.0000000000
  end;

 # Basis set for element : N 
 NewGTO N 
 S 6 
   1    4173.5110000000      0.0018347994
   2     627.4579000000      0.0139949958
   3     142.9021000000      0.0685869792
   4      40.2343300000      0.2322409295
   5      12.8202100000      0.4690698576
   6       4.3904370000      0.3604548906
 S 3 
   1      11.6263580000     -0.1149610229
   2       2.7162800000     -0.1691180337
   3       0.7722180000      1.1458522281
 P 3 
   1      11.6263580000      0.0675800232
   2       2.7162800000      0.3239071114
   3       0.7722180000      0.7408952549
 S 1 
   1       0.2120313000      1.0000000000
 P 1 
   1       0.2120313000      1.0000000000
 D 1 
   1       0.8000000000      1.0000000000
  end;

------------------------------------------------------------------------------
                           ORCA GTO INTEGRAL CALCULATION
------------------------------------------------------------------------------

                         BASIS SET STATISTICS AND STARTUP INFO

 # of primitive gaussian shells          ...  134
 # of primitive gaussian functions       ...  206
 # of contracted shells                  ...   58
 # of contracted basis functions         ...  106
 Highest angular momentum                ...    2
 Maximum contraction depth               ...    6
 Integral package used                   ... LIBINT
 Integral threshhold            Thresh   ...  2.500e-11
 Primitive cut-off              TCut     ...  2.500e-12


------------------------------ INTEGRAL EVALUATION ----------------------------


 * One electron integrals 
 Pre-screening matrix                    ... done
 Shell pair data                         ... done (   0.001 sec)

-------------------------------------------------------------------------------
                                 ORCA SCF
-------------------------------------------------------------------------------

------------
SCF SETTINGS
------------
Hamiltonian:
 Density Functional     Method          .... DFT(GTOs)
 Exchange Functional    Exchange        .... B88
   X-Alpha parameter    XAlpha          ....  0.666667
   Becke's b parameter  XBeta           ....  0.004200
 Correlation Functional Correlation     .... LYP
 LDA part of GGA corr.  LDAOpt          .... VWN-5
 Gradients option       PostSCFGGA      .... off
 Hybrid DFT is turned on
   Fraction HF Exchange ScalHFX         ....  0.200000
   Scaling of DF-GGA-X  ScalDFX         ....  0.720000
   Scaling of DF-GGA-C  ScalDFC         ....  0.810000
   Scaling of DF-LDA-C  ScalLDAC        ....  1.000000
   Perturbative correction              ....  0.000000
   Density functional embedding theory  .... OFF
   NL short-range parameter             ....  4.800000


General Settings:
 Integral files         IntName         .... /Users/lailaal-madhagi/Desktop/Testing_XAS_Analysis_code/piperidine//Results_dir_piperidine_geom_element_C_2019-11-27_17-36-51//GTE1_piperidine_geom_2019-11-27_17-36-58//opt
 Hartree-Fock type      HFTyp           .... RHF
 Total Charge           Charge          ....    0
 Multiplicity           Mult            ....    1
 Number of Electrons    NEL             ....   48
 Basis Dimension        Dim             ....  106
 Nuclear Repulsion      ENuc            ....    258.0364808344 Eh

Convergence Acceleration:
 DIIS                   CNVDIIS         .... on
   Start iteration      DIISMaxIt       ....    12
   Startup error        DIISStart       ....  0.200000
   # of expansion vecs  DIISMaxEq       ....     5
   Bias factor          DIISBfac        ....   1.050
   Max. coefficient     DIISMaxC        ....  10.000
 Newton-Raphson         CNVNR           .... off
 SOSCF                  CNVSOSCF        .... on
   Start iteration      SOSCFMaxIt      ....   150
   Startup grad/error   SOSCFStart      ....  0.003300
 Level Shifting         CNVShift        .... on
   Level shift para.    LevelShift      ....    0.2500
   Turn off err/grad.   ShiftErr        ....    0.0010
 Zerner damping         CNVZerner       .... off
 Static damping         CNVDamp         .... on
   Fraction old density DampFac         ....    0.7000
   Max. Damping (<1)    DampMax         ....    0.9800
   Min. Damping (>=0)   DampMin         ....    0.0000
   Turn off err/grad.   DampErr         ....    0.1000
 Fernandez-Rico         CNVRico         .... off

SCF Procedure:
 Maximum # iterations   MaxIter         ....   125
 SCF integral mode      SCFMode         .... Direct
   Integral package                     .... LIBINT
 Reset frequency        DirectResetFreq ....    20
 Integral Threshold     Thresh          ....  2.500e-11 Eh
 Primitive CutOff       TCut            ....  2.500e-12 Eh

Convergence Tolerance:
 Convergence Check Mode ConvCheckMode   .... Total+1el-Energy
 Convergence forced     ConvForced      .... 0
 Energy Change          TolE            ....  1.000e-08 Eh
 1-El. energy change                    ....  1.000e-05 Eh
 Orbital Gradient       TolG            ....  1.000e-05
 Orbital Rotation angle TolX            ....  1.000e-05
 DIIS Error             TolErr          ....  5.000e-07


Diagonalization of the overlap matrix:
Smallest eigenvalue                        ... 4.877e-03
Time for diagonalization                   ...    0.008 sec
Threshold for overlap eigenvalues          ... 1.000e-08
Number of eigenvalues below threshold      ... 0
Time for construction of square roots      ...    0.001 sec
Total time needed                          ...    0.009 sec

-------------------
DFT GRID GENERATION
-------------------

General Integration Accuracy     IntAcc      ...  4.340
Radial Grid Type                 RadialGrid  ... Gauss-Chebyshev
Angular Grid (max. acc.)         AngularGrid ... Lebedev-194
Angular grid pruning method      GridPruning ... 3 (G Style)
Weight generation scheme         WeightScheme... Becke
Basis function cutoff            BFCut       ...    1.0000e-11
Integration weight cutoff        WCut        ...    1.0000e-14
Grids for H and He will be reduced by one unit

# of grid points (after initial pruning)     ...  36534 (   0.0 sec)
# of grid points (after weights+screening)   ...  33330 (   0.1 sec)
nearest neighbour list constructed           ...    0.0 sec
Grid point re-assignment to atoms done       ...    0.0 sec
Grid point division into batches done        ...    0.0 sec
Reduced shell lists constructed in    0.2 sec

Total number of grid points                  ...    33330
Total number of batches                      ...      531
Average number of points per batch           ...       62
Average number of grid points per atom       ...     1961
Average number of shells per batch           ...    45.20 (77.94%)
Average number of basis functions per batch  ...    85.26 (80.44%)
Average number of large shells per batch     ...    36.77 (81.33%)
Average number of large basis fcns per batch ...    68.88 (80.78%)
Maximum spatial batch extension              ...  18.30, 18.14, 21.21 au
Average spatial batch extension              ...   2.87,  2.95,  3.01 au

Time for grid setup =    0.323 sec

------------------------------
INITIAL GUESS: MODEL POTENTIAL
------------------------------
Loading Hartree-Fock densities                     ... done
Calculating cut-offs                               ... done
Setting up the integral package                    ... done
Initializing the effective Hamiltonian             ... done
Starting the Coulomb interaction                   ... done (   0.1 sec)
Reading the grid                                   ... done
Mapping shells                                     ... done
Starting the XC term evaluation                    ... done (   0.2 sec)
  promolecular density results
     # of electrons  =     47.992468677
     EX              =    -35.541361550
     EC              =     -1.557687636
     EX+EC           =    -37.099049186
Transforming the Hamiltonian                       ... done (   0.0 sec)
Diagonalizing the Hamiltonian                      ... done (   0.0 sec)
Back transforming the eigenvectors                 ... done (   0.0 sec)
Now organizing SCF variables                       ... done
                      ------------------
                      INITIAL GUESS DONE (   0.7 sec)
                      ------------------
--------------
SCF ITERATIONS
--------------
               ***  Starting incremental Fock matrix formation  ***

                         ----------------------------
                         !        ITERATION     0   !
                         ----------------------------
   Total Energy        :    -251.507530144365 Eh
   Energy Change       :    -251.507530144365 Eh
   MAX-DP              :       0.076053894605
   RMS-DP              :       0.003378751115
   Actual Damping      :       0.7000
   Actual Level Shift  :       0.2500 Eh
   Int. Num. El.       :    47.99885245 (UP=   23.99942623 DN=   23.99942623)
   Exchange            :   -29.41634322
   Correlation         :    -1.86639096


                         ----------------------------
                         !        ITERATION     1   !
                         ----------------------------
   Total Energy        :    -251.608555385444 Eh
   Energy Change       :      -0.101025241079 Eh
   MAX-DP              :       0.045512060942
   RMS-DP              :       0.002500401707
   Actual Damping      :       0.7000
   Actual Level Shift  :       0.2500 Eh
   Int. Num. El.       :    47.99867816 (UP=   23.99933908 DN=   23.99933908)
   Exchange            :   -29.16209850
   Correlation         :    -1.85449967

                               ***Turning on DIIS***

                         ----------------------------
                         !        ITERATION     2   !
                         ----------------------------
   Total Energy        :    -251.647268741070 Eh
   Energy Change       :      -0.038713355626 Eh
   MAX-DP              :       0.074317549375
   RMS-DP              :       0.003994401744
   Actual Damping      :       0.0000
   Actual Level Shift  :       0.2500 Eh
   Int. Num. El.       :    47.99859010 (UP=   23.99929505 DN=   23.99929505)
   Exchange            :   -28.99574892
   Correlation         :    -1.84644324
   DIIS-Error          :       0.027618029223


                         ----------------------------
                         !        ITERATION     3   !
                         ----------------------------
   Total Energy        :    -251.704480006422 Eh
   Energy Change       :      -0.057211265351 Eh
   MAX-DP              :       0.032377176042
   RMS-DP              :       0.001758011500
   Actual Damping      :       0.0000
   Actual Level Shift  :       0.2500 Eh
   Int. Num. El.       :    47.99850045 (UP=   23.99925023 DN=   23.99925023)
   Exchange            :   -28.76309999
   Correlation         :    -1.83521576
   DIIS-Error          :       0.056376652932
   DIIS coefficients:
      0.60845   0.39155


                         ----------------------------
                         !        ITERATION     4   !
                         ----------------------------
   Total Energy        :    -251.720463288548 Eh
   Energy Change       :      -0.015983282126 Eh
   MAX-DP              :       0.009544804921
   RMS-DP              :       0.000473135874
   Actual Damping      :       0.0000
   Actual Level Shift  :       0.2500 Eh
   Int. Num. El.       :    47.99855578 (UP=   23.99927789 DN=   23.99927789)
   Exchange            :   -28.86734789
   Correlation         :    -1.84097363
   DIIS-Error          :       0.007848615578
   DIIS coefficients:
      0.20253   0.00489   0.79258

                      *** Initiating the SOSCF procedure ***
                           *** Shutting down DIIS ***
                      *** Re-Reading the Fockian *** 
                      *** Removing any level shift *** 

                         ----------------------------
                         !        ITERATION     5   !
                         ----------------------------
   Total Energy        :    -251.721095110612 Eh
   Energy Change       :      -0.000631822064 Eh
   MAX-DP              :       0.003459091309
   RMS-DP              :       0.000166130548
   Orbital gradient    :       0.000749608194
   Orbital Rotation    :       0.000749608194
   Actual Damping      :       0.0000
   Int. Num. El.       :    47.99855338 (UP=   23.99927669 DN=   23.99927669)
   Exchange            :   -28.88563142
   Correlation         :    -1.84196083

               *** Restarting incremental Fock matrix formation ***

                         ----------------------------
                         !        ITERATION     6   !
                         ----------------------------
   Total Energy        :    -251.721129381594 Eh
   Energy Change       :      -0.000034270982 Eh
   MAX-DP              :       0.001790207721
   RMS-DP              :       0.000090808821
   Orbital gradient    :       0.000379795313
   Orbital Rotation    :       0.000669382732
   Actual Damping      :       0.0000
   Int. Num. El.       :    47.99854976 (UP=   23.99927488 DN=   23.99927488)
   Exchange            :   -28.89055681
   Correlation         :    -1.84217149


                         ----------------------------
                         !        ITERATION     7   !
                         ----------------------------
   Total Energy        :    -251.721127740081 Eh
   Energy Change       :       0.000001641513 Eh
   MAX-DP              :       0.001200262857
   RMS-DP              :       0.000038542218
   Orbital gradient    :       0.000502207673
   Orbital Rotation    :       0.000308983527
   Actual Damping      :       0.0000
   Int. Num. El.       :    47.99854670 (UP=   23.99927335 DN=   23.99927335)
   Exchange            :   -28.89139752
   Correlation         :    -1.84225874


                         ----------------------------
                         !        ITERATION     8   !
                         ----------------------------
   Total Energy        :    -251.721134651284 Eh
   Energy Change       :      -0.000006911203 Eh
   MAX-DP              :       0.000206744860
   RMS-DP              :       0.000008695743
   Orbital gradient    :       0.000024921743
   Orbital Rotation    :       0.000048319004
   Actual Damping      :       0.0000
   Int. Num. El.       :    47.99854597 (UP=   23.99927299 DN=   23.99927299)
   Exchange            :   -28.89128806
   Correlation         :    -1.84222881


                         ----------------------------
                         !        ITERATION     9   !
                         ----------------------------
   Total Energy        :    -251.721134650387 Eh
   Energy Change       :       0.000000000897 Eh
   MAX-DP              :       0.000068989798
   RMS-DP              :       0.000003367384
   Orbital gradient    :       0.000034296069
   Orbital Rotation    :       0.000026292619
   Actual Damping      :       0.0000
   Int. Num. El.       :    47.99854599 (UP=   23.99927300 DN=   23.99927300)
   Exchange            :   -28.89091782
   Correlation         :    -1.84221017


                         ----------------------------
                         !        ITERATION    10   !
                         ----------------------------
   Total Energy        :    -251.721134685412 Eh
   Energy Change       :      -0.000000035025 Eh
   MAX-DP              :       0.000020033042
   RMS-DP              :       0.000001009376
   Orbital gradient    :       0.000004884807
   Orbital Rotation    :       0.000007387985
   Actual Damping      :       0.0000
   Int. Num. El.       :    47.99854605 (UP=   23.99927303 DN=   23.99927303)
   Exchange            :   -28.89110420
   Correlation         :    -1.84222044

                 **** Energy Check signals convergence ****
              ***Rediagonalizing the Fockian in SOSCF/NRSCF***

               *****************************************************
               *                     SUCCESS                       *
               *           SCF CONVERGED AFTER  11 CYCLES          *
               *****************************************************

Setting up the final grid:

General Integration Accuracy     IntAcc      ...  5.010
Radial Grid Type                 RadialGrid  ... Gauss-Chebyshev
Angular Grid (max. acc.)         AngularGrid ... Lebedev-434
Angular grid pruning method      GridPruning ... 3 (G Style)
Weight generation scheme         WeightScheme... Becke
Basis function cutoff            BFCut       ...    1.0000e-11
Integration weight cutoff        WCut        ...    1.0000e-14
Grids for H and He will be reduced by one unit

# of grid points (after initial pruning)     ... 137692 (   0.1 sec)
# of grid points (after weights+screening)   ... 124029 (   0.4 sec)
nearest neighbour list constructed           ...    0.0 sec
Grid point re-assignment to atoms done       ...    0.0 sec
Grid point division into batches done        ...    0.7 sec
Reduced shell lists constructed in    1.5 sec

Total number of grid points                  ...   124029
Total number of batches                      ...     1948
Average number of points per batch           ...       63
Average number of grid points per atom       ...     7296
Average number of shells per batch           ...    42.25 (72.85%)
Average number of basis functions per batch  ...    79.42 (74.93%)
Average number of large shells per batch     ...    33.76 (79.91%)
Average number of large basis fcns per batch ...    62.94 (79.25%)
Maximum spatial batch extension              ...  18.50, 18.60, 19.91 au
Average spatial batch extension              ...   1.94,  1.97,  1.96 au

Final grid set up in    1.9 sec
Final integration                            ... done (   1.3 sec)
Change in XC energy                          ...    -0.000166092
Integrated number of electrons               ...    47.999994582
Previous integrated no of electrons          ...    47.998546025

----------------
TOTAL SCF ENERGY
----------------

Total Energy       :         -251.72130078 Eh           -6849.68483 eV

Components:
Nuclear Repulsion  :          258.03648083 Eh            7021.52961 eV
Electronic Energy  :         -509.75778161 Eh          -13871.21444 eV
One Electron Energy:         -849.95888648 Eh          -23128.55713 eV
Two Electron Energy:          340.20110487 Eh            9257.34270 eV

Virial components:
Potential Energy   :         -501.77914334 Eh          -13654.10465 eV
Kinetic Energy     :          250.05784256 Eh            6804.41983 eV
Virial Ratio       :            2.00665229


DFT components:
N(Alpha)           :       23.999997290751 electrons
N(Beta)            :       23.999997290751 electrons
N(Total)           :       47.999994581503 electrons
E(X)               :      -28.891263662604 Eh       
E(C)               :       -1.842235301563 Eh       
E(XC)              :      -30.733498964167 Eh       
DFET-embed. en.    :        0.000000000000 Eh       

---------------
SCF CONVERGENCE
---------------

  Last Energy change         ...    1.1623e-09  Tolerance :   1.0000e-08
  Last MAX-Density change    ...    8.6872e-06  Tolerance :   1.0000e-07
  Last RMS-Density change    ...    4.2787e-07  Tolerance :   5.0000e-09
  Last Orbital Gradient      ...    3.5092e-06  Tolerance :   1.0000e-05
  Last Orbital Rotation      ...    3.2475e-06  Tolerance :   1.0000e-05

             **** THE GBW FILE WAS UPDATED (/Users/lailaal-madhagi/Desktop/Testing_XAS_Analysis_code/piperidine//Results_dir_piperidine_geom_element_C_2019-11-27_17-36-51//GTE1_piperidine_geom_2019-11-27_17-36-58//opt.gbw) ****
             **** DENSITY FILE WAS UPDATED (/Users/lailaal-madhagi/Desktop/Testing_XAS_Analysis_code/piperidine//Results_dir_piperidine_geom_element_C_2019-11-27_17-36-51//GTE1_piperidine_geom_2019-11-27_17-36-58//opt.scfp.tmp) ****
             **** ENERGY FILE WAS UPDATED (/Users/lailaal-madhagi/Desktop/Testing_XAS_Analysis_code/piperidine//Results_dir_piperidine_geom_element_C_2019-11-27_17-36-51//GTE1_piperidine_geom_2019-11-27_17-36-58//opt.en.tmp) ****
----------------
ORBITAL ENERGIES
----------------

  NO   OCC          E(Eh)            E(eV) 
   0   2.0000     -14.302756      -389.1978 
   1   2.0000     -10.191768      -277.3321 
   2   2.0000     -10.191698      -277.3302 
   3   2.0000     -10.166737      -276.6510 
   4   2.0000     -10.166490      -276.6443 
   5   2.0000     -10.166401      -276.6418 
   6   2.0000      -0.893076       -24.3018 
   7   2.0000      -0.772945       -21.0329 
   8   2.0000      -0.736141       -20.0314 
   9   2.0000      -0.619384       -16.8543 
  10   2.0000      -0.604410       -16.4468 
  11   2.0000      -0.539274       -14.6744 
  12   2.0000      -0.494217       -13.4483 
  13   2.0000      -0.439273       -11.9532 
  14   2.0000      -0.435321       -11.8457 
  15   2.0000      -0.414454       -11.2779 
  16   2.0000      -0.395269       -10.7558 
  17   2.0000      -0.386536       -10.5182 
  18   2.0000      -0.370021       -10.0688 
  19   2.0000      -0.337372        -9.1803 
  20   2.0000      -0.321548        -8.7498 
  21   2.0000      -0.300633        -8.1806 
  22   2.0000      -0.297227        -8.0880 
  23   2.0000      -0.211657        -5.7595 
  24   0.0000       0.082376         2.2416 
  25   0.0000       0.113583         3.0908 
  26   0.0000       0.129986         3.5371 
  27   0.0000       0.138919         3.7802 
  28   0.0000       0.155841         4.2407 
  29   0.0000       0.168999         4.5987 
  30   0.0000       0.177488         4.8297 
  31   0.0000       0.179738         4.8909 
  32   0.0000       0.182705         4.9717 
  33   0.0000       0.188138         5.1195 
  34   0.0000       0.189570         5.1585 
  35   0.0000       0.229129         6.2349 
  36   0.0000       0.242634         6.6024 
  37   0.0000       0.252215         6.8631 
  38   0.0000       0.270818         7.3693 
  39   0.0000       0.286048         7.7838 
  40   0.0000       0.287979         7.8363 
  41   0.0000       0.527235        14.3468 
  42   0.0000       0.547105        14.8875 
  43   0.0000       0.553807        15.0699 
  44   0.0000       0.564732        15.3671 
  45   0.0000       0.568087        15.4584 
  46   0.0000       0.598559        16.2876 
  47   0.0000       0.599150        16.3037 
  48   0.0000       0.644622        17.5411 
  49   0.0000       0.664386        18.0789 
  50   0.0000       0.681486        18.5442 
  51   0.0000       0.718601        19.5541 
  52   0.0000       0.735365        20.0103 
  53   0.0000       0.796750        21.6807 
  54   0.0000       0.819652        22.3039 
  55   0.0000       0.836525        22.7630 
  56   0.0000       0.840365        22.8675 
  57   0.0000       0.850495        23.1432 
  58   0.0000       0.850738        23.1497 
  59   0.0000       0.883401        24.0386 
  60   0.0000       0.903226        24.5780 
  61   0.0000       0.905928        24.6515 
  62   0.0000       0.934366        25.4254 
  63   0.0000       0.938116        25.5274 
  64   0.0000       0.951474        25.8909 
  65   0.0000       0.964362        26.2416 
  66   0.0000       0.973352        26.4862 
  67   0.0000       0.998522        27.1712 
  68   0.0000       1.035297        28.1719 
  69   0.0000       1.206431        32.8286 
  70   0.0000       1.225678        33.3524 
  71   0.0000       1.321763        35.9670 
  72   0.0000       1.370670        37.2978 
  73   0.0000       1.437630        39.1199 
  74   0.0000       1.444433        39.3050 
  75   0.0000       1.552054        42.2335 
  76   0.0000       1.611833        43.8602 
  77   0.0000       1.656668        45.0802 
  78   0.0000       1.720363        46.8134 
  79   0.0000       1.769281        48.1446 
  80   0.0000       1.773180        48.2507 
  81   0.0000       1.787748        48.6471 
  82   0.0000       1.903948        51.8091 
  83   0.0000       1.928970        52.4899 
  84   0.0000       1.969749        53.5996 
  85   0.0000       2.001343        54.4593 
  86   0.0000       2.015645        54.8485 
  87   0.0000       2.037643        55.4471 
  88   0.0000       2.047931        55.7270 
  89   0.0000       2.090406        56.8828 
  90   0.0000       2.149299        58.4854 
  91   0.0000       2.176335        59.2211 
  92   0.0000       2.256871        61.4126 
  93   0.0000       2.274398        61.8895 
  94   0.0000       2.363735        64.3205 
  95   0.0000       2.376821        64.6766 
  96   0.0000       2.393030        65.1177 
  97   0.0000       2.407178        65.5027 
  98   0.0000       2.427655        66.0599 
  99   0.0000       2.450733        66.6878 
 100   0.0000       2.610673        71.0400 
 101   0.0000       2.645793        71.9957 
 102   0.0000       2.687668        73.1352 
 103   0.0000       2.740971        74.5856 
 104   0.0000       2.750959        74.8574 
 105   0.0000       2.816826        76.6497 
------------------
MOLECULAR ORBITALS
------------------
                      0         1         2         3         4         5   
                 -14.30276 -10.19177 -10.19170 -10.16674 -10.16649 -10.16640
                   2.00000   2.00000   2.00000   2.00000   2.00000   2.00000
                  --------  --------  --------  --------  --------  --------
  0C   1s         0.000056  0.002448 -0.000774 -0.207675  0.455417 -0.860471
  0C   2s         0.000705 -0.001308 -0.000081 -0.006816  0.018660 -0.033359
  0C   1pz       -0.000084 -0.000046  0.000064  0.000090 -0.000051 -0.000141
  0C   1px        0.000095 -0.000019 -0.000002 -0.000270 -0.000478  0.000208
  0C   1py       -0.000434  0.000278 -0.000269  0.000055 -0.000236  0.000321
  0C   3s        -0.001564  0.009794  0.001005 -0.000691 -0.018948  0.033726
  0C   2pz       -0.000026  0.000666  0.000604 -0.000828  0.000401  0.001412
  0C   2px        0.000409  0.000775 -0.001209  0.003886  0.001954 -0.002508
  0C   2py        0.000917 -0.004923  0.000092 -0.000987  0.002897 -0.001884
  0C   1dz2       0.000004  0.000429 -0.000098 -0.000271  0.000116  0.000076
  0C   1dxz      -0.000016 -0.000071 -0.000038 -0.000594  0.000104  0.000089
  0C   1dyz      -0.000003  0.000202 -0.000164  0.000057 -0.000001 -0.000118
  0C   1dx2y2    -0.000111  0.000471 -0.000175  0.000530 -0.000028 -0.000183
  0C   1dxy      -0.000092  0.000507 -0.000038 -0.000257 -0.000086  0.000022
  1C   1s        -0.000094 -0.000417  0.000720 -0.937824  0.142601  0.301840
  1C   2s        -0.000769 -0.000627  0.001082 -0.036089  0.005980  0.013034
  1C   1pz       -0.000170  0.000007 -0.000010  0.000075 -0.000083 -0.000231
  1C   1px       -0.000060 -0.000386 -0.000093 -0.000154 -0.000162  0.000208
  1C   1py        0.000165  0.000036 -0.000338  0.000399 -0.000222 -0.000342
  1C   3s         0.002738  0.001540 -0.002656  0.031663 -0.008634 -0.021198
  1C   2pz        0.000305  0.000112 -0.000192 -0.001040  0.000653  0.001792
  1C   2px        0.000864  0.000073 -0.000666  0.001043  0.004259 -0.002877
  1C   2py       -0.002372 -0.000929  0.001405 -0.002279  0.002998  0.002813
  1C   1dz2       0.000027 -0.000054  0.000093 -0.000132 -0.000123 -0.000363
  1C   1dxz      -0.000038  0.000008 -0.000010 -0.000067  0.000591 -0.000339
  1C   1dyz       0.000106 -0.000017  0.000030  0.000261  0.000330  0.000244
  1C   1dx2y2    -0.000079 -0.000099  0.000074  0.000154 -0.000248  0.000558
  1C   1dxy      -0.000066  0.000002  0.000112  0.000162  0.000582  0.000195
  2C   1s         0.000056 -0.000548 -0.002521 -0.261284 -0.873725 -0.399097
  2C   2s         0.000705  0.000720  0.001094 -0.008970 -0.034746 -0.014820
  2C   1pz       -0.000084 -0.000032  0.000071  0.000089 -0.000050 -0.000140
  2C   1px        0.000206 -0.000070  0.000229  0.000125 -0.000644  0.000037
  2C   1py       -0.000394  0.000066 -0.000296  0.000209 -0.000045  0.000171
  2C   3s        -0.001564 -0.005739 -0.008000  0.001515  0.035738  0.014743
  2C   2pz       -0.000023 -0.000849 -0.000276 -0.000808  0.000601  0.001333
  2C   2px       -0.000903 -0.002034 -0.001803 -0.002018  0.004736  0.000328
  2C   2py        0.000440  0.001384  0.004125 -0.003311 -0.000415  0.000648
  2C   1dz2       0.000004 -0.000128 -0.000421 -0.000280 -0.000025  0.000125
  2C   1dxz       0.000015 -0.000079  0.000133  0.000421  0.000036 -0.000031
  2C   1dyz       0.000008 -0.000012 -0.000225  0.000422 -0.000069 -0.000146
  2C   1dx2y2    -0.000109 -0.000230 -0.000538 -0.000153  0.000076 -0.000067
  2C   1dxy      -0.000093 -0.000044 -0.000409  0.000564 -0.000145 -0.000139
  3H   1s         0.000081 -0.000052  0.000090  0.000480  0.000090  0.000316
  3H   2s         0.000896  0.000506 -0.000873 -0.004521  0.000606  0.001219
  4H   1s        -0.000395 -0.000115  0.000199  0.000321  0.000203  0.000623
  4H   2s        -0.000403 -0.000445  0.000768 -0.005627  0.000807  0.001672
  5C   1s         0.000025 -0.256044 -0.961938  0.000308  0.002406  0.001187
  5C   2s         0.000903 -0.011288 -0.036609  0.001152  0.001288 -0.000099
  5C   1pz        0.000090 -0.000134  0.000157  0.000103 -0.000044 -0.000214
  5C   1px       -0.000302 -0.000407 -0.000618 -0.000072 -0.000028  0.000040
  5C   1py        0.000121 -0.000234 -0.000344  0.000435  0.000157  0.000089
  5C   3s        -0.008059  0.014275  0.032152 -0.004235 -0.009349 -0.000397
  5C   2pz        0.000405  0.000831 -0.000307 -0.000551  0.000647  0.000388
  5C   2px       -0.004273  0.002706  0.000191 -0.000338  0.000823  0.001837
  5C   2py        0.000323  0.002989  0.003006 -0.002264 -0.004217 -0.000166
  5C   1dz2      -0.000067 -0.000093  0.000037 -0.000060 -0.000431 -0.000210
  5C   1dxz      -0.000476 -0.000004  0.000029 -0.000000  0.000100  0.000001
  5C   1dyz       0.000153 -0.000022 -0.000098 -0.000112 -0.000192 -0.000190
  5C   1dx2y2     0.000269  0.000013 -0.000221 -0.000136 -0.000385 -0.000193
  5C   1dxy      -0.000108  0.000124 -0.000013 -0.000247 -0.000515 -0.000088
  6H   1s         0.000159  0.000337  0.000529  0.000546 -0.000136  0.000147
  6H   2s         0.000168 -0.000332 -0.000258 -0.001452 -0.005476 -0.001647
  7H   1s         0.000109  0.000162  0.000364  0.000442  0.000224  0.000057
  7H   2s        -0.000647 -0.000032 -0.000387 -0.001555 -0.003720 -0.002903
  8N   1s        -0.995365  0.000044 -0.000077 -0.000026  0.000021  0.000057
  8N   2s        -0.033045 -0.000077  0.000133 -0.000171  0.000314  0.000885
  8N   1pz       -0.001925 -0.000059  0.000105  0.000087  0.000016  0.000056
  8N   1px        0.000015 -0.000395 -0.000321 -0.000039 -0.000263 -0.000038
  8N   1py       -0.000052 -0.000268  0.000097  0.000079  0.000026  0.000347
  8N   3s         0.026592  0.002070 -0.003571  0.001841 -0.000845 -0.002220
  8N   2pz        0.005569 -0.000167  0.000274  0.000463 -0.000266 -0.000713
  8N   2px       -0.000703  0.002794  0.001862 -0.000240 -0.000105  0.000795
  8N   2py        0.001965  0.001343  0.000116  0.000619 -0.000796 -0.001812
  8N   1dz2      -0.000176  0.000219 -0.000371  0.000091  0.000051  0.000156
  8N   1dxz      -0.000100 -0.000678 -0.000653 -0.000034  0.000012  0.000019
  8N   1dyz       0.000273 -0.000591  0.000359  0.000096 -0.000022 -0.000055
  8N   1dx2y2     0.000026  0.000105  0.000853 -0.000015  0.000077  0.000148
  8N   1dxy       0.000022 -0.000827  0.000187 -0.000014  0.000020  0.000140
  9H   1s         0.000340  0.000100  0.000416  0.000141  0.000361  0.000131
  9H   2s         0.000125 -0.000232 -0.004758 -0.000873 -0.000050  0.000555
 10H   1s         0.000661 -0.000417  0.000236  0.000315  0.000571 -0.000098
 10H   2s         0.000788 -0.002471 -0.005479  0.000684 -0.000301 -0.000307
 11C   1s         0.000025  0.962023 -0.255724  0.000163 -0.001165  0.002418
 11C   2s         0.000902  0.037378 -0.008393  0.001053 -0.001151  0.000747
 11C   1pz        0.000089 -0.000065  0.000194  0.000101 -0.000106 -0.000193
 11C   1px        0.000154 -0.000832 -0.000056 -0.000220  0.000023 -0.000125
 11C   1py        0.000287 -0.000157 -0.000005  0.000370 -0.000109  0.000128
 11C   3s        -0.008060 -0.034995  0.003586 -0.003560  0.007372 -0.006201
 11C   2pz        0.000390 -0.000160 -0.000884 -0.000591 -0.000220  0.000695
 11C   2px        0.003067  0.003788  0.002430  0.001525 -0.002557  0.000312
 11C   2py        0.002995 -0.002165  0.000605 -0.001275  0.002239 -0.003389
 11C   1dz2      -0.000070  0.000014  0.000099 -0.000034  0.000211 -0.000433
 11C   1dxz       0.000266 -0.000045  0.000006  0.000073  0.000033  0.000125
 11C   1dyz       0.000422  0.000088 -0.000034 -0.000074  0.000082 -0.000249
 11C   1dx2y2    -0.000060 -0.000018 -0.000134 -0.000228  0.000394 -0.000456
 11C   1dxy       0.000286  0.000192 -0.000100 -0.000074  0.000126 -0.000320
 12H   1s         0.000340 -0.000411  0.000120  0.000118 -0.000211  0.000330
 12H   2s         0.000125  0.004244 -0.002162 -0.000853  0.000446  0.000383
 13H   1s         0.000661  0.000002  0.000479  0.000271 -0.000530  0.000284
 13H   2s         0.000788  0.005983 -0.000578  0.000696 -0.000004 -0.000410
 14H   1s         0.000109 -0.000396  0.000041  0.000426 -0.000171  0.000195
 14H   2s        -0.000647  0.000352 -0.000165 -0.001356  0.001227 -0.004620
 15H   1s         0.000159 -0.000627 -0.000030  0.000558  0.000158  0.000045
 15H   2s         0.000168  0.000389  0.000161 -0.001095  0.003370 -0.004717
 16H   1s        -0.000435 -0.000144  0.000248 -0.000012  0.000002  0.000004
 16H   2s        -0.002883  0.000305 -0.000526 -0.000171 -0.000380 -0.001116
                      6         7         8         9        10        11   
                  -0.89308  -0.77294  -0.73614  -0.61938  -0.60441  -0.53927
                   2.00000   2.00000   2.00000   2.00000   2.00000   2.00000
                  --------  --------  --------  --------  --------  --------
  0C   1s        -0.040304 -0.100829  0.100084 -0.032121 -0.097398 -0.066885
  0C   2s         0.074861  0.191121 -0.190950  0.065063  0.194413  0.131188
  0C   1pz        0.004776  0.021128 -0.008043 -0.021148 -0.005071 -0.120919
  0C   1px       -0.007244 -0.051223 -0.029620  0.108898 -0.006752  0.033682
  0C   1py       -0.032396  0.004877  0.038776 -0.076090  0.082722  0.051519
  0C   3s         0.052810  0.148801 -0.165034  0.052972  0.180429  0.161559
  0C   2pz        0.000543  0.001840  0.002084 -0.008874 -0.003183 -0.045517
  0C   2px       -0.000903 -0.008662 -0.010910  0.036158  0.002220  0.004013
  0C   2py       -0.004900  0.005261  0.007225 -0.017396  0.036185  0.010775
  0C   1dz2      -0.002213 -0.000439  0.000544  0.000260  0.005547  0.006058
  0C   1dxz      -0.000288 -0.002595 -0.001900  0.006323  0.001344  0.005743
  0C   1dyz      -0.000749  0.000385  0.000766 -0.002562  0.002612  0.002087
  0C   1dx2y2    -0.002572  0.005412  0.004669 -0.008221  0.003103 -0.000553
  0C   1dxy      -0.000699  0.001031  0.001614 -0.000390  0.005823  0.005707
  1C   1s        -0.031041 -0.134387  0.000031  0.115709  0.000066  0.066612
  1C   2s         0.056023  0.253457 -0.000099 -0.229109 -0.000098 -0.131836
  1C   1pz       -0.009824 -0.027063  0.000170 -0.021566 -0.000298 -0.137634
  1C   1px        0.007116  0.011493 -0.076399  0.020199  0.130387  0.007880
  1C   1py       -0.019606 -0.031806 -0.027806 -0.055819  0.047427 -0.022406
  1C   3s         0.040691  0.208762  0.000111 -0.212038 -0.000308 -0.158826
  1C   2pz       -0.000723 -0.003185  0.000021 -0.014742 -0.000065 -0.048642
  1C   2px        0.002723  0.002226 -0.019425  0.008944  0.038438 -0.000640
  1C   2py       -0.007462 -0.006153 -0.007153 -0.024857  0.014064  0.001209
  1C   1dz2      -0.001087 -0.001048 -0.000020 -0.003744  0.000027 -0.004995
  1C   1dxz      -0.000483 -0.000431  0.005234 -0.001457 -0.007533 -0.002150
  1C   1dyz       0.001316  0.001169  0.001890  0.003956 -0.002728  0.005822
  1C   1dx2y2    -0.000203  0.000632 -0.005024  0.003904  0.004357  0.005923
  1C   1dxy      -0.000167  0.000535  0.006008  0.003294 -0.005221  0.004992
  2C   1s        -0.040310 -0.100897 -0.100041 -0.032248  0.097345 -0.066862
  2C   2s         0.074844  0.191174  0.190835  0.065265 -0.194316  0.131176
  2C   1pz        0.004703  0.020949  0.008090 -0.020848  0.004954 -0.120742
  2C   1px        0.026402  0.036176  0.002270 -0.034598  0.048004 -0.059391
  2C   1py       -0.020144  0.036701 -0.048737 -0.128264 -0.067885  0.017685
  2C   3s         0.052926  0.149140  0.165036  0.053386 -0.180212  0.161270
  2C   2pz        0.000579  0.001807 -0.002078 -0.008798  0.003206 -0.045636
  2C   2px        0.003866  0.003342 -0.003804 -0.016624  0.025038 -0.010331
  2C   2py       -0.003212  0.009454 -0.012739 -0.036702 -0.026184  0.005509
  2C   1dz2      -0.002219 -0.000458 -0.000531  0.000302 -0.005565  0.006109
  2C   1dxz       0.000697  0.001725 -0.000956 -0.003180  0.002701 -0.005729
  2C   1dyz      -0.000390  0.001940 -0.001807 -0.006006 -0.001154 -0.002073
  2C   1dx2y2    -0.001130  0.001949 -0.002408 -0.001807 -0.006256  0.005506
  2C   1dxy      -0.002416  0.005152 -0.004340 -0.008060 -0.002046 -0.001553
  3H   1s         0.010475  0.069853 -0.000022 -0.107398 -0.000059 -0.053820
  3H   2s         0.002737  0.012311  0.000020 -0.041134 -0.000040 -0.027806
  4H   1s         0.013715  0.071523 -0.000024 -0.089498 -0.000047 -0.122804
  4H   2s         0.001129  0.012431 -0.000021 -0.029170  0.000001 -0.069496
  5C   1s        -0.087854 -0.007435 -0.111685 -0.081332 -0.083177  0.054216
  5C   2s         0.167038  0.012699  0.217714  0.161510  0.169611 -0.106959
  5C   1pz       -0.026647  0.013889 -0.012665  0.023597 -0.002778 -0.115766
  5C   1px        0.074943 -0.058554 -0.023808 -0.096316  0.037725  0.009234
  5C   1py        0.006369  0.060541  0.027439  0.032709 -0.101377  0.050884
  5C   3s         0.092122  0.021910  0.176408  0.163794  0.153419 -0.132082
  5C   2pz        0.001711  0.002297  0.008862  0.012210  0.010021 -0.043398
  5C   2px        0.000638 -0.006833 -0.008812 -0.026530  0.005551 -0.004802
  5C   2py       -0.000987  0.016141  0.001216  0.008799 -0.042923  0.009474
  5C   1dz2      -0.004302 -0.000517 -0.000360  0.003138  0.005079 -0.006712
  5C   1dxz      -0.006083  0.004234  0.000968  0.006785 -0.001605 -0.004086
  5C   1dyz       0.000635 -0.001888 -0.000076 -0.001882  0.003529 -0.002122
  5C   1dx2y2     0.007902 -0.009228 -0.003426 -0.005911  0.004745  0.000300
  5C   1dxy      -0.000726 -0.000325 -0.001928  0.003959  0.005249 -0.006336
  6H   1s         0.017953  0.053323  0.055471  0.025810 -0.080130  0.117095
  6H   2s         0.001615  0.008304  0.009144  0.007499 -0.028836  0.062268
  7H   1s         0.013954  0.052715  0.061028  0.028463 -0.093963  0.058277
  7H   2s        -0.001265  0.009738  0.012828  0.010451 -0.036745  0.031304
  8N   1s        -0.161503  0.079729 -0.000029  0.072773  0.000038 -0.044032
  8N   2s         0.332258 -0.168354  0.000088 -0.160375 -0.000071  0.096267
  8N   1pz        0.083906 -0.034838  0.000252 -0.007647  0.000352 -0.061150
  8N   1px       -0.004136 -0.015302 -0.112233 -0.039057 -0.164823  0.016429
  8N   1py        0.011872  0.041744 -0.040882  0.107456 -0.059931 -0.045388
  8N   3s         0.335024 -0.187594 -0.000053 -0.196006 -0.000171  0.141423
  8N   2pz        0.044237 -0.020235  0.000084 -0.007943  0.000144 -0.026500
  8N   2px       -0.000972 -0.005659 -0.043952 -0.018373 -0.070644  0.006437
  8N   2py        0.003073  0.015394 -0.016045  0.050691 -0.025689 -0.017815
  8N   1dz2      -0.007725  0.003147  0.000039  0.003525  0.000050 -0.007897
  8N   1dxz      -0.000921 -0.000925 -0.009528 -0.002479 -0.011888  0.001410
  8N   1dyz       0.002465  0.002555 -0.003457  0.006809 -0.004318 -0.003903
  8N   1dx2y2    -0.001337  0.001811  0.004248  0.007285  0.001710 -0.005468
  8N   1dxy      -0.001107  0.001524 -0.005101  0.006137 -0.002075 -0.004598
  9H   1s         0.033391  0.001412  0.070217  0.072378  0.082083 -0.042011
  9H   2s         0.003086  0.000576  0.016672  0.028376  0.031590 -0.022344
 10H   1s         0.037808  0.005206  0.061744  0.065429  0.068757 -0.106812
 10H   2s         0.002312  0.001175  0.007774  0.021836  0.020505 -0.062527
 11C   1s        -0.087869 -0.007386  0.111703 -0.081424  0.083073  0.054197
 11C   2s         0.167039  0.012585 -0.217702  0.161629 -0.169413 -0.106858
 11C   1pz       -0.026365  0.013760  0.012715  0.023276  0.002802 -0.115686
 11C   1px       -0.061597  0.005963 -0.000553  0.052862 -0.036234 -0.040245
 11C   1py       -0.043350  0.084018 -0.036341  0.086876  0.102041  0.032898
 11C   3s         0.092212  0.022023 -0.176568  0.164124 -0.153126 -0.132149
 11C   2pz        0.001791  0.002257 -0.008951  0.012272 -0.010051 -0.043469
 11C   2px        0.000140 -0.005105 -0.006073  0.014792 -0.023386 -0.002551
 11C   2py       -0.001091  0.016859 -0.006803  0.023998  0.036433  0.010209
 11C   1dz2      -0.004338 -0.000496  0.000349  0.003188 -0.005079 -0.006746
 11C   1dxz       0.004207 -0.002014  0.000691 -0.003974  0.001033  0.004476
 11C   1dyz       0.004353 -0.004139  0.000685 -0.005773 -0.003746  0.000974
 11C   1dx2y2     0.000663 -0.001922  0.002501  0.002871 -0.005979 -0.006173
 11C   1dxy       0.007924 -0.009055  0.003063 -0.006541 -0.003777  0.001409
 12H   1s         0.033403  0.001374 -0.070227  0.072463 -0.082009 -0.041999
 12H   2s         0.003092  0.000531 -0.016672  0.028407 -0.031560 -0.022337
 13H   1s         0.037800  0.005182 -0.061738  0.065485 -0.068663 -0.106790
 13H   2s         0.002301  0.001181 -0.007766  0.021842 -0.020510 -0.062599
 14H   1s         0.013956  0.052677 -0.061058  0.028365  0.093993  0.058277
 14H   2s        -0.001246  0.009745 -0.012879  0.010432  0.036774  0.031315
 15H   1s         0.017956  0.053311 -0.055505  0.025717  0.080186  0.117111
 15H   2s         0.001585  0.008279 -0.009119  0.007481  0.028817  0.062195
 16H   1s         0.092066 -0.071001  0.000033 -0.110529 -0.000066  0.057915
 16H   2s         0.001882 -0.010711 -0.000016 -0.036743 -0.000022  0.027294
                     12        13        14        15        16        17   
                  -0.49422  -0.43927  -0.43532  -0.41445  -0.39527  -0.38654
                   2.00000   2.00000   2.00000   2.00000   2.00000   2.00000
                  --------  --------  --------  --------  --------  --------
  0C   1s        -0.013048  0.035972  0.009603  0.002459  0.006309  0.007469
  0C   2s         0.024611 -0.072478 -0.019473 -0.006012 -0.011863 -0.015621
  0C   1pz        0.014554 -0.127486  0.193967  0.089236  0.011118 -0.104231
  0C   1px        0.105915 -0.069892  0.018122  0.115173  0.160054  0.168227
  0C   1py        0.115680 -0.032776  0.003791 -0.055274  0.141524 -0.088950
  0C   3s         0.045420 -0.095245 -0.037950 -0.006639 -0.026226 -0.025146
  0C   2pz        0.014098 -0.059246  0.086792  0.040362  0.002120 -0.057130
  0C   2px        0.047662 -0.035432 -0.001307  0.043466  0.056433  0.076816
  0C   2py        0.039904 -0.015068 -0.004876 -0.029900  0.080498 -0.040872
  0C   1dz2       0.001269 -0.000244 -0.007087 -0.002816 -0.000171  0.001222
  0C   1dxz       0.003612 -0.002511  0.002370 -0.003523  0.006119  0.004743
  0C   1dyz       0.002987  0.000716 -0.001209  0.006278  0.005685 -0.003013
  0C   1dx2y2     0.001386  0.001733  0.001334 -0.004002 -0.005957 -0.000554
  0C   1dxy      -0.001526 -0.011495  0.000908  0.001444  0.003424 -0.002323
  1C   1s        -0.001152 -0.036511  0.000005 -0.006368  0.021719  0.000018
  1C   2s         0.002072  0.074674  0.000003  0.012268 -0.042309 -0.000066
  1C   1pz        0.035106 -0.092888 -0.000260  0.259697  0.050938  0.000489
  1C   1px       -0.039539 -0.064038  0.059925  0.016189 -0.093234 -0.229025
  1C   1py        0.108816  0.175441  0.021835 -0.042812  0.256897 -0.083131
  1C   3s         0.004113  0.095542  0.000031  0.021565 -0.074226 -0.000010
  1C   2pz        0.007883 -0.040162 -0.000099  0.126869  0.030323  0.000174
  1C   2px       -0.016850 -0.030109  0.027092  0.004885 -0.041919 -0.096566
  1C   2py        0.046405  0.082113  0.009936 -0.012337  0.115558 -0.035138
  1C   1dz2      -0.000679 -0.000307 -0.000023  0.009553 -0.005531 -0.000025
  1C   1dxz       0.001647  0.000458  0.005036  0.001061  0.002681  0.004670
  1C   1dyz      -0.004548 -0.001174  0.001843 -0.002828 -0.007407  0.001684
  1C   1dx2y2     0.002375 -0.009445  0.002365  0.001359 -0.003413 -0.003515
  1C   1dxy       0.001981 -0.007925 -0.002803  0.001126 -0.002892  0.004204
  2C   1s        -0.013053  0.035977 -0.009592  0.002438  0.006331 -0.007460
  2C   2s         0.024616 -0.072434  0.019425 -0.006016 -0.011863  0.015701
  2C   1pz        0.015081 -0.127898 -0.194161  0.089307  0.011812  0.103730
  2C   1px       -0.155445  0.074135  0.015667 -0.052262 -0.213871  0.071658
  2C   1py        0.020530  0.019636  0.008650 -0.116269  0.005368  0.176487
  2C   3s         0.045531 -0.095519  0.037829 -0.006446 -0.026242  0.024790
  2C   2pz        0.014286 -0.059583 -0.086937  0.040379  0.002274  0.056998
  2C   2px       -0.062256  0.036514 -0.004495 -0.013946 -0.095205  0.032672
  2C   2py       -0.000148  0.011072  0.002840 -0.050704  0.025183  0.080881
  2C   1dz2       0.001304 -0.000251  0.007085 -0.002812 -0.000118 -0.001251
  2C   1dxz      -0.004681  0.001492  0.001086 -0.001349 -0.008358  0.001663
  2C   1dyz      -0.000044  0.002125  0.002459  0.007094  0.000442  0.005363
  2C   1dx2y2    -0.001291 -0.011021 -0.001117  0.000714  0.002308  0.002389
  2C   1dxy       0.001622  0.003707 -0.001141 -0.004165 -0.006474  0.000151
  3H   1s         0.055848  0.152147  0.000025 -0.052063  0.142814  0.000125
  3H   2s         0.036197  0.106047 -0.000028 -0.046793  0.128082  0.000155
  4H   1s         0.013106 -0.034260 -0.000078  0.161553 -0.010304 -0.000044
  4H   2s         0.014293 -0.036043 -0.000048  0.114868 -0.002999 -0.000068
  5C   1s        -0.005422 -0.032642  0.011120  0.004143 -0.003459 -0.001552
  5C   2s         0.012621  0.067442 -0.021320 -0.005440  0.006629  0.002782
  5C   1pz        0.035068 -0.140381 -0.242902 -0.194043  0.011764  0.009822
  5C   1px       -0.147244 -0.065033  0.075400 -0.074764  0.128685  0.258633
  5C   1py       -0.142336 -0.110653 -0.034091  0.053448  0.005932 -0.027467
  5C   3s         0.001975  0.096628 -0.027506 -0.015764  0.022897  0.016335
  5C   2pz        0.006457 -0.057099 -0.101050 -0.086058  0.006835  0.003633
  5C   2px       -0.057310 -0.030997  0.040249 -0.038429  0.037432  0.118424
  5C   2py       -0.070789 -0.046452 -0.016421  0.028128  0.021690 -0.021334
  5C   1dz2       0.003096 -0.000223 -0.008903 -0.008078  0.000138  0.002234
  5C   1dxz       0.007344  0.002050 -0.003844 -0.004461 -0.005328 -0.013680
  5C   1dyz       0.005494  0.001164  0.002022  0.005756 -0.003686  0.002120
  5C   1dx2y2    -0.003728 -0.000222  0.004628 -0.000978  0.013308  0.004470
  5C   1dxy      -0.005371  0.012002 -0.000758  0.001606 -0.000315 -0.006916
  6H   1s         0.011863  0.037968  0.117416 -0.063925 -0.001317 -0.043457
  6H   2s         0.011517  0.035255  0.077392 -0.048739 -0.001668 -0.032826
  7H   1s         0.089100 -0.103917 -0.046016  0.042640  0.121245  0.003931
  7H   2s         0.054936 -0.070144 -0.043380  0.039471  0.106370 -0.000271
  8N   1s         0.008294  0.009635  0.000008 -0.030827 -0.019736 -0.000030
  8N   2s        -0.023839 -0.019362  0.000000  0.070280  0.047358  0.000047
  8N   1pz       -0.037372 -0.074859  0.000537 -0.145942  0.095587  0.000700
  8N   1px        0.102300 -0.044125 -0.202233 -0.024460 -0.088595 -0.287968
  8N   1py       -0.281351  0.120742 -0.073635  0.065939  0.244675 -0.104588
  8N   3s        -0.007820 -0.042966 -0.000079  0.108393  0.081116  0.000267
  8N   2pz       -0.008374 -0.050277  0.000204 -0.088646  0.057777  0.000389
  8N   2px        0.048195 -0.022688 -0.087210 -0.010188 -0.045144 -0.139174
  8N   2py       -0.132223  0.061934 -0.031820  0.027272  0.124408 -0.050499
  8N   1dz2      -0.005017 -0.005904  0.000021 -0.013250  0.009842  0.000068
  8N   1dxz       0.005421 -0.001356 -0.002703 -0.001035 -0.004090 -0.015937
  8N   1dyz      -0.014914  0.003588 -0.000982  0.002694  0.011305 -0.005789
  8N   1dx2y2    -0.002490  0.009465  0.001099  0.001654  0.007673 -0.000164
  8N   1dxy      -0.002123  0.007954 -0.001327  0.001395  0.006467  0.000153
  9H   1s         0.093969  0.131403  0.032870  0.050146 -0.053097 -0.095655
  9H   2s         0.056230  0.092935  0.029686  0.043677 -0.046247 -0.087794
 10H   1s         0.035087 -0.039670 -0.140681 -0.126557  0.011526  0.015148
 10H   2s         0.029632 -0.043795 -0.105173 -0.103522  0.010013  0.009196
 11C   1s        -0.005414 -0.032641 -0.011101  0.004125 -0.003484  0.001551
 11C   2s         0.012568  0.067504  0.021125 -0.005334  0.006587 -0.002818
 11C   1pz        0.034356 -0.140793  0.242919 -0.193982  0.012247 -0.010807
 11C   1px        0.204452  0.120464  0.036568  0.022256 -0.102820  0.180194
 11C   1py       -0.014284 -0.043152  0.074785  0.088820 -0.078353  0.187158
 11C   3s         0.001996  0.096511  0.027812 -0.015793  0.023295 -0.016241
 11C   2pz        0.006285 -0.057330  0.101087 -0.086060  0.006885 -0.003985
 11C   2px        0.089691  0.053463  0.020559  0.011209 -0.042897  0.077094
 11C   2py       -0.017203 -0.015751  0.038661  0.046107 -0.007517  0.092603
 11C   1dz2       0.003164 -0.000207  0.008931 -0.008084  0.000093 -0.002148
 11C   1dxz      -0.009122 -0.002361 -0.001575 -0.000345  0.006453 -0.009137
 11C   1dyz      -0.000515 -0.000399 -0.003993  0.007267  0.000571 -0.010397
 11C   1dx2y2    -0.005973  0.011775 -0.000058  0.001408  0.001998  0.006021
 11C   1dxy      -0.002767 -0.002299 -0.004703 -0.001219  0.013183 -0.005636
 12H   1s         0.093967  0.131441 -0.033052  0.050162 -0.053367  0.095572
 12H   2s         0.056146  0.092956 -0.029850  0.043623 -0.046503  0.087669
 13H   1s         0.035094 -0.039674  0.140786 -0.126354  0.011514 -0.015179
 13H   2s         0.029573 -0.043798  0.105350 -0.103529  0.009992 -0.009249
 14H   1s         0.089108 -0.103890  0.045946  0.042740  0.121098 -0.003689
 14H   2s         0.055017 -0.070121  0.043325  0.039641  0.106276  0.000515
 15H   1s         0.011843  0.037905 -0.117357 -0.064115 -0.001364  0.043471
 15H   2s         0.011537  0.035198 -0.077268 -0.048825 -0.001690  0.032862
 16H   1s         0.158339 -0.093855  0.000008 -0.028481 -0.146289 -0.000135
 16H   2s         0.097931 -0.059220 -0.000030 -0.025891 -0.124196 -0.000126
                     18        19        20        21        22        23   
                  -0.37002  -0.33737  -0.32155  -0.30063  -0.29723  -0.21166
                   2.00000   2.00000   2.00000   2.00000   2.00000   2.00000
                  --------  --------  --------  --------  --------  --------
  0C   1s         0.017607  0.000340 -0.008635  0.009804 -0.000536 -0.011627
  0C   2s        -0.037670 -0.004733  0.019195 -0.024441  0.003418  0.026387
  0C   1pz        0.040582 -0.227280  0.230862 -0.024789 -0.055955  0.000728
  0C   1px        0.060773 -0.081510 -0.031585  0.263875  0.115516  0.028451
  0C   1py        0.262850  0.089202 -0.026072  0.044161 -0.215307 -0.065506
  0C   3s        -0.062361  0.014423  0.033003 -0.024821 -0.008265  0.074686
  0C   2pz        0.003081 -0.109064  0.101721 -0.013139 -0.025513 -0.034373
  0C   2px        0.035269 -0.046170 -0.028033  0.129258  0.055781  0.064992
  0C   2py        0.104998  0.053360 -0.005783  0.013327 -0.100382 -0.027138
  0C   1dz2      -0.001529  0.015263 -0.019818 -0.001823  0.000540 -0.003465
  0C   1dxz       0.003385 -0.000359  0.003473  0.010635  0.002364 -0.002538
  0C   1dyz       0.008130 -0.008788  0.004783  0.000606 -0.004957  0.000967
  0C   1dx2y2     0.006625  0.002129  0.003094 -0.005356 -0.009502 -0.002293
  0C   1dxy       0.007615 -0.000621 -0.000677  0.014552 -0.010452 -0.002092
  1C   1s         0.000022  0.000001 -0.010923  0.000041  0.015297 -0.006368
  1C   2s        -0.000073 -0.000007  0.027538 -0.000122 -0.036819 -0.000635
  1C   1pz       -0.000056 -0.000003 -0.304760  0.000768  0.048858  0.016541
  1C   1px        0.020375 -0.028058 -0.011398 -0.300822 -0.087259 -0.003601
  1C   1py        0.007545 -0.010136  0.029668 -0.108866  0.242020  0.009954
  1C   3s        -0.000119 -0.000021  0.023788 -0.000118 -0.051611  0.116174
  1C   2pz        0.000044  0.000084 -0.128070  0.000395  0.023908  0.016572
  1C   2px        0.038415 -0.029602 -0.006735 -0.151783 -0.039482  0.007013
  1C   2py        0.013991 -0.010901  0.017780 -0.055008  0.109200 -0.019533
  1C   1dz2      -0.000005  0.000025 -0.026676 -0.000041 -0.003988 -0.001556
  1C   1dxz       0.000533 -0.007757 -0.000622  0.009120  0.001067 -0.000606
  1C   1dyz       0.000169 -0.002835  0.001455  0.003292 -0.002902  0.001669
  1C   1dx2y2    -0.005856 -0.003297 -0.000603 -0.005998 -0.016456 -0.002350
  1C   1dxy       0.006971  0.003900 -0.000503  0.007107 -0.013839 -0.001964
  2C   1s        -0.017603 -0.000342 -0.008641 -0.009803 -0.000486 -0.011626
  2C   2s         0.037666  0.004778  0.019319  0.024475  0.003334  0.026351
  2C   1pz       -0.041190  0.227499  0.230494  0.023439 -0.055876  0.000751
  2C   1px        0.215188 -0.004239  0.041806  0.230729  0.048731  0.020324
  2C   1py       -0.162288 -0.120461  0.000629  0.134798 -0.239852 -0.068413
  2C   3s         0.062165 -0.014647  0.032789  0.024665 -0.008675  0.074612
  2C   2pz       -0.003409  0.109103  0.101589  0.012541 -0.025617 -0.034496
  2C   2px        0.094536 -0.000683  0.025573  0.107735  0.021201 -0.032513
  2C   2py       -0.057448 -0.070219  0.013843  0.072452 -0.113132 -0.062647
  2C   1dz2       0.001491 -0.015246 -0.019778  0.001755  0.000541 -0.003475
  2C   1dxz       0.007863 -0.006028 -0.005864  0.008592  0.001397  0.001307
  2C   1dyz      -0.004040  0.006482  0.001372  0.006307 -0.005337  0.002373
  2C   1dx2y2    -0.008596  0.000213 -0.000153 -0.013436 -0.011859 -0.002454
  2C   1dxy      -0.005210 -0.002184  0.003166  0.007800 -0.007604 -0.001883
  3H   1s         0.000055  0.000054  0.082004  0.000409  0.176755  0.014556
  3H   2s         0.000098  0.000149  0.079960  0.000516  0.202745  0.022971
  4H   1s        -0.000040 -0.000053 -0.225214 -0.000017 -0.005367  0.001422
  4H   2s        -0.000080 -0.000088 -0.252079 -0.000025  0.002909 -0.039596
  5C   1s        -0.020344 -0.001490 -0.007212  0.003245 -0.008553 -0.014899
  5C   2s         0.043776  0.010119  0.013798 -0.010837  0.019011  0.038842
  5C   1pz        0.030366 -0.206744 -0.041935 -0.046695  0.053519 -0.123688
  5C   1px        0.045871 -0.052057 -0.048333 -0.159896 -0.076246  0.036034
  5C   1py        0.266255  0.105023  0.054444 -0.075787  0.237838  0.019139
  5C   3s         0.071900 -0.017657  0.040605 -0.001121  0.030259  0.028164
  5C   2pz       -0.000298 -0.090898 -0.008868 -0.029364  0.015655 -0.009669
  5C   2px        0.025986 -0.032374 -0.038062 -0.068071 -0.042800  0.027652
  5C   2py        0.119966  0.050216  0.027454 -0.031466  0.119789 -0.016292
  5C   1dz2       0.001232 -0.014329 -0.005261 -0.004169  0.002650 -0.023153
  5C   1dxz      -0.002305 -0.002532 -0.003959  0.008533  0.001314  0.013784
  5C   1dyz      -0.007989  0.009386  0.005643  0.004220 -0.005923  0.003116
  5C   1dx2y2    -0.006189 -0.000117 -0.003420 -0.008560 -0.006328  0.005103
  5C   1dxy      -0.007618 -0.002150  0.000046  0.014758 -0.012301 -0.003707
  6H   1s         0.016847 -0.168022 -0.169754 -0.004736  0.014331 -0.012004
  6H   2s         0.012241 -0.152891 -0.188592 -0.009115  0.018275 -0.074841
  7H   1s        -0.135109  0.064749  0.054108 -0.138312 -0.071812 -0.008447
  7H   2s        -0.135231  0.064295  0.054544 -0.155357 -0.078627 -0.035937
  8N   1s        -0.000008 -0.000011 -0.011737  0.000011  0.004572  0.055275
  8N   2s         0.000014  0.000030  0.024559 -0.000027 -0.016108 -0.119642
  8N   1pz        0.000057  0.000078 -0.068269 -0.000547 -0.062800  0.523543
  8N   1px        0.017517 -0.064674  0.001339  0.173056  0.055464  0.031989
  8N   1py        0.006501 -0.023512 -0.003978  0.062621 -0.153949 -0.084760
  8N   3s         0.000104  0.000028  0.059283 -0.000083 -0.010807 -0.244048
  8N   2pz        0.000063  0.000061 -0.042002 -0.000367 -0.033789  0.436721
  8N   2px        0.027669 -0.045581 -0.000183  0.106850  0.031825  0.016984
  8N   2py        0.010074 -0.016682  0.000508  0.038683 -0.088083 -0.044391
  8N   1dz2       0.000011 -0.000019 -0.006653 -0.000053 -0.004701  0.015600
  8N   1dxz       0.000112  0.004024 -0.000673  0.010661  0.001474  0.002554
  8N   1dyz       0.000069  0.001475  0.001804  0.003864 -0.004065 -0.006874
  8N   1dx2y2     0.006719  0.003105 -0.001025 -0.001696 -0.013440 -0.000167
  8N   1dxy      -0.007995 -0.003687 -0.000851  0.002001 -0.011294 -0.000164
  9H   1s        -0.125496  0.036723  0.015156  0.131961 -0.097366  0.049514
  9H   2s        -0.123087  0.035244  0.011670  0.144325 -0.110750  0.055898
 10H   1s         0.010892 -0.154136 -0.043364 -0.033367  0.018934 -0.127979
 10H   2s         0.008024 -0.148319 -0.072090 -0.030325  0.023999 -0.221563
 11C   1s         0.020342  0.001490 -0.007208 -0.003285 -0.008530 -0.014904
 11C   2s        -0.043857 -0.010179  0.013813  0.010879  0.018967  0.038945
 11C   1pz       -0.030822  0.206673 -0.042066  0.047616  0.053259 -0.123409
 11C   1px        0.206059  0.028451  0.001806 -0.171403 -0.093515 -0.040418
 11C   1py       -0.174614 -0.113579  0.072694 -0.043668  0.231502 -0.008644
 11C   3s        -0.071554  0.017926  0.040395  0.001411  0.029978  0.028113
 11C   2pz       -0.000007  0.090837 -0.008922  0.029763  0.015631 -0.009902
[...]
 0 C  pz              1.2       0.3       0.0       0.5       0.8       0.1
 0 C  px              0.0       0.2       0.5       0.4       0.1       0.5
 0 C  py              0.2       0.2       0.0       0.6       0.3       1.5
 0 C  dz2             0.1       0.0       0.2       4.5      16.1       2.4
 0 C  dxz             1.5       1.1       0.4       4.2       0.6       4.1
 0 C  dyz             0.5       0.0       6.7       3.5       0.0       2.8
 0 C  dx2y2           0.2       1.9       3.7       0.4       0.0       3.4
 0 C  dxy             8.8       0.5       0.6       8.5       2.8       2.0
 1 C  s               0.0       0.0       1.0       0.0       0.5       0.0
 1 C  pz              0.0       1.4       0.1       0.0       1.1       0.0
 1 C  px              0.6       0.2       0.1       0.2       0.0       0.1
 1 C  py              0.1       1.2       0.9       0.0       0.3       0.0
 1 C  dz2             0.0       3.5       2.6       0.0      16.9       0.0
 1 C  dxz             1.5       0.1       0.4       0.0       0.9       0.1
 1 C  dyz             0.2       1.1       2.8       0.0       6.6       0.0
 1 C  dx2y2           3.3       8.1       0.5       0.3       1.7       4.0
 1 C  dxy             4.7       5.7       0.4       0.4       1.2       5.8
 2 C  s               0.7       0.1       0.2       0.5       0.4       2.4
 2 C  pz              1.2       0.3       0.0       0.5       0.8       0.1
 2 C  px              0.0       0.0       0.4       1.0       0.4       1.7
 2 C  py              0.2       0.5       0.1       0.1       0.0       0.2
 2 C  dz2             0.1       0.0       0.2       4.4      16.2       2.4
 2 C  dxz             0.2       0.5       4.6       7.9       0.4       6.9
 2 C  dyz             1.7       0.7       2.4       0.0       0.1       0.0
 2 C  dx2y2           9.0       0.2       0.2       8.9       2.9       1.1
 2 C  dxy             0.0       2.1       4.1       0.0       0.0       4.2
 3 H  s               0.0       4.8       0.7       0.0       0.6       0.0
 4 H  s               0.0       1.5       0.7       0.0       3.1       0.0
 5 C  s               0.6       0.2       0.2       0.7       0.2       3.2
 5 C  pz              1.6       0.2       0.2       0.1       0.2       0.3
 5 C  px              0.4       0.8       0.2       0.1       0.1       0.1
 5 C  py              0.6       0.0       0.2       0.5       0.2       1.0
 5 C  dz2             0.0       1.0       5.9       5.5       3.3       7.3
 5 C  dxz             5.9       0.7       0.5       1.2       1.6       0.6
 5 C  dyz             0.1       3.2       6.2       3.8       0.0       0.0
 5 C  dx2y2           0.1      10.3       0.0       0.3       1.2       6.1
 5 C  dxy            11.4       4.9       0.0       3.8       0.0       3.0
 6 H  s               0.0       0.1       0.4       2.3       2.4       0.1
 7 H  s               2.0       0.0       0.8       3.4       0.4       0.1
 8 N  s               0.0       1.8       0.8       0.0       0.2       0.0
 8 N  pz              0.0       0.9       0.1       0.0       0.1       0.0
 8 N  px              1.7       0.1       0.4       0.2       0.0       0.3
 8 N  py              0.2       0.8       3.0       0.0       0.1       0.0
 8 N  dz2             0.0       3.0       8.2       0.0       1.8       0.0
 8 N  dxz             0.5       0.0       0.2       0.3       0.1       0.4
 8 N  dyz             0.1       0.2       1.5       0.0       0.4       0.1
 8 N  dx2y2           3.1       4.6       6.0       0.9       1.0       2.0
 8 N  dxy             4.4       3.2       4.2       1.2       0.7       2.8
 9 H  s               3.6       2.0       0.6       1.4       0.0       0.6
10 H  s               0.4       0.0       1.6       1.9       0.5       0.4
11 C  s               0.6       0.2       0.2       0.7       0.2       3.2
11 C  pz              1.6       0.2       0.2       0.1       0.2       0.3
11 C  px              1.0       0.5       0.2       0.5       0.2       0.8
11 C  py              0.1       0.3       0.2       0.1       0.1       0.3
11 C  dz2             0.0       1.0       5.9       5.4       3.3       7.4
11 C  dxz             4.3       3.1       1.1       4.5       0.9       0.5
11 C  dyz             1.7       0.7       5.5       0.6       0.7       0.1
11 C  dx2y2          11.4       2.6       0.0       4.0       0.1       1.6
11 C  dxy             0.1      12.6       0.0       0.0       1.0       7.5
12 H  s               3.6       2.0       0.6       1.5       0.0       0.6
13 H  s               0.4       0.0       1.6       1.9       0.5       0.4
14 H  s               2.0       0.0       0.8       3.3       0.4       0.1
15 H  s               0.0       0.1       0.4       2.3       2.4       0.1
16 H  s               0.0       1.9       7.3       0.0       0.1       0.0

                     96        97        98        99       100       101   
                   2.40461   2.42011   2.43589   2.45288   2.62073   2.65824
                   0.00000   0.00000   0.00000   0.00000   0.00000   0.00000
                  --------  --------  --------  --------  --------  --------
 0 C  s               0.0       0.5       1.0       0.1       0.3       0.6
 0 C  pz              0.0       0.3       0.0       0.0       0.1       0.1
 0 C  px              0.3       0.0       0.2       0.1       0.5       0.0
 0 C  py              0.0       0.0       0.2       0.2       0.1       0.3
 0 C  dz2             6.5      14.8       0.5       0.1       0.9       5.6
 0 C  dxz             7.0       0.1       0.0       0.2       6.6       0.0
 0 C  dyz             2.3       6.6       1.3       2.9       3.0       0.6
 0 C  dx2y2           0.2       0.4       3.6       1.8       1.5       0.4
 0 C  dxy             0.0       0.0       0.3       2.2       6.0       9.5
 1 C  s               0.4       0.0       2.5       0.8       1.2       0.0
 1 C  pz              0.2       0.0       0.2       0.0       0.4       0.0
 1 C  px              0.0       0.3       0.1       0.1       0.0       0.5
 1 C  py              0.2       0.0       0.6       0.6       0.3       0.1
 1 C  dz2            29.9       0.0       0.2       0.2       7.2       0.0
 1 C  dxz             0.4       4.0       0.4       0.5       0.1       7.8
 1 C  dyz             3.0       0.5       3.2       3.5       0.6       1.0
 1 C  dx2y2           1.7       0.1       1.5       0.8      13.8       0.1
 1 C  dxy             1.2       0.2       1.1       0.6       9.7       0.1
 2 C  s               0.0       0.5       1.0       0.1       0.3       0.6
 2 C  pz              0.0       0.3       0.0       0.0       0.1       0.1
 2 C  px              0.2       0.0       0.3       0.1       0.2       0.2
 2 C  py              0.1       0.0       0.0       0.2       0.4       0.1
 2 C  dz2             6.5      14.6       0.5       0.1       0.9       5.6
 2 C  dxz             9.1       3.8       0.5       2.2       0.7       0.2
 2 C  dyz             0.3       3.0       0.8       1.0       8.8       0.4
 2 C  dx2y2           0.1       0.0       0.8       2.9       4.9       8.5
 2 C  dxy             0.1       0.3       3.1       1.2       2.8       1.3
 3 H  s               3.1       0.0       0.1       0.5       0.7       0.0
 4 H  s               2.9       0.0       0.3       0.1       0.8       0.0
 5 C  s               0.2       0.1       1.1       0.7       0.1       0.6
 5 C  pz              0.0       0.0       0.3       0.0       0.0       0.0
 5 C  px              0.0       0.0       0.4       0.1       0.1       0.2
 5 C  py              0.1       0.5       0.4       0.2       0.0       0.3
 5 C  dz2             3.7       3.2       0.3      11.3       0.0       7.5
 5 C  dxz             0.0       0.4       5.7       3.2       4.6       0.8
 5 C  dyz             1.3      11.1       3.0       1.3       2.5       0.1
 5 C  dx2y2           1.7       0.2       0.0       0.4       0.2       0.0
 5 C  dxy             0.1       0.0       1.7       1.9       0.1      10.0
 6 H  s               1.0       2.3       0.0       0.1       0.2       0.5
 7 H  s               1.1       0.9       0.0       0.7       0.3       0.3
 8 N  s               0.2       0.0      14.5       0.7       0.2       0.0
 8 N  pz              0.2       0.0       0.2       1.0       0.2       0.0
 8 N  px              0.0       0.1       0.2       0.2       0.0       0.1
 8 N  py              0.1       0.0       1.3       1.6       0.1       0.0
 8 N  dz2             1.8       0.0      23.1       8.2       3.2       0.0
 8 N  dxz             0.2       2.2       0.6       2.0       0.0       8.7
 8 N  dyz             1.7       0.3       4.2      15.1       0.0       1.2
 8 N  dx2y2           0.3       2.2       1.8       0.9       4.1       1.4
 8 N  dxy             0.2       3.2       1.3       0.7       2.9       1.9
 9 H  s               0.0       1.0       0.1       1.1       0.0       0.1
10 H  s               0.3       0.9       0.0       1.0       0.0       1.0
11 C  s               0.2       0.1       1.1       0.8       0.1       0.6
11 C  pz              0.0       0.0       0.3       0.0       0.0       0.0
11 C  px              0.1       0.2       0.7       0.3       0.1       0.4
11 C  py              0.1       0.3       0.1       0.0       0.1       0.1
11 C  dz2             3.7       3.2       0.3      11.2       0.0       7.5
11 C  dxz             0.3       7.0       8.6       4.5       0.4       0.8
11 C  dyz             1.0       4.6       0.0       0.1       6.6       0.1
11 C  dx2y2           0.0       0.1       1.7       2.2       0.1       9.6
11 C  dxy             1.8       0.2       0.0       0.2       0.1       0.5
12 H  s               0.0       1.0       0.1       1.1       0.0       0.1
13 H  s               0.3       0.9       0.0       1.0       0.0       1.0
14 H  s               1.1       0.9       0.0       0.7       0.3       0.3
15 H  s               1.0       2.3       0.0       0.1       0.2       0.5
16 H  s               0.1       0.0       2.6       2.1       0.2       0.0

                    102       103       104       105   
                   2.69311   2.74442   2.74821   2.81598
                   0.00000   0.00000   0.00000   0.00000
                  --------  --------  --------  --------
 0 C  s               1.1       0.5       0.1       0.1
 0 C  pz              0.0       0.1       0.0       0.0
 0 C  px              0.1       2.4       0.3       0.3
 0 C  py              0.5       0.3       1.1       0.7
 0 C  dz2             0.4       0.2       1.0       0.2
 0 C  dxz             0.0       4.9       0.3       0.3
 0 C  dyz             0.7       0.0       0.2       0.3
 0 C  dx2y2           1.5      12.1       9.3       3.9
 0 C  dxy            11.0       0.1       0.0       0.2
 1 C  s               0.2       0.0       0.9       0.0
 1 C  pz              0.0       0.0       0.1       0.0
 1 C  px              0.0       3.7       0.1       0.4
 1 C  py              0.1       0.5       0.7       0.1
 1 C  dz2             0.2       0.0       0.3       0.0
 1 C  dxz             0.1       7.8       0.2       0.9
 1 C  dyz             0.5       1.0       1.2       0.1
 1 C  dx2y2           2.3       9.3       1.5       0.6
 1 C  dxy             1.6      13.2       1.1       0.8
 2 C  s               1.1       0.5       0.1       0.1
 2 C  pz              0.0       0.1       0.0       0.0
 2 C  px              0.1       0.9       0.1       0.0
 2 C  py              0.5       1.8       1.3       0.9
 2 C  dz2             0.4       0.2       1.0       0.2
 2 C  dxz             0.3       2.6       0.0       0.0
 2 C  dyz             0.5       2.3       0.5       0.6
 2 C  dx2y2          12.1       0.9       0.4       0.6
 2 C  dxy             0.4      11.3       9.0       3.4
 3 H  s               0.1       0.0       0.3       0.0
 5 C  s               1.2       1.2       0.1       0.7
 5 C  pz              0.1       0.1       0.1       0.2
 5 C  px              0.0       0.3       1.2       3.1
 5 C  py              0.3       0.6       1.1       0.3
 5 C  dz2             0.1       1.8       0.6       0.1
 5 C  dxz             1.1       1.0       2.4       4.5
 5 C  dyz             0.0       0.6       1.6       0.0
 5 C  dx2y2           0.4       0.0      11.1      11.9
 5 C  dxy            18.1       1.0       0.1       0.4
 7 H  s               0.4       0.1       0.0       0.0
 8 N  s               0.4       0.0       3.2       0.0
 8 N  pz              0.0       0.0       0.5       0.0
 8 N  px              0.0       0.9       0.3       5.6
 8 N  py              0.2       0.1       2.6       0.7
 8 N  dz2             0.5       0.0       0.4       0.0
 8 N  dxz             0.2       4.4       0.5      15.4
 8 N  dyz             1.5       0.6       3.4       2.0
 8 N  dx2y2           9.2       1.4      10.9       7.8
 8 N  dxy             6.5       2.0       7.8      11.2
 9 H  s               0.6       0.2       0.0       0.1
11 C  s               1.2       1.2       0.1       0.7
11 C  pz              0.1       0.1       0.1       0.2
11 C  px              0.1       0.8       0.2       0.9
11 C  py              0.3       0.1       2.1       2.5
11 C  dz2             0.1       1.8       0.6       0.1
11 C  dxz             0.7       1.5       0.1       2.6
11 C  dyz             0.5       0.0       3.8       1.8
11 C  dx2y2          18.5       0.9       0.9       1.5
11 C  dxy             0.0       0.1      10.4      10.8
12 H  s               0.6       0.2       0.0       0.1
14 H  s               0.4       0.1       0.0       0.0
16 H  s               0.4       0.0       2.4       0.0


                      *****************************
                      * MAYER POPULATION ANALYSIS *
                      *****************************

  NA   - Mulliken gross atomic population
  ZA   - Total nuclear charge
  QA   - Mulliken gross atomic charge
  VA   - Mayer's total valence
  BVA  - Mayer's bonded valence
  FA   - Mayer's free valence

  ATOM       NA         ZA         QA         VA         BVA        FA
  0 C      6.2468     6.0000    -0.2468     3.8742     3.8742    -0.0000
  1 C      6.2607     6.0000    -0.2607     3.8894     3.8894     0.0000
  2 C      6.2474     6.0000    -0.2474     3.8744     3.8744    -0.0000
  3 H      0.8693     1.0000     0.1307     0.9330     0.9330     0.0000
  4 H      0.8757     1.0000     0.1243     0.9365     0.9365     0.0000
  5 C      6.1272     6.0000    -0.1272     3.8710     3.8710     0.0000
  6 H      0.8610     1.0000     0.1390     0.9365     0.9365    -0.0000
  7 H      0.8743     1.0000     0.1257     0.9348     0.9348    -0.0000
  8 N      7.5353     7.0000    -0.5353     2.8703     2.8703     0.0000
  9 H      0.8685     1.0000     0.1315     0.9334     0.9334    -0.0000
 10 H      0.8972     1.0000     0.1028     0.9329     0.9329    -0.0000
 11 C      6.1283     6.0000    -0.1283     3.8713     3.8713     0.0000
 12 H      0.8682     1.0000     0.1318     0.9333     0.9333    -0.0000
 13 H      0.8970     1.0000     0.1030     0.9329     0.9329     0.0000
 14 H      0.8744     1.0000     0.1256     0.9349     0.9349     0.0000
 15 H      0.8610     1.0000     0.1390     0.9364     0.9364     0.0000
 16 H      0.7077     1.0000     0.2923     0.8643     0.8643    -0.0000

  Mayer bond orders larger than 0.1
B(  0-C ,  1-C ) :   1.0174 B(  0-C , 11-C ) :   1.0110 B(  0-C , 14-H ) :   0.9405 
B(  0-C , 15-H ) :   0.9371 B(  1-C ,  2-C ) :   1.0175 B(  1-C ,  3-H ) :   0.9433 
B(  1-C ,  4-H ) :   0.9390 B(  2-C ,  5-C ) :   1.0110 B(  2-C ,  6-H ) :   0.9372 
B(  2-C ,  7-H ) :   0.9406 B(  5-C ,  8-N ) :   0.9983 B(  5-C ,  9-H ) :   0.9431 
B(  5-C , 10-H ) :   0.9216 B(  8-N , 11-C ) :   0.9985 B(  8-N , 16-H ) :   0.8554 
B( 11-C , 12-H ) :   0.9431 B( 11-C , 13-H ) :   0.9216 

-------
TIMINGS
-------

Total SCF time: 0 days 0 hours 0 min 15 sec 

Total time                  ....      15.042 sec
Sum of individual times     ....      14.715 sec  ( 97.8%)

Fock matrix formation       ....      12.392 sec  ( 82.4%)
  XC integration            ....       2.778 sec  ( 22.4% of F)
    Basis function eval.    ....       1.012 sec  ( 36.4% of XC)
    Density eval.           ....       0.723 sec  ( 26.0% of XC)
    XC-Functional eval.     ....       0.217 sec  (  7.8% of XC)
    XC-Potential eval.      ....       0.637 sec  ( 22.9% of XC)
Diagonalization             ....       0.002 sec  (  0.0%)
Density matrix formation    ....       0.001 sec  (  0.0%)
Population analysis         ....       0.044 sec  (  0.3%)
Initial guess               ....       0.004 sec  (  0.0%)
Orbital Transformation      ....       0.000 sec  (  0.0%)
Orbital Orthonormalization  ....       0.002 sec  (  0.0%)
DIIS solution               ....       0.001 sec  (  0.0%)
SOSCF solution              ....       0.006 sec  (  0.0%)
Grid generation             ....       2.265 sec  ( 15.1%)

-------------------------   --------------------
FINAL SINGLE POINT ENERGY      -251.724150140931
-------------------------   --------------------

                                *** OPTIMIZATION RUN DONE ***

                            ***************************************
                            *     ORCA property calculations      *
                            ***************************************

                                    ---------------------
                                    Active property flags
                                    ---------------------
   (+) Dipole Moment


------------------------------------------------------------------------------
                       ORCA ELECTRIC PROPERTIES CALCULATION
------------------------------------------------------------------------------

Dipole Moment Calculation                       ... on
Quadrupole Moment Calculation                   ... off
Polarizability Calculation                      ... off
GBWName                                         ... /Users/lailaal-madhagi/Desktop/Testing_XAS_Analysis_code/piperidine//Results_dir_piperidine_geom_element_C_2019-11-27_17-36-51//GTE1_piperidine_geom_2019-11-27_17-36-58//opt.gbw
Electron density file                           ... /Users/lailaal-madhagi/Desktop/Testing_XAS_Analysis_code/piperidine//Results_dir_piperidine_geom_element_C_2019-11-27_17-36-51//GTE1_piperidine_geom_2019-11-27_17-36-58//opt.scfp.tmp
The origin for moment calculation is the CENTER OF MASS  = ( 5.255524,  1.407541 -0.207400)

-------------
DIPOLE MOMENT
-------------
                                X             Y             Z
Electronic contribution:      0.48059      -1.32623      -1.01349
Nuclear contribution   :     -0.42877       1.18536       1.31208
                        -----------------------------------------
Total Dipole Moment    :      0.05182      -0.14087       0.29860
                        -----------------------------------------
Magnitude (a.u.)       :      0.33420
Magnitude (Debye)      :      0.84947



--------------------
Rotational spectrum 
--------------------
 
Rotational constants in cm-1:     0.150150     0.147236     0.084186 
Rotational constants in MHz :  4501.388188  4414.033036  2523.836740 

 Dipole components along the rotational axes: 
x,y,z [a.u.] :    -0.105399     0.000023     0.317146 
x,y,z [Debye]:    -0.267902     0.000058     0.806121 

 

Timings for individual modules:

Sum of individual times         ...      363.393 sec (=   6.057 min)
GTO integral calculation        ...        8.907 sec (=   0.148 min)   2.5 %
SCF iterations                  ...      195.161 sec (=   3.253 min)  53.7 %
SCF Gradient evaluation         ...      153.189 sec (=   2.553 min)  42.2 %
Geometry relaxation             ...        6.136 sec (=   0.102 min)   1.7 %
                             ****ORCA TERMINATED NORMALLY****
TOTAL RUN TIME: 0 days 0 hours 6 minutes 4 seconds 992 msec
