
                                 *****************
                                 * O   R   C   A *
                                 *****************

           --- An Ab Initio, DFT and Semiempirical electronic structure package ---

                  #######################################################
                  #                        -***-                        #
                  #          Department of theory and spectroscopy      #
                  #               Directorship: Frank Neese             #
                  #        Max Planck Institute fuer Kohlenforschung    #
                  #                Kaiser Wilhelm Platz 1               #
                  #                 D-45470 Muelheim/Ruhr               #
                  #                      Germany                        #
                  #                                                     #
                  #                  All rights reserved                #
                  #                        -***-                        #
                  #######################################################


                         Program Version 4.1.0  - RELEASE  -


 With contributions from (in alphabetic order):
   Daniel Aravena         : Magnetic Properties
   Michael Atanasov       : Ab Initio Ligand Field Theory
   Alexander A. Auer      : GIAO ZORA
   Ute Becker             : Parallelization
   Giovanni Bistoni       : ED, Open-shell LED
   Martin Brehm           : Molecular dynamics
   Dmytro Bykov           : SCF Hessian
   Vijay G. Chilkuri      : MRCI spin determinant printing
   Dipayan Datta          : RHF DLPNO-CCSD density
   Achintya Kumar Dutta   : EOM-CC, STEOM-CC
   Dmitry Ganyushin       : Spin-Orbit,Spin-Spin,Magnetic field MRCI
   Miquel Garcia          : C-PCM Hessian
   Yang Guo               : DLPNO-NEVPT2, CIM, IAO-localization
   Andreas Hansen         : Spin unrestricted coupled pair/coupled cluster methods
   Benjamin Helmich-Paris : CASSCF linear response (MC-RPA)
   Lee Huntington         : MR-EOM, pCC
   Robert Izsak           : Overlap fitted RIJCOSX, COSX-SCS-MP3, EOM
   Christian Kollmar      : KDIIS, OOCD, Brueckner-CCSD(T), CCSD density
   Simone Kossmann        : Meta GGA functionals, TD-DFT gradient, OOMP2, MP2 Hessian
   Martin Krupicka        : AUTO-CI
   Lucas Lang             : DCDCAS
   Dagmar Lenk            : GEPOL surface, SMD
   Dimitrios Liakos       : Extrapolation schemes; parallel MDCI
   Dimitrios Manganas     : ROCIS; embedding schemes
   Dimitrios Pantazis     : SARC Basis sets
   Taras Petrenko         : DFT Hessian,TD-DFT gradient, ASA, ECA, R-Raman, ABS, FL, XAS/XES, NRVS
   Peter Pinski           : DLPNO-MP2, DLPNO-MP2 Gradient
   Christoph Reimann      : Effective Core Potentials
   Marius Retegan         : Local ZFS, SOC
   Christoph Riplinger    : Optimizer, TS searches, QM/MM, DLPNO-CCSD(T), (RO)-DLPNO pert. Triples
   Tobias Risthaus        : Range-separated hybrids, TD-DFT gradient, RPA, STAB
   Michael Roemelt        : Restricted open shell CIS
   Masaaki Saitow         : Open-shell DLPNO
   Barbara Sandhoefer     : DKH picture change effects
   Avijit Sen             : IP-ROCIS
   Kantharuban Sivalingam : CASSCF convergence, NEVPT2, FIC-MRCI
   Bernardo de Souza      : ESD, SOC TD-DFT
   Georgi Stoychev        : AutoAux, RI-MP2 NMR
   Willem Van den Heuvel  : Paramagnetic NMR
   Boris Wezisla          : Elementary symmetry handling
   Frank Wennmohs         : Technical directorship


 We gratefully acknowledge several colleagues who have allowed us to
 interface, adapt or use parts of their codes:
   Stefan Grimme, W. Hujo, H. Kruse,             : VdW corrections, initial TS optimization,
                  C. Bannwarth                     DFT functionals, gCP, sTDA/sTD-DF
   Ed Valeev                                     : LibInt (2-el integral package), F12 methods
   Garnet Chan, S. Sharma, J. Yang, R. Olivares  : DMRG
   Ulf Ekstrom                                   : XCFun DFT Library
   Mihaly Kallay                                 : mrcc  (arbitrary order and MRCC methods)
   Andreas Klamt, Michael Diedenhofen            : otool_cosmo (COSMO solvation model)
   Jiri Pittner, Ondrej Demel                    : Mk-CCSD
   Frank Weinhold                                : gennbo (NPA and NBO analysis)
   Christopher J. Cramer and Donald G. Truhlar   : smd solvation model
   Lars Goerigk                                  : TD-DFT with DH, B97 family of functionals
   V. Asgeirsson, H. Jonsson                     : NEB implementation
   FAccTs GmbH                                   : IRC, NEB, NEB-TS, Multilevel


 Your calculation uses the libint2 library for the computation of 2-el integrals
 For citations please refer to: http://libint.valeyev.net

 This ORCA versions uses:
   CBLAS   interface :  Fast vector & matrix operations
   LAPACKE interface :  Fast linear algebra routines
   SCALAPACK package :  Parallel linear algebra routines




***************************************
The coordinates will be read from file: /Users/lailaal-madhagi/Desktop/Testing_XAS_Analysis_code/Anisole//Results_dir_Anisole_geom_element_O_2019-11-04_22-05-47//GTE1_Anisole_geom_2019-11-04_22-06-27//opt.xyz
***************************************


----- Orbital basis set information -----
Your calculation utilizes the basis: 6-31G*
   H-He, Li-Ne : W. J. Hehre, R. Ditchfield and J.A. Pople, J. Chem. Phys. 56, 2257 (1972).
                 Note: He and Ne are unpublished basis sets taken from the Gaussian program.
                 Note: Li and B from J. D. Dill and J. A. Pople, J. Chem. Phys. 62, 2921 (1975).
   Na - Ar     : M. M. Francl, W. J. Pietro, W. J. Hehre, J. S. Binkley, M. S. Gordon, 
                 D. J. DeFrees and J. A. Pople, J. Chem. Phys. 77, 3654 (1982).
   K - Zn      : V. A. Rassolov, J. A. Pople, M. A. Ratner, and T. L. Windus, J. Chem. Phys. 109, 1223 (1998).

================================================================================
                                        WARNINGS
                       Please study these warnings very carefully!
================================================================================

INFO   : Checking CIS options ...

WARNING: CIS/ROCIS methods need fully converged wavefunctions
  ===> : Setting SCFConvForced true
         You can overwrite this default with %scf ConvForced false 


INFO   : the flag for use of LIBINT has been found!

================================================================================
                                       INPUT FILE
================================================================================
NAME = /Users/lailaal-madhagi/Desktop/Testing_XAS_Analysis_code/Anisole//Results_dir_Anisole_geom_element_O_2019-11-04_22-05-47//GTE1_Anisole_geom_2019-11-04_22-06-27//TDDFT_O-edge.inp
|  1> #This is O K-edge calculation 
|  2> ! B3LYP 6-31G* TIGHTSCF Grid3 FinalGrid5 
|  3> !NormalPrint 
|  4> %output 
|  5> Print[P_Basis] 2 
|  6> Print[P_MOS] 1 
|  7> end 
|  8> 
|  9> %tddft 
| 10> orbwin[0]=0,0,-1,-1 
| 11> nroots=20 
| 12> maxdim=200 
| 13> end 
| 14> *xyzfile 0 1 /Users/lailaal-madhagi/Desktop/Testing_XAS_Analysis_code/Anisole//Results_dir_Anisole_geom_element_O_2019-11-04_22-05-47//GTE1_Anisole_geom_2019-11-04_22-06-27//opt.xyz                           ****END OF INPUT****
================================================================================

                       ****************************
                       * Single Point Calculation *
                       ****************************

---------------------------------
CARTESIAN COORDINATES (ANGSTROEM)
---------------------------------
  C     -2.420215    1.114009    0.014811
  C     -1.038951    1.275212    0.026731
  C     -2.986564   -0.165284   -0.014165
  C     -2.144506   -1.275230   -0.030852
  C     -0.192615    0.153843    0.009784
  C     -0.752890   -1.129432   -0.019140
  O      1.142314    0.451401    0.024277
  C      2.146953   -0.553162    0.008756
  H      2.762249   -0.441515    0.908884
  H      2.776531   -0.399068   -0.875051
  H      1.749023   -1.569350   -0.018671
  H     -3.058681    1.994008    0.028235
  H     -0.584479    2.261131    0.049112
  H     -4.065460   -0.291701   -0.023419
  H     -2.565654   -2.277475   -0.053286
  H     -0.134766   -2.020107   -0.032685

----------------------------
CARTESIAN COORDINATES (A.U.)
----------------------------
  NO LB      ZA    FRAG     MASS         X           Y           Z
   0 C     6.0000    0    12.011   -4.573543    2.105172    0.027988
   1 C     6.0000    0    12.011   -1.963332    2.409802    0.050513
   2 C     6.0000    0    12.011   -5.643787   -0.312341   -0.026767
   3 C     6.0000    0    12.011   -4.052529   -2.409836   -0.058302
   4 C     6.0000    0    12.011   -0.363989    0.290722    0.018490
   5 C     6.0000    0    12.011   -1.422755   -2.134317   -0.036170
   6 O     8.0000    0    15.999    2.158660    0.853023    0.045877
   7 C     6.0000    0    12.011    4.057154   -1.045325    0.016546
   8 H     1.0000    0     1.008    5.219894   -0.834342    1.717542
   9 H     1.0000    0     1.008    5.246883   -0.754129   -1.653608
  10 H     1.0000    0     1.008    3.305174   -2.965642   -0.035283
  11 H     1.0000    0     1.008   -5.780070    3.768128    0.053356
  12 H     1.0000    0     1.008   -1.104506    4.272918    0.092808
  13 H     1.0000    0     1.008   -7.682606   -0.551235   -0.044255
  14 H     1.0000    0     1.008   -4.848383   -4.303803   -0.100696
  15 H     1.0000    0     1.008   -0.254671   -3.817449   -0.061766

--------------------------------
INTERNAL COORDINATES (ANGSTROEM)
--------------------------------
 C      0   0   0     0.000000000000     0.00000000     0.00000000
 C      1   0   0     1.390690009546     0.00000000     0.00000000
 C      1   2   0     1.399349994555   120.53923657     0.00000000
 C      3   1   2     1.393313118490   118.94229910     0.00000000
 C      2   1   3     1.405005351599   120.37585711     0.00000000
 C      4   3   1     1.399281788814   121.19424292     0.00000000
 O      5   2   1     1.367766278663   114.46583943   180.00715869
 C      7   5   2     1.420805526604   122.42424767   180.09172966
 H      8   7   5     1.096031403424   108.41855727   239.25960308
 H      8   7   5     1.096005353429   108.39562498   121.07883320
 H      8   7   5     1.091668053974   113.62066901     0.18057778
 H      1   2   3     1.087298074676   119.29476788   180.00110897
 H      2   1   3     1.085854380981   121.40779843   179.99612008
 H      3   1   2     1.086316960400   120.56550315   179.99595323
 H      4   3   1     1.087365137993   120.02887234   179.99248301
 H      6   4   3     1.084233595173   118.76902357   179.98728201

---------------------------
INTERNAL COORDINATES (A.U.)
---------------------------
 C      0   0   0     0.000000000000     0.00000000     0.00000000
 C      1   0   0     2.628023255223     0.00000000     0.00000000
 C      1   2   0     2.644388255214   120.53923657     0.00000000
 C      3   1   2     2.632980212747   118.94229910     0.00000000
 C      2   1   3     2.655075331216   120.37585711     0.00000000
 C      4   3   1     2.644259365043   121.19424292     0.00000000
 O      5   2   1     2.584703681886   114.46583943   180.00715869
 C      7   5   2     2.684933334844   122.42424767   180.09172966
 H      8   7   5     2.071199186648   108.41855727   239.25960308
 H      8   7   5     2.071149959291   108.39562498   121.07883320
 H      8   7   5     2.062953651163   113.62066901     0.18057778
 H      1   2   3     2.054695587078   119.29476788   180.00110897
 H      2   1   3     2.051967401372   121.40779843   179.99612008
 H      3   1   2     2.052841549790   120.56550315   179.99595323
 H      4   3   1     2.054822318381   120.02887234   179.99248301
 H      6   4   3     2.048904560075   118.76902357   179.98728201

---------------------
BASIS SET INFORMATION
---------------------
There are 3 groups of distinct atoms

 Group   1 Type C   : 10s4p1d contracted to 3s2p1d pattern {631/31/1}
 Group   2 Type O   : 10s4p1d contracted to 3s2p1d pattern {631/31/1}
 Group   3 Type H   : 4s contracted to 2s pattern {31}

Atom   0C    basis set group =>   1
Atom   1C    basis set group =>   1
Atom   2C    basis set group =>   1
Atom   3C    basis set group =>   1
Atom   4C    basis set group =>   1
Atom   5C    basis set group =>   1
Atom   6O    basis set group =>   2
Atom   7C    basis set group =>   1
Atom   8H    basis set group =>   3
Atom   9H    basis set group =>   3
Atom  10H    basis set group =>   3
Atom  11H    basis set group =>   3
Atom  12H    basis set group =>   3
Atom  13H    basis set group =>   3
Atom  14H    basis set group =>   3
Atom  15H    basis set group =>   3

-------------------------
BASIS SET IN INPUT FORMAT
-------------------------

 # Basis set for element : H 
 NewGTO H 
 S 3 
   1      18.7311370000      0.0334945995
   2       2.8253937000      0.2347269467
   3       0.6401217000      0.8137573184
 S 1 
   1       0.1612778000      1.0000000000
  end;

 # Basis set for element : C 
 NewGTO C 
 S 6 
   1    3047.5249000000      0.0018347002
   2     457.3695100000      0.0140373012
   3     103.9486900000      0.0688426061
   4      29.2101550000      0.2321844206
   5       9.2866630000      0.4679413416
   6       3.1639270000      0.3623120322
 S 3 
   1       7.8682724000     -0.1193324086
   2       1.8812885000     -0.1608542116
   3       0.5442493000      1.1434564826
 P 3 
   1       7.8682724000      0.0689990956
   2       1.8812885000      0.3164239798
   3       0.5442493000      0.7443082524
 S 1 
   1       0.1687144000      1.0000000000
 P 1 
   1       0.1687144000      1.0000000000
 D 1 
   1       0.8000000000      1.0000000000
  end;

 # Basis set for element : O 
 NewGTO O 
 S 6 
   1    5484.6717000000      0.0018310998
   2     825.2349500000      0.0139500985
   3     188.0469600000      0.0684450927
   4      52.9645000000      0.2327142753
   5      16.8975700000      0.4701929501
   6       5.7996353000      0.3585208619
 S 3 
   1      15.5396160000     -0.1107775038
   2       3.5999336000     -0.1480263051
   3       1.0137618000      1.1307670390
 P 3 
   1      15.5396160000      0.0708742995
   2       3.5999336000      0.3397527978
   3       1.0137618000      0.7271585953
 S 1 
   1       0.2700058000      1.0000000000
 P 1 
   1       0.2700058000      1.0000000000
 D 1 
   1       0.8000000000      1.0000000000
  end;

------------------------------------------------------------------------------
                           ORCA GTO INTEGRAL CALCULATION
------------------------------------------------------------------------------

                         BASIS SET STATISTICS AND STARTUP INFO

 # of primitive gaussian shells          ...  152
 # of primitive gaussian functions       ...  248
 # of contracted shells                  ...   64
 # of contracted basis functions         ...  128
 Highest angular momentum                ...    2
 Maximum contraction depth               ...    6
 Integral package used                   ... LIBINT
 Integral threshhold            Thresh   ...  2.500e-11
 Primitive cut-off              TCut     ...  2.500e-12


------------------------------ INTEGRAL EVALUATION ----------------------------


 * One electron integrals 
 Pre-screening matrix                    ... done
 Shell pair data                         ... done (   0.001 sec)

-------------------------------------------------------------------------------
                                 ORCA SCF
-------------------------------------------------------------------------------

------------
SCF SETTINGS
------------
Hamiltonian:
 Density Functional     Method          .... DFT(GTOs)
 Exchange Functional    Exchange        .... B88
   X-Alpha parameter    XAlpha          ....  0.666667
   Becke's b parameter  XBeta           ....  0.004200
 Correlation Functional Correlation     .... LYP
 LDA part of GGA corr.  LDAOpt          .... VWN-5
 Gradients option       PostSCFGGA      .... off
 Hybrid DFT is turned on
   Fraction HF Exchange ScalHFX         ....  0.200000
   Scaling of DF-GGA-X  ScalDFX         ....  0.720000
   Scaling of DF-GGA-C  ScalDFC         ....  0.810000
   Scaling of DF-LDA-C  ScalLDAC        ....  1.000000
   Perturbative correction              ....  0.000000
   Density functional embedding theory  .... OFF
   NL short-range parameter             ....  4.800000


General Settings:
 Integral files         IntName         .... /Users/lailaal-madhagi/Desktop/Testing_XAS_Analysis_code/Anisole//Results_dir_Anisole_geom_element_O_2019-11-04_22-05-47//GTE1_Anisole_geom_2019-11-04_22-06-27//TDDFT_O-edge
 Hartree-Fock type      HFTyp           .... RHF
 Total Charge           Charge          ....    0
 Multiplicity           Mult            ....    1
 Number of Electrons    NEL             ....   58
 Basis Dimension        Dim             ....  128
 Nuclear Repulsion      ENuc            ....    343.8345451034 Eh

Convergence Acceleration:
 DIIS                   CNVDIIS         .... on
   Start iteration      DIISMaxIt       ....    12
   Startup error        DIISStart       ....  0.200000
   # of expansion vecs  DIISMaxEq       ....     5
   Bias factor          DIISBfac        ....   1.050
   Max. coefficient     DIISMaxC        ....  10.000
 Newton-Raphson         CNVNR           .... off
 SOSCF                  CNVSOSCF        .... on
   Start iteration      SOSCFMaxIt      ....   150
   Startup grad/error   SOSCFStart      ....  0.003300
 Level Shifting         CNVShift        .... on
   Level shift para.    LevelShift      ....    0.2500
   Turn off err/grad.   ShiftErr        ....    0.0010
 Zerner damping         CNVZerner       .... off
 Static damping         CNVDamp         .... on
   Fraction old density DampFac         ....    0.7000
   Max. Damping (<1)    DampMax         ....    0.9800
   Min. Damping (>=0)   DampMin         ....    0.0000
   Turn off err/grad.   DampErr         ....    0.1000
 Fernandez-Rico         CNVRico         .... off

SCF Procedure:
 Maximum # iterations   MaxIter         ....   125
 SCF integral mode      SCFMode         .... Direct
   Integral package                     .... LIBINT
 Reset frequency        DirectResetFreq ....    20
 Integral Threshold     Thresh          ....  2.500e-11 Eh
 Primitive CutOff       TCut            ....  2.500e-12 Eh

Convergence Tolerance:
 Convergence Check Mode ConvCheckMode   .... Total+1el-Energy
 Convergence forced     ConvForced      .... 1
 Energy Change          TolE            ....  1.000e-08 Eh
 1-El. energy change                    ....  1.000e-05 Eh
 Orbital Gradient       TolG            ....  1.000e-05
 Orbital Rotation angle TolX            ....  1.000e-05
 DIIS Error             TolErr          ....  5.000e-07


Diagonalization of the overlap matrix:
Smallest eigenvalue                        ... 5.112e-04
Time for diagonalization                   ...    0.003 sec
Threshold for overlap eigenvalues          ... 1.000e-08
Number of eigenvalues below threshold      ... 0
Time for construction of square roots      ...    0.001 sec
Total time needed                          ...    0.004 sec

-------------------
DFT GRID GENERATION
-------------------

General Integration Accuracy     IntAcc      ...  4.340
Radial Grid Type                 RadialGrid  ... Gauss-Chebyshev
Angular Grid (max. acc.)         AngularGrid ... Lebedev-194
Angular grid pruning method      GridPruning ... 3 (G Style)
Weight generation scheme         WeightScheme... Becke
Basis function cutoff            BFCut       ...    1.0000e-11
Integration weight cutoff        WCut        ...    1.0000e-14
Grids for H and He will be reduced by one unit

# of grid points (after initial pruning)     ...  38516 (   0.0 sec)
# of grid points (after weights+screening)   ...  35502 (   0.1 sec)
nearest neighbour list constructed           ...    0.0 sec
Grid point re-assignment to atoms done       ...    0.0 sec
Grid point division into batches done        ...    0.0 sec
Reduced shell lists constructed in    0.2 sec

Total number of grid points                  ...    35502
Total number of batches                      ...      562
Average number of points per batch           ...       63
Average number of grid points per atom       ...     2219
Average number of shells per batch           ...    43.82 (68.47%)
Average number of basis functions per batch  ...    89.85 (70.19%)
Average number of large shells per batch     ...    33.72 (76.95%)
Average number of large basis fcns per batch ...    69.73 (77.61%)
Maximum spatial batch extension              ...  19.55, 17.26, 22.20 au
Average spatial batch extension              ...   2.95,  3.11,  3.54 au

Time for grid setup =    0.288 sec

------------------------------
INITIAL GUESS: MODEL POTENTIAL
------------------------------
Loading Hartree-Fock densities                     ... done
Calculating cut-offs                               ... done
Setting up the integral package                    ... done
Initializing the effective Hamiltonian             ... done
Starting the Coulomb interaction                   ... done (   0.1 sec)
Reading the grid                                   ... done
Mapping shells                                     ... done
Starting the XC term evaluation                    ... done (   0.2 sec)
  promolecular density results
     # of electrons  =     57.995743844
     EX              =    -46.552999835
     EC              =     -1.937737786
     EX+EC           =    -48.490737621
Transforming the Hamiltonian                       ... done (   0.0 sec)
Diagonalizing the Hamiltonian                      ... done (   0.0 sec)
Back transforming the eigenvectors                 ... done (   0.0 sec)
Now organizing SCF variables                       ... done
                      ------------------
                      INITIAL GUESS DONE (   0.7 sec)
                      ------------------
--------------
SCF ITERATIONS
--------------
               ***  Starting incremental Fock matrix formation  ***

                         ----------------------------
                         !        ITERATION     0   !
                         ----------------------------
   Total Energy        :    -346.362438699104 Eh
   Energy Change       :    -346.362438699104 Eh
   MAX-DP              :       0.046787193162
   RMS-DP              :       0.002390893487
   Actual Damping      :       0.7000
   Actual Level Shift  :       0.2500 Eh
   Int. Num. El.       :    57.99954450 (UP=   28.99977225 DN=   28.99977225)
   Exchange            :   -38.16234814
   Correlation         :    -2.31360496


                         ----------------------------
                         !        ITERATION     1   !
                         ----------------------------
   Total Energy        :    -346.443879656887 Eh
   Energy Change       :      -0.081440957783 Eh
   MAX-DP              :       0.032920419213
   RMS-DP              :       0.001780825000
   Actual Damping      :       0.7000
   Actual Level Shift  :       0.2500 Eh
   Int. Num. El.       :    57.99947881 (UP=   28.99973941 DN=   28.99973941)
   Exchange            :   -37.92534174
   Correlation         :    -2.30372125

                               ***Turning on DIIS***

                         ----------------------------
                         !        ITERATION     2   !
                         ----------------------------
   Total Energy        :    -346.480001412123 Eh
   Energy Change       :      -0.036121755236 Eh
   MAX-DP              :       0.056103192501
   RMS-DP              :       0.003096880244
   Actual Damping      :       0.0000
   Actual Level Shift  :       0.2500 Eh
   Int. Num. El.       :    57.99943414 (UP=   28.99971707 DN=   28.99971707)
   Exchange            :   -37.76291799
   Correlation         :    -2.29661850
   DIIS-Error          :       0.031962803697


                         ----------------------------
                         !        ITERATION     3   !
                         ----------------------------
   Total Energy        :    -346.531838072138 Eh
   Energy Change       :      -0.051836660015 Eh
   MAX-DP              :       0.026861860633
   RMS-DP              :       0.001223650434
   Actual Damping      :       0.0000
   Actual Level Shift  :       0.2500 Eh
   Int. Num. El.       :    57.99936749 (UP=   28.99968374 DN=   28.99968374)
   Exchange            :   -37.50202682
   Correlation         :    -2.28484602
   DIIS-Error          :       0.043193280870
   DIIS coefficients:
      0.55106   0.44894


                         ----------------------------
                         !        ITERATION     4   !
                         ----------------------------
   Total Energy        :    -346.544729877233 Eh
   Energy Change       :      -0.012891805095 Eh
   MAX-DP              :       0.010097199975
   RMS-DP              :       0.000384814525
   Actual Damping      :       0.0000
   Actual Level Shift  :       0.2500 Eh
   Int. Num. El.       :    57.99939787 (UP=   28.99969893 DN=   28.99969893)
   Exchange            :   -37.59928397
   Correlation         :    -2.28960000
   DIIS-Error          :       0.007842101300
   DIIS coefficients:
      0.16211  -0.01733   0.85523

                      *** Initiating the SOSCF procedure ***
                           *** Shutting down DIIS ***
                      *** Re-Reading the Fockian *** 
                      *** Removing any level shift *** 

                         ----------------------------
                         !        ITERATION     5   !
                         ----------------------------
   Total Energy        :    -346.545359447672 Eh
   Energy Change       :      -0.000629570439 Eh
   MAX-DP              :       0.002919815055
   RMS-DP              :       0.000122712627
   Orbital gradient    :       0.000620731809
   Orbital Rotation    :       0.000620731809
   Actual Damping      :       0.0000
   Int. Num. El.       :    57.99940413 (UP=   28.99970206 DN=   28.99970206)
   Exchange            :   -37.62201822
   Correlation         :    -2.29076472

               *** Restarting incremental Fock matrix formation ***

                         ----------------------------
                         !        ITERATION     6   !
                         ----------------------------
   Total Energy        :    -346.545401554580 Eh
   Energy Change       :      -0.000042106908 Eh
   MAX-DP              :       0.001298490949
   RMS-DP              :       0.000054912569
   Orbital gradient    :       0.000229702754
   Orbital Rotation    :       0.000854374801
   Actual Damping      :       0.0000
   Int. Num. El.       :    57.99940687 (UP=   28.99970344 DN=   28.99970344)
   Exchange            :   -37.62753072
   Correlation         :    -2.29097261


                         ----------------------------
                         !        ITERATION     7   !
                         ----------------------------
   Total Energy        :    -346.545401272007 Eh
   Energy Change       :       0.000000282573 Eh
   MAX-DP              :       0.000833970335
   RMS-DP              :       0.000023090090
   Orbital gradient    :       0.000373535079
   Orbital Rotation    :       0.000408145923
   Actual Damping      :       0.0000
   Int. Num. El.       :    57.99940688 (UP=   28.99970344 DN=   28.99970344)
   Exchange            :   -37.62750398
   Correlation         :    -2.29100354


                         ----------------------------
                         !        ITERATION     8   !
                         ----------------------------
   Total Energy        :    -346.545404195612 Eh
   Energy Change       :      -0.000002923606 Eh
   MAX-DP              :       0.000266061740
   RMS-DP              :       0.000011534061
   Orbital gradient    :       0.000041764613
   Orbital Rotation    :       0.000088635261
   Actual Damping      :       0.0000
   Int. Num. El.       :    57.99940754 (UP=   28.99970377 DN=   28.99970377)
   Exchange            :   -37.62798201
   Correlation         :    -2.29100416


                         ----------------------------
                         !        ITERATION     9   !
                         ----------------------------
   Total Energy        :    -346.545404215831 Eh
   Energy Change       :      -0.000000020219 Eh
   MAX-DP              :       0.000083086394
   RMS-DP              :       0.000003518556
   Orbital gradient    :       0.000034231787
   Orbital Rotation    :       0.000071515683
   Actual Damping      :       0.0000
   Int. Num. El.       :    57.99940726 (UP=   28.99970363 DN=   28.99970363)
   Exchange            :   -37.62751683
   Correlation         :    -2.29098317


                         ----------------------------
                         !        ITERATION    10   !
                         ----------------------------
   Total Energy        :    -346.545404269309 Eh
   Energy Change       :      -0.000000053477 Eh
   MAX-DP              :       0.000057858145
   RMS-DP              :       0.000002521121
   Orbital gradient    :       0.000014153741
   Orbital Rotation    :       0.000044478511
   Actual Damping      :       0.0000
   Int. Num. El.       :    57.99940736 (UP=   28.99970368 DN=   28.99970368)
   Exchange            :   -37.62770524
   Correlation         :    -2.29099292


                         ----------------------------
                         !        ITERATION    11   !
                         ----------------------------
   Total Energy        :    -346.545404267502 Eh
   Energy Change       :       0.000000001807 Eh
   MAX-DP              :       0.000027748016
   RMS-DP              :       0.000001167027
   Orbital gradient    :       0.000014214716
   Orbital Rotation    :       0.000022027286
   Actual Damping      :       0.0000
   Int. Num. El.       :    57.99940739 (UP=   28.99970369 DN=   28.99970369)
   Exchange            :   -37.62778841
   Correlation         :    -2.29099657

                 **** Energy Check signals convergence ****
              ***Rediagonalizing the Fockian in SOSCF/NRSCF***

               *****************************************************
               *                     SUCCESS                       *
               *           SCF CONVERGED AFTER  12 CYCLES          *
               *****************************************************

Setting up the final grid:

General Integration Accuracy     IntAcc      ...  5.010
Radial Grid Type                 RadialGrid  ... Gauss-Chebyshev
Angular Grid (max. acc.)         AngularGrid ... Lebedev-434
Angular grid pruning method      GridPruning ... 3 (G Style)
Weight generation scheme         WeightScheme... Becke
Basis function cutoff            BFCut       ...    1.0000e-11
Integration weight cutoff        WCut        ...    1.0000e-14
Grids for H and He will be reduced by one unit

# of grid points (after initial pruning)     ... 139264 (   0.1 sec)
# of grid points (after weights+screening)   ... 127291 (   0.2 sec)
nearest neighbour list constructed           ...    0.0 sec
Grid point re-assignment to atoms done       ...    0.0 sec
Grid point division into batches done        ...    0.7 sec
Reduced shell lists constructed in    1.2 sec

Total number of grid points                  ...   127291
Total number of batches                      ...     1998
Average number of points per batch           ...       63
Average number of grid points per atom       ...     7956
Average number of shells per batch           ...    40.42 (63.16%)
Average number of basis functions per batch  ...    82.54 (64.49%)
Average number of large shells per batch     ...    30.51 (75.48%)
Average number of large basis fcns per batch ...    62.86 (76.16%)
Maximum spatial batch extension              ...  19.08, 21.79, 20.25 au
Average spatial batch extension              ...   2.03,  2.09,  2.17 au

Final grid set up in    1.5 sec
Final integration                            ... done (   0.9 sec)
Change in XC energy                          ...    -0.000111075
Integrated number of electrons               ...    57.999992780
Previous integrated no of electrons          ...    57.999407372

----------------
TOTAL SCF ENERGY
----------------

Total Energy       :         -346.54551535 Eh           -9429.98288 eV

Components:
Nuclear Repulsion  :          343.83454510 Eh            9356.21363 eV
Electronic Energy  :         -690.38006045 Eh          -18786.19652 eV
One Electron Energy:        -1149.95784903 Eh          -31291.94392 eV
Two Electron Energy:          459.57778858 Eh           12505.74741 eV

Virial components:
Potential Energy   :         -691.05071386 Eh          -18804.44592 eV
Kinetic Energy     :          344.50519851 Eh            9374.46304 eV
Virial Ratio       :            2.00592246


DFT components:
N(Alpha)           :       28.999996390065 electrons
N(Beta)            :       28.999996390065 electrons
N(Total)           :       57.999992780131 electrons
E(X)               :      -37.627846062015 Eh       
E(C)               :       -2.290986455794 Eh       
E(XC)              :      -39.918832517809 Eh       
DFET-embed. en.    :        0.000000000000 Eh       

---------------
SCF CONVERGENCE
---------------

  Last Energy change         ...   -6.2392e-09  Tolerance :   1.0000e-08
  Last MAX-Density change    ...    6.7472e-06  Tolerance :   1.0000e-07
  Last RMS-Density change    ...    3.4571e-07  Tolerance :   5.0000e-09
  Last Orbital Gradient      ...    1.4794e-06  Tolerance :   1.0000e-05
  Last Orbital Rotation      ...    3.1225e-06  Tolerance :   1.0000e-05

             **** THE GBW FILE WAS UPDATED (/Users/lailaal-madhagi/Desktop/Testing_XAS_Analysis_code/Anisole//Results_dir_Anisole_geom_element_O_2019-11-04_22-05-47//GTE1_Anisole_geom_2019-11-04_22-06-27//TDDFT_O-edge.gbw) ****
             **** DENSITY FILE WAS UPDATED (/Users/lailaal-madhagi/Desktop/Testing_XAS_Analysis_code/Anisole//Results_dir_Anisole_geom_element_O_2019-11-04_22-05-47//GTE1_Anisole_geom_2019-11-04_22-06-27//TDDFT_O-edge.scfp.tmp) ****
             **** ENERGY FILE WAS UPDATED (/Users/lailaal-madhagi/Desktop/Testing_XAS_Analysis_code/Anisole//Results_dir_Anisole_geom_element_O_2019-11-04_22-05-47//GTE1_Anisole_geom_2019-11-04_22-06-27//TDDFT_O-edge.en.tmp) ****
----------------
ORBITAL ENERGIES
----------------

  NO   OCC          E(Eh)            E(eV) 
   0   2.0000     -19.163873      -521.4755 
   1   2.0000     -10.237529      -278.5773 
   2   2.0000     -10.228958      -278.3441 
   3   2.0000     -10.177071      -276.9322 
   4   2.0000     -10.175363      -276.8857 
   5   2.0000     -10.173711      -276.8407 
   6   2.0000     -10.168244      -276.6920 
   7   2.0000     -10.167529      -276.6725 
   8   2.0000      -1.052679       -28.6448 
   9   2.0000      -0.838846       -22.8262 
  10   2.0000      -0.748718       -20.3737 
  11   2.0000      -0.735426       -20.0120 
  12   2.0000      -0.687487       -18.7075 
  13   2.0000      -0.599343       -16.3090 
  14   2.0000      -0.581997       -15.8370 
  15   2.0000      -0.528923       -14.3927 
  16   2.0000      -0.477141       -12.9837 
  17   2.0000      -0.467667       -12.7259 
  18   2.0000      -0.460124       -12.5206 
  19   2.0000      -0.439878       -11.9697 
  20   2.0000      -0.414028       -11.2663 
  21   2.0000      -0.403459       -10.9787 
  22   2.0000      -0.370726       -10.0880 
  23   2.0000      -0.356068        -9.6891 
  24   2.0000      -0.350213        -9.5298 
  25   2.0000      -0.315215        -8.5774 
  26   2.0000      -0.309808        -8.4303 
  27   2.0000      -0.241302        -6.5662 
  28   2.0000      -0.207776        -5.6539 
  29   0.0000       0.008382         0.2281 
  30   0.0000       0.023189         0.6310 
  31   0.0000       0.092237         2.5099 
  32   0.0000       0.113581         3.0907 
  33   0.0000       0.134034         3.6473 
  34   0.0000       0.139934         3.8078 
  35   0.0000       0.162031         4.4091 
  36   0.0000       0.162162         4.4126 
  37   0.0000       0.174063         4.7365 
  38   0.0000       0.181073         4.9272 
  39   0.0000       0.195384         5.3167 
  40   0.0000       0.233597         6.3565 
  41   0.0000       0.265406         7.2221 
  42   0.0000       0.312034         8.4909 
  43   0.0000       0.318858         8.6766 
  44   0.0000       0.352546         9.5933 
  45   0.0000       0.376328        10.2404 
  46   0.0000       0.473484        12.8841 
  47   0.0000       0.501633        13.6501 
  48   0.0000       0.516412        14.0523 
  49   0.0000       0.529532        14.4093 
  50   0.0000       0.551091        14.9959 
  51   0.0000       0.562940        15.3184 
  52   0.0000       0.582013        15.8374 
  53   0.0000       0.591781        16.1032 
  54   0.0000       0.609645        16.5893 
  55   0.0000       0.611671        16.6444 
  56   0.0000       0.627510        17.0754 
  57   0.0000       0.634651        17.2697 
  58   0.0000       0.635275        17.2867 
  59   0.0000       0.644631        17.5413 
  60   0.0000       0.677925        18.4473 
  61   0.0000       0.713214        19.4076 
  62   0.0000       0.715112        19.4592 
  63   0.0000       0.771085        20.9823 
  64   0.0000       0.820478        22.3263 
  65   0.0000       0.841835        22.9075 
  66   0.0000       0.846663        23.0389 
  67   0.0000       0.854556        23.2537 
  68   0.0000       0.857124        23.3235 
  69   0.0000       0.877383        23.8748 
  70   0.0000       0.917040        24.9539 
  71   0.0000       0.930241        25.3131 
  72   0.0000       0.949153        25.8278 
  73   0.0000       0.960262        26.1301 
  74   0.0000       0.967927        26.3386 
  75   0.0000       1.018861        27.7246 
  76   0.0000       1.032572        28.0977 
  77   0.0000       1.077139        29.3105 
  78   0.0000       1.108487        30.1635 
  79   0.0000       1.144921        31.1549 
  80   0.0000       1.181705        32.1558 
  81   0.0000       1.188933        32.3525 
  82   0.0000       1.260846        34.3094 
  83   0.0000       1.301163        35.4064 
  84   0.0000       1.337855        36.4049 
  85   0.0000       1.371386        37.3173 
  86   0.0000       1.430585        38.9282 
  87   0.0000       1.445357        39.3302 
  88   0.0000       1.458288        39.6820 
  89   0.0000       1.475086        40.1391 
  90   0.0000       1.500401        40.8280 
  91   0.0000       1.523060        41.4446 
  92   0.0000       1.579241        42.9733 
  93   0.0000       1.735209        47.2174 
  94   0.0000       1.764852        48.0241 
  95   0.0000       1.823889        49.6306 
  96   0.0000       1.846712        50.2516 
  97   0.0000       1.859176        50.5908 
  98   0.0000       1.911354        52.0106 
  99   0.0000       1.955577        53.2140 
 100   0.0000       1.977468        53.8096 
 101   0.0000       1.983620        53.9770 
 102   0.0000       2.018611        54.9292 
 103   0.0000       2.060570        56.0710 
 104   0.0000       2.080934        56.6251 
 105   0.0000       2.104571        57.2683 
 106   0.0000       2.154574        58.6289 
 107   0.0000       2.162360        58.8408 
 108   0.0000       2.165757        58.9332 
 109   0.0000       2.247379        61.1543 
 110   0.0000       2.257762        61.4368 
 111   0.0000       2.269522        61.7568 
 112   0.0000       2.318847        63.0990 
 113   0.0000       2.325338        63.2757 
 114   0.0000       2.381957        64.8164 
 115   0.0000       2.530955        68.8708 
 116   0.0000       2.533448        68.9386 
 117   0.0000       2.589721        70.4699 
 118   0.0000       2.623830        71.3981 
 119   0.0000       2.676400        72.8285 
 120   0.0000       2.681518        72.9678 
 121   0.0000       2.741073        74.5884 
 122   0.0000       2.744552        74.6830 
 123   0.0000       2.781315        75.6834 
 124   0.0000       2.902357        78.9771 
 125   0.0000       3.000480        81.6472 
 126   0.0000       3.200060        87.0781 
 127   0.0000       3.432578        93.4052 
------------------
MOLECULAR ORBITALS
------------------
                      0         1         2         3         4         5   
                 -19.16387 -10.23753 -10.22896 -10.17707 -10.17536 -10.17371
                   2.00000   2.00000   2.00000   2.00000   2.00000   2.00000
                  --------  --------  --------  --------  --------  --------
  0C   1s         0.000017 -0.000025  0.000042  0.002285 -0.994251  0.004923
  0C   2s         0.000005 -0.000119  0.000193 -0.000012 -0.036352 -0.000337
  0C   1pz        0.000000  0.000001 -0.000002  0.000006  0.000009  0.000001
  0C   1px       -0.000242 -0.000353 -0.000142  0.000015 -0.000531 -0.000100
  0C   1py        0.000087  0.000164 -0.000049  0.000276  0.000642  0.000079
  0C   3s        -0.006835 -0.009169 -0.003125 -0.004864  0.032021  0.004813
  0C   2pz        0.000018  0.000024  0.000027  0.000028 -0.000088 -0.000038
  0C   2px       -0.002140 -0.003090 -0.001011 -0.001432  0.004112  0.001889
  0C   2py        0.001567  0.002182  0.001754  0.001886 -0.005740 -0.002529
  0C   1dz2      -0.000011 -0.000090  0.000046 -0.000048  0.000579 -0.000092
  0C   1dxz       0.000000  0.000001 -0.000001  0.000000 -0.000015  0.000001
  0C   1dyz       0.000001  0.000004 -0.000001 -0.000000 -0.000020  0.000004
  0C   1dx2y2    -0.000020 -0.000052 -0.000047  0.000072 -0.000138 -0.000013
  0C   1dxy       0.000012  0.000008  0.000006 -0.000039 -0.000411  0.000022
  1C   1s        -0.000058  0.002828 -0.000107 -0.000918 -0.031872  0.000077
  1C   2s        -0.000572 -0.001973 -0.000532 -0.000558  0.001054 -0.000040
  1C   1pz        0.000001  0.000015  0.000000  0.000004 -0.000012  0.000004
  1C   1px        0.000051 -0.000621  0.000227  0.000059 -0.001371 -0.000020
  1C   1py        0.000053  0.000946 -0.000056  0.000173 -0.000171  0.000214
  1C   3s         0.007904  0.014520  0.008706  0.003587 -0.012886 -0.004573
  1C   2pz       -0.000152 -0.000207 -0.000081 -0.000054  0.000112  0.000055
  1C   2px       -0.004735 -0.004791  0.000427 -0.001333  0.003899  0.001368
  1C   2py       -0.006102 -0.008900 -0.004320 -0.002306  0.004378  0.002330
  1C   1dz2      -0.000136  0.000504 -0.000151 -0.000091 -0.000594 -0.000061
  1C   1dxz       0.000004  0.000016  0.000001  0.000001  0.000017  0.000002
  1C   1dyz       0.000011 -0.000011  0.000005  0.000003 -0.000001  0.000001
  1C   1dx2y2    -0.000244  0.000009  0.000003  0.000023  0.001115  0.000067
  1C   1dxy       0.000199  0.001087 -0.000055  0.000001  0.000179  0.000028
  2C   1s        -0.000042 -0.000230 -0.000038  0.023307 -0.026768 -0.002157
  2C   2s        -0.000359 -0.000755 -0.000118 -0.001291  0.001119  0.000097
  2C   1pz       -0.000001 -0.000003  0.000002  0.000015  0.000027 -0.000000
  2C   1px       -0.000107 -0.000216 -0.000071 -0.000839  0.000544 -0.000154
  2C   1py       -0.000029 -0.000066  0.000112  0.001046  0.001171  0.000047
  2C   3s         0.003643  0.006620  0.000428  0.011962 -0.012058 -0.006296
  2C   2pz        0.000028  0.000030  0.000023  0.000004 -0.000094 -0.000024
  2C   2px        0.002750  0.004656  0.000568  0.005780 -0.005306 -0.003431
  2C   2py        0.000563  0.000057  0.000919 -0.001649 -0.003063 -0.000093
  2C   1dz2      -0.000068 -0.000144 -0.000025  0.000601 -0.000594 -0.000077
  2C   1dxz       0.000000  0.000001  0.000001  0.000017  0.000017  0.000000
  2C   1dyz       0.000003  0.000006  0.000002 -0.000022  0.000042  0.000004
  2C   1dx2y2    -0.000038 -0.000057 -0.000027  0.000413 -0.000843 -0.000069
  2C   1dxy      -0.000005 -0.000032  0.000042  0.001070  0.000773 -0.000009
  3C   1s         0.000025 -0.000001 -0.000062  0.992884  0.002562 -0.062747
  3C   2s         0.000076 -0.000038 -0.000181  0.036199  0.000186 -0.004419
  3C   1pz       -0.000004 -0.000006 -0.000002  0.000016  0.000005 -0.000013
  3C   1px       -0.000220 -0.000395  0.000019  0.000330 -0.000098 -0.001298
  3C   1py       -0.000145 -0.000176 -0.000131  0.000722  0.000274 -0.000237
  3C   3s        -0.007665 -0.009506 -0.000877 -0.031326  0.004745  0.015347
  3C   2pz       -0.000058 -0.000097  0.000028 -0.000137  0.000048  0.000127
  3C   2px       -0.002579 -0.001896 -0.000809 -0.002537  0.001018  0.004586
  3C   2py       -0.002121 -0.004352  0.001842 -0.006100  0.002118  0.004928
  3C   1dz2      -0.000001 -0.000061 -0.000056 -0.000566  0.000048  0.000641
  3C   1dxz      -0.000001 -0.000001  0.000001  0.000001 -0.000002 -0.000017
  3C   1dyz       0.000000  0.000004  0.000002  0.000012 -0.000001 -0.000000
  3C   1dx2y2    -0.000021 -0.000088  0.000025  0.000249 -0.000057 -0.001145
  3C   1dxy      -0.000059 -0.000042  0.000047 -0.000355 -0.000075 -0.000121
  4C   1s         0.000131  0.995142  0.000312 -0.000169  0.000026 -0.003362
  4C   2s         0.001253  0.037518 -0.000461 -0.000217  0.000116 -0.002229
  4C   1pz        0.000002  0.000013  0.000006  0.000005  0.000001  0.000028
  4C   1px        0.000237  0.001333 -0.000355  0.000172 -0.000164  0.000549
  4C   1py        0.000037  0.000192  0.000374  0.000182  0.000111  0.001227
  4C   3s         0.000081 -0.029464  0.001407 -0.004645  0.005365  0.013551
  4C   2pz        0.000156  0.000273 -0.000139  0.000022  0.000010 -0.000115
  4C   2px        0.017081  0.019380  0.005271  0.001409 -0.001872 -0.005122
  4C   2py        0.002372  0.007571 -0.008434  0.000674  0.001091 -0.004174
  4C   1dz2      -0.000142 -0.001382 -0.000252  0.000028 -0.000018  0.000668
  4C   1dxz      -0.000003  0.000032  0.000009 -0.000004 -0.000001 -0.000018
  4C   1dyz       0.000003  0.000034  0.000010 -0.000002 -0.000002 -0.000046
  4C   1dx2y2     0.000004  0.000838  0.000046 -0.000008  0.000092  0.000878
  4C   1dxy      -0.000220  0.000545  0.000288 -0.000172 -0.000078 -0.000818
  5C   1s        -0.000051  0.003158 -0.000098  0.062600  0.005138  0.993151
  5C   2s        -0.000416 -0.002266  0.000046  0.000157  0.000666  0.036708
  5C   1pz        0.000001 -0.000024 -0.000002  0.000011  0.000002  0.000011
  5C   1px        0.000200 -0.000264 -0.000184  0.001308 -0.000083 -0.000494
  5C   1py       -0.000011 -0.001155  0.000021  0.000154  0.000150  0.000730
  5C   3s         0.008584  0.020787 -0.003723  0.011085 -0.003334 -0.034435
  5C   2pz        0.000061  0.000202 -0.000086  0.000028 -0.000025 -0.000094
  5C   2px       -0.007418 -0.004643 -0.002931 -0.004647  0.001901  0.004093
  5C   2py        0.005529  0.011799 -0.003749  0.002887 -0.001866 -0.006035
  5C   1dz2      -0.000119  0.000474  0.000104  0.000572  0.000083 -0.000637
  5C   1dxz      -0.000006 -0.000018 -0.000006 -0.000020 -0.000001  0.000017
  5C   1dyz       0.000006 -0.000034 -0.000003  0.000000 -0.000003  0.000022
  5C   1dx2y2    -0.000204  0.000621 -0.000071 -0.001096 -0.000012  0.000140
  5C   1dxy      -0.000321 -0.000858 -0.000240 -0.000318 -0.000008  0.000436
  6O   1s         0.995213  0.000213  0.000122 -0.000008  0.000008  0.000002
  6O   2s         0.031079  0.002159  0.000895 -0.000116  0.000130 -0.000082
  6O   1pz       -0.000039  0.000004 -0.000002  0.000000  0.000001  0.000000
  6O   1px       -0.000697  0.000061 -0.000139  0.000045 -0.000066  0.000071
  6O   1py       -0.001642  0.000172 -0.000076  0.000010  0.000047 -0.000008
  6O   3s        -0.026618 -0.010685 -0.002254  0.000183 -0.000364  0.000249
  6O   2pz        0.000123  0.000064  0.000060 -0.000004 -0.000002  0.000012
  6O   2px        0.004641  0.007832 -0.000548 -0.000533  0.000702 -0.000232
  6O   2py        0.004435  0.000622  0.003092 -0.000050 -0.000338  0.000616
  6O   1dz2       0.000510  0.001310  0.001092 -0.000046  0.000019 -0.000070
  6O   1dxz      -0.000008 -0.000045  0.000020  0.000002 -0.000001 -0.000001
  6O   1dyz      -0.000011 -0.000014 -0.000034  0.000001  0.000001  0.000001
  6O   1dx2y2    -0.000387 -0.001901  0.000086  0.000066 -0.000070  0.000012
  6O   1dxy      -0.000013 -0.000913  0.001408  0.000049 -0.000027 -0.000110
  7C   1s        -0.000019 -0.000427  0.995227  0.000035  0.000009  0.000111
  7C   2s        -0.000145 -0.000384  0.036902 -0.000150 -0.000018 -0.000364
  7C   1pz        0.000006  0.000002  0.000014  0.000000 -0.000001  0.000002
  7C   1px       -0.000688  0.000142 -0.001327  0.000029  0.000030  0.000061
  7C   1py        0.000490  0.000026  0.001044  0.000022 -0.000054  0.000061
  7C   3s         0.005290 -0.000450 -0.026035  0.000485 -0.000305  0.001472
  7C   2pz        0.000010 -0.000059  0.000043  0.000002 -0.000003 -0.000015
  7C   2px       -0.001509 -0.000769 -0.000548 -0.000239  0.000034 -0.000619
  7C   2py        0.000850 -0.002252  0.001954  0.000108 -0.000161 -0.000320
  7C   1dz2       0.000076 -0.000208 -0.000280 -0.000036  0.000014 -0.000059
  7C   1dxz       0.000002  0.000006 -0.000013  0.000000  0.000001  0.000001
  7C   1dyz      -0.000007  0.000005  0.000006  0.000001 -0.000001  0.000002
  7C   1dx2y2     0.000228  0.000169 -0.000004  0.000003  0.000023  0.000010
  7C   1dxy       0.000064  0.000079 -0.000720 -0.000006  0.000032  0.000005
  8H   1s        -0.000360  0.000143 -0.000735 -0.000014  0.000013 -0.000046
  8H   2s        -0.000484  0.000311  0.005297 -0.000026  0.000047  0.000013
  9H   1s        -0.000360  0.000143 -0.000735 -0.000014  0.000013 -0.000046
  9H   2s        -0.000482  0.000309  0.005298 -0.000024  0.000047  0.000010
 10H   1s        -0.000372 -0.000144 -0.000757 -0.000023  0.000006 -0.000103
 10H   2s        -0.001060 -0.001818  0.006679  0.000008 -0.000011 -0.000999
 11H   1s         0.000016 -0.000008 -0.000066 -0.000052  0.001353  0.000083
 11H   2s        -0.000228 -0.000262 -0.000427 -0.000265 -0.002727  0.000875
 12H   1s         0.000305  0.000159  0.000083  0.000094  0.000193 -0.000074
 12H   2s         0.002387  0.002820  0.000824  0.000799 -0.001197 -0.000405
 13H   1s         0.000115  0.000154  0.000046 -0.000163  0.000170 -0.000060
 13H   2s         0.000768  0.001313  0.000229  0.001264 -0.001285 -0.000593
 14H   1s         0.000029 -0.000098  0.000134 -0.001335  0.000044 -0.000041
 14H   2s        -0.000369 -0.000666  0.000724  0.002837  0.000285  0.000997
 15H   1s         0.000439  0.000080  0.000157 -0.000239 -0.000108 -0.001349
 15H   2s         0.003151  0.003859 -0.001716  0.001183 -0.000781  0.003222
                      6         7         8         9        10        11   
                 -10.16824 -10.16753  -1.05268  -0.83885  -0.74872  -0.73543
                   2.00000   2.00000   2.00000   2.00000   2.00000   2.00000
                  --------  --------  --------  --------  --------  --------
  0C   1s         0.031793  0.027293  0.002824  0.092476  0.021798 -0.127435
  0C   2s         0.003349  0.003147 -0.005664 -0.175489 -0.040851  0.248751
  0C   1pz        0.000011 -0.000027  0.000005  0.000708  0.001412  0.000036
  0C   1px        0.001397 -0.000472 -0.004530 -0.036505  0.059149  0.028479
  0C   1py        0.000091 -0.001221  0.001716  0.047191  0.052309 -0.007159
  0C   3s        -0.014282 -0.015058 -0.030119 -0.112633 -0.032422  0.185177
  0C   2pz        0.000039  0.000117 -0.000100  0.000091  0.000277  0.000180
  0C   2px       -0.005502 -0.001990 -0.011204 -0.004102  0.009373 -0.001584
  0C   2py        0.003716  0.006537 -0.001559  0.005899  0.011160  0.009548
  0C   1dz2      -0.000636 -0.000637  0.000360  0.008935  0.001864 -0.009680
  0C   1dxz       0.000021  0.000021 -0.000006 -0.000094 -0.000015  0.000119
  0C   1dyz       0.000002  0.000041 -0.000003 -0.000308 -0.000217  0.000302
  0C   1dx2y2     0.001120 -0.000682 -0.000472  0.000085  0.007079  0.001571
  0C   1dxy       0.000375  0.000929  0.000062  0.000135 -0.001951  0.000174
  1C   1s        -0.994575 -0.009311  0.015654  0.091969 -0.074677 -0.083459
  1C   2s        -0.036668 -0.000440 -0.031082 -0.173242  0.145934  0.162103
  1C   1pz        0.000020 -0.000003  0.000167  0.001269 -0.000299 -0.000146
  1C   1px        0.000378 -0.000143 -0.017615  0.025042  0.063658 -0.083178
  1C   1py        0.000887 -0.000106  0.013958  0.055898 -0.035365  0.019340
  1C   3s         0.033680  0.006610  0.009442 -0.112967  0.114551  0.121854
  1C   2pz       -0.000156 -0.000075 -0.000512  0.000086  0.000193  0.000124
  1C   2px       -0.002570 -0.001852 -0.031349 -0.000323  0.020285 -0.008127
  1C   2py       -0.007029 -0.003181 -0.015621  0.004484  0.003092  0.008633
  1C   1dz2       0.000632  0.000069  0.002259  0.008806 -0.005783 -0.006358
  1C   1dxz      -0.000004  0.000000  0.000035 -0.000106 -0.000044  0.000210
  1C   1dyz      -0.000012 -0.000002 -0.000035 -0.000307  0.000220  0.000126
  1C   1dx2y2    -0.000404 -0.000007 -0.001082  0.000075 -0.002592  0.006254
  1C   1dxy       0.000281  0.000064  0.003373 -0.000475 -0.004614  0.005060
  2C   1s         0.010113 -0.994457  0.001432  0.091219  0.092898 -0.049497
  2C   2s         0.000290 -0.036632 -0.003918 -0.172186 -0.179690  0.096108
  2C   1pz        0.000004 -0.000008 -0.000023 -0.000506  0.000393  0.001964
  2C   1px        0.000174 -0.000929 -0.002503 -0.060086 -0.029330 -0.000704
  2C   1py        0.000126 -0.000093 -0.000372 -0.006287  0.029327  0.099128
  2C   3s         0.005752  0.033978  0.003439 -0.105931 -0.130464  0.071358
  2C   2pz        0.000031  0.000068  0.000065 -0.000063  0.000203  0.000305
  2C   2px        0.003065  0.007966  0.008803 -0.005594  0.004816 -0.004379
  2C   2py        0.000569  0.000881  0.000484 -0.001197  0.008631  0.017013
  2C   1dz2       0.000063  0.000636  0.000058  0.008861  0.007325 -0.003818
  2C   1dxz       0.000000 -0.000002 -0.000003 -0.000100 -0.000019  0.000201
  2C   1dyz      -0.000002 -0.000030  0.000000 -0.000299 -0.000228  0.000232
  2C   1dx2y2     0.000029  0.000440 -0.000131 -0.000292 -0.000219 -0.002258
  2C   1dxy       0.000041  0.000118 -0.000062 -0.000087  0.003110  0.008760
  3C   1s        -0.001112  0.023502  0.002795  0.093665  0.090434  0.074964
  3C   2s         0.000484  0.003031 -0.005337 -0.177331 -0.174753 -0.146679
  3C   1pz        0.000003  0.000017 -0.000075 -0.001224 -0.000514 -0.000032
  3C   1px        0.000088 -0.000773 -0.003998 -0.024708  0.027243 -0.088537
  3C   1py        0.000116  0.001107 -0.002544 -0.053684 -0.034513  0.026867
  3C   3s        -0.004601 -0.014898 -0.031496 -0.117067 -0.135491 -0.113116
  3C   2pz       -0.000066 -0.000138 -0.000141 -0.000219  0.000053  0.000141
  3C   2px       -0.001197 -0.000293 -0.011255 -0.003645 -0.000471 -0.014834
  3C   2py       -0.002933 -0.006847 -0.003460 -0.010039  0.003230  0.011515
  3C   1dz2       0.000104 -0.000636  0.000388  0.009144  0.007306  0.005785
  3C   1dxz      -0.000001 -0.000017 -0.000013 -0.000102 -0.000007 -0.000202
  3C   1dyz      -0.000003  0.000019 -0.000007 -0.000315 -0.000276 -0.000106
  3C   1dx2y2     0.000002 -0.000206 -0.000404  0.000027  0.002244 -0.006212
  3C   1dxy       0.000028 -0.001138 -0.000308 -0.000088  0.003006 -0.004973
  4C   1s         0.003004 -0.000053  0.076757  0.084654 -0.099783  0.045199
  4C   2s         0.002228  0.000653 -0.142476 -0.165167  0.202269 -0.091520
  4C   1pz        0.000016 -0.000001 -0.001053  0.000653  0.001633  0.002354
  4C   1px       -0.000813 -0.000113 -0.106752  0.083286  0.016842 -0.000516
  4C   1py        0.001057  0.000001 -0.018875  0.006916  0.075219  0.119181
  4C   3s        -0.014003 -0.005582 -0.041916 -0.101802  0.139713 -0.062438
  4C   2pz       -0.000012  0.000041  0.000732  0.000477 -0.000288  0.000421
  4C   2px        0.005788  0.004011  0.062837  0.029022 -0.009350  0.004584
  4C   2py       -0.002445  0.000798  0.016652  0.014435 -0.011356  0.019943
  4C   1dz2      -0.000621  0.000059  0.010673  0.006858 -0.008003  0.002876
  4C   1dxz      -0.000017 -0.000000 -0.000310 -0.000040  0.000126 -0.000188
  4C   1dyz       0.000024 -0.000003 -0.000108 -0.000327  0.000267 -0.000234
  4C   1dx2y2    -0.000469  0.000042 -0.014745  0.004656  0.000949  0.003919
  4C   1dxy      -0.001057  0.000015 -0.005035  0.000289  0.001311 -0.009063
  5C   1s        -0.000135 -0.000869  0.014795  0.092054  0.011600  0.128291
  5C   2s         0.000038 -0.000161 -0.029751 -0.174262 -0.020829 -0.249841
  5C   1pz        0.000004  0.000001 -0.000409 -0.000699  0.001443 -0.000058
  5C   1px       -0.000028 -0.000172 -0.012623  0.038832  0.068229  0.020420
  5C   1py        0.000212  0.000088 -0.016638 -0.047762  0.050933 -0.009511
  5C   3s         0.004764  0.006716  0.020758 -0.099193 -0.027322 -0.185343
  5C   2pz        0.000033  0.000043  0.000107  0.000105 -0.000130  0.000164
  5C   2px       -0.001611 -0.002235 -0.032695  0.002646  0.000878 -0.011949
  5C   2py        0.002197  0.002897  0.015802  0.004779 -0.007702  0.012209
  5C   1dz2       0.000070  0.000054  0.002101  0.008699  0.001197  0.009691
  5C   1dxz      -0.000001 -0.000002 -0.000088 -0.000081  0.000005 -0.000117
  5C   1dyz      -0.000001 -0.000003 -0.000102 -0.000294  0.000115 -0.000310
  5C   1dx2y2    -0.000071  0.000026  0.000440  0.000053 -0.006841 -0.001105
  5C   1dxy      -0.000006 -0.000059 -0.003431  0.000710  0.003057 -0.000187
  6O   1s         0.000002  0.000011  0.199791 -0.030516  0.001984 -0.012381
  6O   2s         0.000164  0.000172 -0.434524  0.071643 -0.004850  0.028675
  6O   1pz       -0.000001  0.000000  0.002161 -0.000171  0.000269  0.000461
  6O   1px       -0.000074 -0.000020  0.039553  0.060096 -0.195295  0.049942
  6O   1py       -0.000012  0.000009  0.089691 -0.025020  0.068380  0.009275
  6O   3s        -0.000323 -0.001158 -0.464004  0.067258 -0.003338  0.033054
  6O   2pz        0.000001  0.000002  0.001272 -0.000056  0.000181  0.000226
  6O   2px       -0.000123  0.000421  0.033336  0.035185 -0.089782  0.026136
  6O   2py        0.000085 -0.000010  0.049860 -0.012776  0.034459  0.003693
  6O   1dz2       0.000081 -0.000009  0.011682 -0.000152  0.000436  0.000367
  6O   1dxz       0.000002 -0.000000 -0.000107 -0.000115  0.000260 -0.000119
  6O   1dyz      -0.000004  0.000000 -0.000303  0.000044 -0.000122 -0.000044
  6O   1dx2y2     0.000101 -0.000009 -0.005507 -0.003080  0.007760 -0.000051
  6O   1dxy       0.000111 -0.000012  0.002250 -0.004556  0.010028 -0.005489
  7C   1s        -0.000015 -0.000016  0.064141 -0.032720  0.110364 -0.022765
  7C   2s         0.000137  0.000091 -0.119948  0.064401 -0.219291  0.045771
  7C   1pz        0.000001 -0.000000 -0.000860  0.000422 -0.000541  0.000398
  7C   1px       -0.000038 -0.000009  0.067932 -0.016862  0.011281  0.002765
  7C   1py        0.000028  0.000003 -0.059167  0.024350 -0.028548  0.017889
  7C   3s        -0.000339 -0.000392 -0.050355  0.040893 -0.179173  0.037537
  7C   2pz        0.000003  0.000002 -0.000009 -0.000100  0.000163 -0.000026
  7C   2px        0.000294  0.000180 -0.000719  0.000815 -0.005790  0.004671
  7C   2py        0.000089 -0.000022 -0.000287 -0.004137  0.008314 -0.001251
  7C   1dz2       0.000002  0.000007  0.008438 -0.001963  0.001568  0.000088
  7C   1dxz      -0.000002 -0.000000  0.000192 -0.000062  0.000063 -0.000043
  7C   1dyz       0.000000 -0.000000 -0.000197  0.000061 -0.000090  0.000013
  7C   1dx2y2    -0.000030 -0.000006 -0.001636 -0.000504  0.002378 -0.001308
  7C   1dxy      -0.000053  0.000000  0.013468 -0.003658  0.002869 -0.001506
  8H   1s         0.000009  0.000023 -0.020371  0.016449 -0.069265  0.016006
  8H   2s        -0.000040 -0.000019 -0.000654  0.002827 -0.015142  0.003973
  9H   1s         0.000009  0.000023 -0.020372  0.016462 -0.069294  0.016033
  9H   2s        -0.000041 -0.000018 -0.000650  0.002820 -0.015141  0.003961
 10H   1s         0.000039  0.000014 -0.022060  0.012129 -0.064611  0.004424
 10H   2s         0.000060  0.000139 -0.002188 -0.004220 -0.007853 -0.007193
 11H   1s         0.000076  0.000101 -0.000106 -0.034954 -0.011387  0.075711
 11H   2s        -0.001181 -0.001187  0.001336 -0.004478 -0.003975  0.015111
 12H   1s         0.001314  0.000109 -0.004902 -0.033639  0.045888  0.048703
 12H   2s        -0.002730  0.000592  0.007406 -0.001648  0.004787  0.009796
 13H   1s         0.000044  0.001358  0.000247 -0.033961 -0.050758  0.028680
 13H   2s         0.000529 -0.002527  0.003365 -0.004114 -0.008774  0.005864
 14H   1s        -0.000098  0.000099 -0.000188 -0.035929 -0.050826 -0.045889
 14H   2s        -0.000906 -0.001190  0.000495 -0.005987 -0.010224 -0.009526
 15H   1s         0.000059  0.000090 -0.004740 -0.034410 -0.010788 -0.078938
 15H   2s         0.000468  0.000585  0.009953  0.000479 -0.011376 -0.012280
                     12        13        14        15        16        17   
                  -0.68749  -0.59934  -0.58200  -0.52892  -0.47714  -0.46767
                   2.00000   2.00000   2.00000   2.00000   2.00000   2.00000
                  --------  --------  --------  --------  --------  --------
  0C   1s         0.007576 -0.081597  0.059549 -0.025490  0.052714 -0.003453
  0C   2s        -0.014578  0.165988 -0.120774  0.054741 -0.107118  0.006186
  0C   1pz       -0.001698 -0.001256 -0.003058  0.002059  0.001014  0.002556
  0C   1px       -0.087085 -0.122129 -0.079497 -0.074457  0.004847  0.187400
  0C   1py       -0.057964 -0.024384 -0.128812  0.127383  0.049945  0.069895
  0C   3s        -0.001098  0.123650 -0.099721  0.053752 -0.130949  0.016178
  0C   2pz       -0.000234 -0.000114 -0.001159  0.000779 -0.000030  0.000428
  0C   2px       -0.009026 -0.053743 -0.014193 -0.032402 -0.014057  0.054565
  0C   2py       -0.009059  0.011443 -0.054025  0.049541  0.002728  0.004695
  0C   1dz2       0.000358 -0.003912  0.002785 -0.001557  0.001410  0.000185
  0C   1dxz       0.000013 -0.000039  0.000037  0.000018  0.000202 -0.000009
  0C   1dyz       0.000150  0.000242  0.000017  0.000059 -0.000093 -0.000067
  0C   1dx2y2    -0.007182 -0.006114 -0.004167 -0.000275  0.005190  0.002714
  0C   1dxy       0.003105 -0.002195  0.004725  0.000160  0.009357 -0.001125
  1C   1s         0.072862  0.088961  0.027784 -0.002805 -0.055378 -0.012976
  1C   2s        -0.141711 -0.179172 -0.056543  0.008213  0.111620  0.029185
  1C   1pz        0.000559 -0.000938 -0.001217  0.003046  0.003096 -0.000256
  1C   1px        0.017468 -0.107733  0.145011  0.023308  0.090893 -0.181163
  1C   1py        0.022173 -0.013310 -0.107401  0.146019  0.128587  0.046653
  1C   3s        -0.112015 -0.145756 -0.035661  0.016953  0.153019 -0.000250
  1C   2pz       -0.000002 -0.000898 -0.000577  0.001047  0.000857  0.000293
  1C   2px        0.014317 -0.053241  0.026675  0.007636  0.000736 -0.071916
  1C   2py       -0.004602 -0.028326 -0.037364  0.049753  0.043642  0.037887
  1C   1dz2       0.004702  0.004446  0.001288 -0.000763 -0.002704  0.000439
  1C   1dxz      -0.000041 -0.000031 -0.000172  0.000033  0.000061  0.000077
  1C   1dyz      -0.000231 -0.000262  0.000030 -0.000069  0.000316 -0.000043
  1C   1dx2y2     0.003314  0.005287 -0.005657  0.004647 -0.009707  0.002552
  1C   1dxy      -0.000532 -0.000787 -0.006157 -0.000228  0.004738  0.003373
  2C   1s        -0.089681 -0.019816 -0.086281  0.006447 -0.048569  0.014835
  2C   2s         0.177047  0.040431  0.175505 -0.012318  0.098568 -0.029428
  2C   1pz       -0.000756  0.003404 -0.000913 -0.000670 -0.003272 -0.002815
  2C   1px       -0.002001 -0.034145 -0.049854 -0.101642 -0.237802  0.100254
  2C   1py       -0.037688  0.182445 -0.030328 -0.001591 -0.089551 -0.172996
  2C   3s         0.137458  0.029107  0.126903  0.012752  0.106296 -0.041579
  2C   2pz       -0.000186  0.000701 -0.000558 -0.000281 -0.001196 -0.001255
  2C   2px       -0.016035 -0.017500 -0.047082 -0.025624 -0.081695  0.027618
  2C   2py       -0.004315  0.040853 -0.012805 -0.005865 -0.033610 -0.071698
  2C   1dz2      -0.005906 -0.000970 -0.003729 -0.000417 -0.002979  0.001058
  2C   1dxz       0.000015  0.000172  0.000084 -0.000030  0.000119 -0.000100
  2C   1dyz       0.000173  0.000112  0.000013  0.000092 -0.000088  0.000000
  2C   1dx2y2     0.000654 -0.001192  0.005914 -0.004074  0.009977 -0.002947
  2C   1dxy      -0.002671  0.008540  0.000367 -0.000437  0.001306 -0.003481
  3C   1s        -0.051781  0.094656  0.039664 -0.020986  0.041932 -0.027789
  3C   2s         0.103950 -0.193096 -0.081168  0.044608 -0.085360  0.054932
  3C   1pz        0.000049  0.001104  0.001227 -0.003258 -0.001207 -0.000330
  3C   1px       -0.089122  0.067541 -0.137120 -0.034130 -0.109027 -0.181162
  3C   1py        0.030707  0.034453  0.106122 -0.153763 -0.025878  0.042452
  3C   3s         0.072124 -0.130365 -0.059555  0.052520 -0.098321  0.093068
  3C   2pz       -0.000221  0.001031  0.000657 -0.001294 -0.000370 -0.000052
  3C   2px       -0.029740  0.041742 -0.031344 -0.003079 -0.039502 -0.027120
  3C   2py       -0.001474  0.038716  0.042756 -0.064318 -0.006084  0.006056
  3C   1dz2      -0.003151  0.004322  0.001940 -0.001532  0.000753 -0.001205
  3C   1dxz      -0.000094 -0.000057 -0.000157 -0.000004 -0.000089 -0.000000
  3C   1dyz       0.000178 -0.000263 -0.000042  0.000046 -0.000178  0.000188
  3C   1dx2y2    -0.005100  0.005170 -0.003033 -0.000054  0.005804 -0.006913
  3C   1dxy      -0.004814 -0.002134 -0.005844 -0.000999 -0.005897  0.001624
  4C   1s         0.031062 -0.014323 -0.087105  0.009645  0.006936 -0.003867
  4C   2s        -0.063110  0.030091  0.187855 -0.016235 -0.012416  0.006591
  4C   1pz        0.001946 -0.004063  0.000488  0.002665 -0.002255 -0.002942
  4C   1px        0.152758  0.053603 -0.004183  0.224421 -0.109618  0.068023
  4C   1py        0.047685 -0.222123  0.026180  0.062470 -0.074618 -0.164348
  4C   3s        -0.050778  0.015480  0.120912 -0.018555 -0.022146  0.004573
  4C   2pz        0.000015 -0.000581  0.000272  0.000756  0.000078 -0.000592
  4C   2px        0.023300  0.011269  0.018940  0.056937  0.013066 -0.010110
  4C   2py       -0.007510 -0.032806  0.008444  0.020025  0.001115 -0.022875
  4C   1dz2      -0.000785 -0.000817 -0.002613 -0.003698  0.003013 -0.001552
  4C   1dxz       0.000276  0.000132  0.000029  0.000173 -0.000381 -0.000084
  4C   1dyz      -0.000160  0.000048  0.000104  0.000069  0.000175 -0.000185
  4C   1dx2y2     0.012379  0.000835 -0.000499  0.004623 -0.017837  0.009591
  4C   1dxy       0.009100  0.005853  0.000198  0.004967 -0.011361 -0.007887
  5C   1s         0.056004 -0.067253  0.048175 -0.002756 -0.031741  0.041573
  5C   2s        -0.108433  0.135346 -0.098665  0.006897  0.062032 -0.086803
  5C   1pz       -0.001002  0.001707  0.003276 -0.003277  0.000584  0.002904
  5C   1px       -0.042341  0.145627  0.094750  0.054134  0.184434  0.085471
  5C   1py       -0.037597  0.039724  0.135924 -0.182795 -0.029081  0.122793
  5C   3s        -0.086238  0.109787 -0.075584  0.010090  0.114406 -0.105391
  5C   2pz       -0.000336  0.000403  0.001160 -0.000712  0.000270  0.001578
  5C   2px       -0.028210  0.076900  0.018772  0.034092  0.054844  0.074170
  5C   2py       -0.008683 -0.004471  0.053002 -0.046081 -0.003543  0.058116
  5C   1dz2       0.003484 -0.003360  0.002495 -0.000953 -0.002204  0.001287
  5C   1dxz       0.000033 -0.000023  0.000009  0.000035 -0.000122  0.000121
  5C   1dyz      -0.000238  0.000235  0.000051 -0.000045  0.000214 -0.000031
  5C   1dx2y2     0.006494 -0.006418 -0.005639  0.003958 -0.008676  0.001367
  5C   1dxy       0.001408 -0.000946  0.003722  0.000065 -0.004595  0.006619
  6O   1s        -0.059042  0.003356  0.046979  0.021272  0.004834  0.020075
  6O   2s         0.140132 -0.006194 -0.112861 -0.049646 -0.007791 -0.044728
  6O   1pz        0.000426 -0.001690 -0.001009 -0.001277 -0.000245 -0.005532
  6O   1px       -0.125052 -0.028908 -0.159024 -0.278690  0.224811 -0.042399
  6O   1py        0.054645 -0.077253 -0.000635  0.021047 -0.072314 -0.255953
  6O   3s         0.167249 -0.012826 -0.150107 -0.075222 -0.044218 -0.062782
  6O   2pz        0.000316 -0.000964 -0.000605 -0.000652 -0.000076 -0.003465
  6O   2px       -0.054853 -0.016654 -0.073602 -0.126098  0.115518 -0.029056
  6O   2py        0.030326 -0.043742 -0.007019  0.006182 -0.033958 -0.160388
  6O   1dz2       0.002511 -0.000943 -0.003154 -0.001497 -0.000657 -0.004487
  6O   1dxz       0.000147  0.000157  0.000149  0.000189 -0.000133  0.000172
  6O   1dyz      -0.000146  0.000195  0.000090  0.000099  0.000111  0.000580
  6O   1dx2y2     0.004416 -0.005239  0.002604  0.000316 -0.005486 -0.016660
  6O   1dxy       0.006785  0.008781  0.004593  0.007930 -0.004977  0.010552
  7C   1s         0.128774  0.024719 -0.051185 -0.021758  0.014633  0.002974
  7C   2s        -0.257806 -0.051946  0.102900  0.040747 -0.027532 -0.008893
  7C   1pz        0.000688 -0.000501 -0.002380 -0.004170  0.001998 -0.003442
  7C   1px       -0.041709 -0.054039  0.081368  0.055107 -0.109151 -0.221077
  7C   1py        0.042839 -0.009462 -0.132458 -0.206957  0.127308 -0.106763
  7C   3s        -0.237424 -0.054759  0.114389  0.053712 -0.044990 -0.008101
  7C   2pz        0.000350 -0.000111 -0.000863 -0.001630  0.000946 -0.001805
  7C   2px       -0.018460 -0.024216  0.028486  0.011617 -0.044328 -0.097348
  7C   2py        0.021274 -0.000672 -0.046860 -0.077944  0.054351 -0.058733
  7C   1dz2      -0.003554 -0.004092  0.006670  0.004272 -0.007082 -0.013190
  7C   1dxz      -0.000111  0.000018  0.000271  0.000375 -0.000212  0.000152
  7C   1dyz       0.000045  0.000107 -0.000181 -0.000073  0.000217  0.000540
  7C   1dx2y2     0.001988  0.002156  0.001513  0.002279 -0.001705  0.000493
  7C   1dxy      -0.007490 -0.002104  0.014979  0.017701 -0.012496 -0.002377
  8H   1s        -0.097560 -0.033988  0.057770  0.025027 -0.041821 -0.080973
  8H   2s        -0.026899 -0.014137  0.023819  0.013642 -0.027006 -0.057676
  9H   1s        -0.097565 -0.034098  0.057686  0.024785 -0.041687 -0.081762
  9H   2s        -0.026902 -0.014151  0.023762  0.013500 -0.026850 -0.058231
 10H   1s        -0.106144 -0.000289  0.085298  0.115970 -0.046735  0.095994
 10H   2s        -0.033174  0.011073  0.038921  0.070509 -0.016016  0.059897
 11H   1s        -0.003633  0.088428 -0.074800  0.094976 -0.034239 -0.025805
 11H   2s        -0.000866  0.030630 -0.029056  0.050916 -0.014933 -0.016684
 12H   1s        -0.040126 -0.095587 -0.039895  0.071378  0.139166 -0.006809
 12H   2s        -0.007732 -0.030004 -0.019186  0.038100  0.089988 -0.018025
 13H   1s         0.065284  0.021387  0.095285  0.042826  0.182917 -0.059539
 13H   2s         0.015345  0.006529  0.033810  0.027326  0.123794 -0.043984
 14H   1s         0.039127 -0.101912 -0.053001  0.094946 -0.007695  0.046215
 14H   2s         0.008739 -0.034343 -0.021227  0.051797  0.002215  0.030474
 15H   1s        -0.041991  0.077874 -0.063344  0.100504  0.104303 -0.065713
 15H   2s        -0.015975  0.022181 -0.023444  0.070086  0.069731 -0.039646
                     18        19        20        21        22        23   
                  -0.46012  -0.43988  -0.41403  -0.40346  -0.37073  -0.35607
                   2.00000   2.00000   2.00000   2.00000   2.00000   2.00000
                  --------  --------  --------  --------  --------  --------
  0C   1s        -0.000008  0.019348  0.017501 -0.016137 -0.000025  0.008446
  0C   2s         0.000014 -0.037897 -0.037467  0.034491  0.000062 -0.020210
  0C   1pz       -0.017714 -0.004207  0.002515  0.000713 -0.149981  0.005217
  0C   1px        0.000139  0.107991 -0.020758  0.240002  0.001192  0.203143
  0C   1py        0.000126 -0.247290  0.131980 -0.046919  0.002777  0.205487
  0C   3s         0.000095 -0.040516 -0.068706  0.066129  0.000099 -0.026603
  0C   2pz       -0.006082 -0.000919  0.001280  0.000232 -0.081836  0.001764
  0C   2px        0.000106  0.050643  0.019540  0.079060  0.000623  0.076789
  0C   2py        0.000074 -0.062936  0.057569 -0.016659  0.001590  0.068680
  0C   1dz2       0.000001  0.002586 -0.000791  0.001070  0.000105 -0.000796
  0C   1dxz      -0.001279  0.000220 -0.000007  0.000104 -0.005426 -0.000013
  0C   1dyz       0.000424  0.000009  0.000176 -0.000132  0.004694 -0.000250
  0C   1dx2y2     0.000013 -0.000899 -0.007127  0.005750  0.000128  0.012653
  0C   1dxy       0.000026  0.012754  0.001390  0.003670  0.000094 -0.004914
  1C   1s         0.000008 -0.030137  0.012335 -0.002272  0.000008 -0.004033
  1C   2s        -0.000023  0.059334 -0.026307  0.008438 -0.000011  0.014354
  1C   1pz       -0.043195  0.001083  0.005962 -0.002388 -0.189626 -0.004122
  1C   1px        0.000287  0.002437 -0.003077 -0.233413  0.000958 -0.209102
  1C   1py        0.000751  0.051887  0.298998 -0.056785  0.003913 -0.134209
  1C   3s         0.000013  0.080096 -0.082500 -0.014276 -0.000069 -0.035022
  1C   2pz       -0.020678  0.000197  0.001985 -0.000613 -0.107924 -0.000981
  1C   2px        0.000268  0.035294 -0.024482 -0.061221  0.000645 -0.071758
  1C   2py        0.000332 -0.002352  0.106036 -0.016706  0.002177 -0.022541
  1C   1dz2       0.000075 -0.001438 -0.001706  0.001842  0.000311  0.002700
  1C   1dxz      -0.002158  0.000261  0.000160  0.000082 -0.000411 -0.000160
  1C   1dyz       0.002860  0.000117  0.000202 -0.000237  0.009128 -0.000318
  1C   1dx2y2     0.000075  0.000335 -0.004718  0.008878  0.000197  0.008684
  1C   1dxy       0.000026  0.012163  0.008542  0.002141 -0.000037 -0.009508
  2C   1s        -0.000008 -0.039831 -0.015902 -0.006987 -0.000030  0.008029
  2C   2s         0.000021  0.081240  0.032297  0.014235  0.000072 -0.024103
  2C   1pz       -0.011457  0.002352 -0.002451 -0.001382 -0.134844 -0.005292
  2C   1px        0.000269  0.137244  0.094992  0.048934  0.001018 -0.244101
  2C   1py        0.000356  0.074432 -0.154493 -0.090601  0.002686 -0.181582
  2C   3s        -0.000031  0.126400  0.062392  0.029419  0.000140 -0.005942
  2C   2pz       -0.006984  0.000611 -0.000186 -0.001004 -0.076425 -0.001546
  2C   2px        0.000061  0.046881  0.034652  0.023347  0.000532 -0.051152
  2C   2py        0.000202  0.015558 -0.021014 -0.060911  0.001494 -0.056773
  2C   1dz2      -0.000010  0.000034  0.000202  0.000106 -0.000098 -0.003237
  2C   1dxz      -0.000951  0.000112 -0.000193  0.000099 -0.006683  0.000135
  2C   1dyz      -0.000052 -0.000076 -0.000143  0.000051 -0.000731 -0.000301
  2C   1dx2y2     0.000003  0.005060  0.003467 -0.001145  0.000024  0.020438
  2C   1dxy       0.000023  0.003988 -0.010763  0.005084  0.000145 -0.001028
  3C   1s         0.000004  0.025561 -0.009239  0.018458  0.000026  0.007921
  3C   2s        -0.000017 -0.052566  0.024236 -0.037621 -0.000046 -0.011099
  3C   1pz       -0.018712  0.003709  0.006090 -0.001714 -0.150516  0.002594
  3C   1px        0.000243  0.090914  0.038389 -0.205212  0.000764  0.139937
  3C   1py        0.000475  0.157725  0.294428 -0.028621  0.002972  0.095782
  3C   3s         0.000066 -0.059440  0.026287 -0.081212 -0.000133 -0.073906
  3C   2pz       -0.004952  0.001145  0.001585 -0.000748 -0.082755  0.000222
  3C   2px        0.000092  0.063658 -0.001327 -0.058265  0.000451  0.011275
  3C   2py        0.000215  0.036702  0.079915 -0.022488  0.001570  0.012673
  3C   1dz2      -0.000035  0.001851  0.002836 -0.000173 -0.000241  0.002273
  3C   1dxz      -0.001132 -0.000248 -0.000125 -0.000125 -0.004171 -0.000011
  3C   1dyz      -0.000663 -0.000203 -0.000299  0.000106 -0.005714 -0.000450
  3C   1dx2y2    -0.000007  0.003112  0.007962 -0.006296 -0.000096  0.017060
  3C   1dxy       0.000022 -0.012604 -0.007347 -0.004693  0.000108 -0.004539
  4C   1s         0.000037  0.062359  0.019532  0.002802 -0.000019  0.020091
  4C   2s        -0.000101 -0.134851 -0.043300 -0.006349  0.000025 -0.047699
  4C   1pz       -0.130355  0.002912 -0.002409 -0.000532 -0.280528  0.000698
  4C   1px        0.000834  0.076494  0.130410  0.082698  0.002183 -0.042688
  4C   1py        0.002787  0.117161 -0.168226 -0.074371  0.005452  0.056962
  4C   3s        -0.000033 -0.188749 -0.055404 -0.004666  0.000084 -0.017931
  4C   2pz       -0.064188  0.000500  0.000805  0.000066 -0.152113  0.000628
  4C   2px        0.000325  0.017401  0.039582  0.029040  0.000999 -0.027719
  4C   2py        0.001107  0.016751  0.025339 -0.017574  0.002925  0.044600
  4C   1dz2      -0.000175 -0.001019 -0.001755 -0.000758 -0.000026 -0.001419
  4C   1dxz      -0.010801 -0.000019  0.000339  0.000061  0.000730  0.000249
  4C   1dyz      -0.001608 -0.000026  0.000184  0.000005 -0.000754 -0.000098
  4C   1dx2y2     0.000038  0.002357 -0.001114  0.001503 -0.000016  0.010225
  4C   1dxy       0.000234 -0.002786  0.016196  0.001633  0.000001  0.007914
  5C   1s         0.000010 -0.017355 -0.030480 -0.003740 -0.000030 -0.018723
  5C   2s        -0.000014  0.033232  0.061318  0.003056  0.000062  0.037380
  5C   1pz       -0.045500 -0.004518  0.002110  0.000063 -0.190466 -0.001478
  5C   1px        0.000179 -0.008097 -0.042760  0.249963  0.001533 -0.154545
  5C   1py        0.000747 -0.227729  0.117892 -0.090330  0.003542 -0.014466
  5C   3s        -0.000213  0.015471  0.143642  0.029958  0.000068  0.092197
  5C   2pz       -0.026067 -0.000798  0.001505  0.000122 -0.108335 -0.000644
  5C   2px        0.000142  0.019163  0.011833  0.072366  0.000748 -0.086470
  5C   2py        0.000310 -0.046471  0.070054 -0.025238  0.002007  0.002402
  5C   1dz2      -0.000131 -0.001856 -0.000071 -0.002619 -0.000292  0.000291
  5C   1dxz      -0.001768 -0.000281  0.000035 -0.000116  0.001822 -0.000061
  5C   1dyz      -0.003353 -0.000112 -0.000153  0.000189 -0.008995 -0.000111
  5C   1dx2y2    -0.000049  0.003760  0.007668 -0.006236 -0.000191  0.003542
  5C   1dxy       0.000041 -0.016460 -0.000837 -0.005476  0.000016 -0.004194
  6O   1s         0.000005 -0.011878 -0.005166 -0.011317  0.000041 -0.032465
  6O   2s        -0.000007  0.027838  0.011011  0.025922 -0.000101  0.075385
  6O   1pz       -0.323061  0.000410  0.000926  0.002737 -0.192293  0.003610
  6O   1px        0.001989 -0.030120 -0.095355 -0.077364  0.000816 -0.019498
  6O   1py        0.006682  0.015508  0.070863  0.139865  0.003859  0.180801
  6O   3s         0.000012  0.052837  0.018293  0.038959 -0.000124  0.138324
  6O   2pz       -0.194544  0.000335  0.000450  0.001606 -0.129129  0.002368
  6O   2px        0.001146 -0.018067 -0.042541 -0.035971  0.000548  0.003553
  6O   2py        0.004063  0.013642  0.032689  0.078997  0.002567  0.113627
  6O   1dz2       0.000641  0.000804  0.001093  0.002800  0.000337  0.004743
  6O   1dxz       0.000837 -0.000069  0.000124  0.000104  0.014114 -0.000084
  6O   1dyz       0.017211  0.000020 -0.000075 -0.000313  0.005096 -0.000253
  6O   1dx2y2     0.000348 -0.003543  0.003355  0.010911  0.000031  0.003250
  6O   1dxy      -0.000114 -0.002227  0.006274  0.004880 -0.000301 -0.003069
  7C   1s         0.000025  0.005426  0.000967  0.010190  0.000018  0.005348
  7C   2s        -0.000035 -0.011917 -0.006339 -0.024743 -0.000039 -0.013831
  7C   1pz       -0.379287 -0.002897  0.001189  0.003260  0.213289 -0.003216
  7C   1px        0.001895 -0.107610  0.155091  0.249729 -0.000643 -0.019753
  7C   1py        0.007989 -0.122583  0.026612  0.109109 -0.004046 -0.150550
  7C   3s        -0.000119 -0.014722 -0.002152 -0.036492 -0.000097 -0.017788
  7C   2pz       -0.176290 -0.001133  0.000506  0.001833  0.078918 -0.001324
  7C   2px        0.000903 -0.049545  0.062236  0.102698 -0.000172 -0.007465
  7C   2py        0.003766 -0.047301  0.011803  0.061886 -0.001410 -0.060349
  7C   1dz2      -0.000687 -0.006493  0.008332  0.013428  0.000232 -0.002349
  7C   1dxz      -0.011000  0.000166 -0.000020 -0.000136  0.018681  0.000163
  7C   1dyz      -0.011342  0.000433 -0.000441 -0.000730 -0.002199  0.000387
  7C   1dx2y2    -0.000193 -0.005211  0.005240  0.007776 -0.000102 -0.010039
  7C   1dxy       0.000370  0.003465  0.004002  0.003077 -0.000443  0.006801
[...]
Tamm-Dancoff approximation     ... operative
CIS-Integral strategy          ... AO-integrals
Integral handling              ... AO integral Direct
Max. core memory used          ... 512 MB
Reference state                ... RHF
Generation of triplets         ... off
Follow IRoot                   ... off
Number of operators            ... 1
Orbital ranges used for CIS calculation:
 Operator 0:  Orbitals   0...  0  to  29...127
XAS localization array:
 Operator 0:  Orbitals  -1... -1
-------------------
XC-INTEGRATION GRID
-------------------

General Integration Accuracy     IntAcc      ...  3.670
Radial Grid Type                 RadialGrid  ... Gauss-Chebyshev
Angular Grid (max. acc.)         AngularGrid ... Lebedev-50
Angular grid pruning method      GridPruning ... 3 (G Style)
Weight generation scheme         WeightScheme... Becke
Basis function cutoff            BFCut       ...    1.0000e-11
Integration weight cutoff        WCut        ...    1.0000e-14
Grids for H and He will be reduced by one unit

# of grid points (after initial pruning)     ...   9160 (   0.0 sec)
# of grid points (after weights+screening)   ...   8564 (   0.0 sec)
nearest neighbour list constructed           ...    0.0 sec
Grid point re-assignment to atoms done       ...    0.0 sec
Grid point division into batches done        ...    0.0 sec
Reduced shell lists constructed in    0.0 sec

Total number of grid points                  ...     8564
Total number of batches                      ...      142
Average number of points per batch           ...       60
Average number of grid points per atom       ...      535
Average number of shells per batch           ...    48.19 (75.30%)
Average number of basis functions per batch  ...    98.78 (77.17%)
Average number of large shells per batch     ...    37.73 (78.29%)
Average number of large basis fcns per batch ...    78.36 (79.33%)
Maximum spatial batch extension              ...  17.66, 18.49, 27.73 au
Average spatial batch extension              ...   4.38,  4.40,  5.75 au


---------------
TD-DFT XC SETUP
---------------

DFT calculation                         ... on
Name of the grid file                   ... /Users/lailaal-madhagi/Desktop/Testing_XAS_Analysis_code/Anisole//Results_dir_Anisole_geom_element_O_2019-11-04_22-05-47//GTE1_Anisole_geom_2019-11-04_22-06-27//TDDFT_O-edge.grid_cis.tmp
Exchange functional (SCF)               ... B88
Exchange functional (TD-DFT)            ... B88
   X-Alpha parameter    XAlpha (SCF)    ...  0.666667
   X-Alpha parameter    XAlpha (TD-DFT) ...  0.666667
   Becke's b parameter  XBeta (SCF)     ...  0.004200
   Becke's b parameter  XBeta (TD-DFT)  ...  0.004200
Correlation functional (SCF)            ... LYP
Correlation functional (TD-DFT)         ... LYP
 LDA part of GGA corr.  LDAOpt (SCF)    ... VWN-5
 LDA part of GGA corr.  LDAOpt (TD-DFT) ... VWN-5
Hybrid DFT                              ... on
   Exchange mixing (SCF)                ...  0.200
   Exchange mixing (TD-DFT)             ...  0.200
   GGA exch. scaling(SCF)               ...  0.720
   GGA exch. scaling (TD-DFT)           ...  0.720
   GGA corr. scaling (SCF)              ...  0.810
   GGA corr. scaling (TD-DFT)           ...  0.810

Building densities             ... done
Calculating rho(r) on the grid ... done
Building xc-kernel on the grid ... done
                    *** TD-DFT CALCULATION INITIALIZED ***


------------------------
DAVIDSON-DIAGONALIZATION
------------------------

Dimension of the eigenvalue problem            ...     99
Number of roots to be determined               ...     20
Maximum size of the expansion space            ...     99
Maximum number of iterations                   ...    100
Convergence tolerance for the residual         ...    2.500e-07
Convergence tolerance for the energies         ...    2.500e-07
Orthogonality tolerance                        ...    1.000e-14
Level Shift                                    ...    0.000e+00
Constructing the preconditioner                ... o.k.
Building the initial guess                     ... o.k.
Number of trial vectors determined             ...     99


                       ****Iteration    0****

   Memory handling for direct AO based CIS:
   Memory per vector needed      ...     1 MB
   Memory needed                 ...    30 MB
   Memory available              ...   512 MB
   Number of vectors per batch   ...   512
   Number of batches             ...     1
   Time for densities:     0.009
   Using LibInt in JK Direct
   Time for J+K (Direct):   119.363
   Time for XC-Integration:     2.745
   Time for Sigma-Completion:     0.153
   Size of expansion space: 60
   Lowest Energy          :    19.135291306775
   Maximum Energy change  :    19.619902635463 (vector 19)
   Maximum residual norm  :     0.000327414153

                       ****Iteration    1****
   Time for densities:     0.003
   Using LibInt in JK Direct
   Time for J+K (Direct):    29.481
   Time for XC-Integration:     0.913
   Time for Sigma-Completion:     0.049
   Size of expansion space: 80
   Lowest Energy          :    19.135272745000
   Maximum Energy change  :     0.000222789763 (vector 17)
   Maximum residual norm  :     0.000000046668

      *** CONVERGENCE OF RESIDUAL NORM REACHED ***

Storing the converged CI vectors               ... /Users/lailaal-madhagi/Desktop/Testing_XAS_Analysis_code/Anisole//Results_dir_Anisole_geom_element_O_2019-11-04_22-05-47//GTE1_Anisole_geom_2019-11-04_22-06-27//TDDFT_O-edge.cis1

                 *** DAVIDSON DONE ***

Total time for solving the CIS problem:   152.938sec

------------------------------------
TD-DFT/TDA EXCITED STATES (SINGLETS)
------------------------------------

the weight of the individual excitations are printed if larger than 1.0e-02

STATE  1:  E=  19.135273 au    520.697 eV  4199706.9 cm**-1
     0a ->  29a  :     0.014179 (c= -0.11907729)
     0a ->  30a  :     0.972754 (c=  0.98628297)
     0a ->  38a  :     0.011084 (c= -0.10528291)

STATE  2:  E=  19.136195 au    520.722 eV  4199909.4 cm**-1
     0a ->  29a  :     0.985697 (c= -0.99282287)
     0a ->  30a  :     0.013806 (c= -0.11750067)

STATE  3:  E=  19.208230 au    522.683 eV  4215719.3 cm**-1
     0a ->  31a  :     0.661325 (c= -0.81321916)
     0a ->  32a  :     0.054446 (c=  0.23333644)
     0a ->  33a  :     0.179929 (c= -0.42418031)
     0a ->  34a  :     0.094406 (c=  0.30725636)

STATE  4:  E=  19.225637 au    523.156 eV  4219539.7 cm**-1
     0a ->  31a  :     0.241734 (c=  0.49166468)
     0a ->  32a  :     0.574928 (c=  0.75824008)
     0a ->  33a  :     0.133093 (c= -0.36481946)
     0a ->  34a  :     0.039319 (c=  0.19829121)

STATE  5:  E=  19.245973 au    523.710 eV  4224002.9 cm**-1
     0a ->  31a  :     0.077536 (c=  0.27845365)
     0a ->  32a  :     0.344670 (c= -0.58708602)
     0a ->  33a  :     0.360882 (c= -0.60073456)
     0a ->  34a  :     0.091979 (c=  0.30327975)
     0a ->  37a  :     0.080914 (c= -0.28445352)
     0a ->  40a  :     0.021979 (c=  0.14825418)
     0a ->  41a  :     0.012301 (c= -0.11090999)

STATE  6:  E=  19.254616 au    523.945 eV  4225899.8 cm**-1
     0a ->  33a  :     0.222117 (c= -0.47129292)
     0a ->  34a  :     0.710765 (c= -0.84306857)
     0a ->  35a  :     0.050540 (c=  0.22481012)

STATE  7:  E=  19.276136 au    524.530 eV  4230622.7 cm**-1
     0a ->  36a  :     0.922545 (c=  0.96049181)
     0a ->  38a  :     0.070892 (c= -0.26625578)

STATE  8:  E=  19.293488 au    525.002 eV  4234431.1 cm**-1
     0a ->  33a  :     0.014937 (c= -0.12221881)
     0a ->  34a  :     0.041780 (c= -0.20440117)
     0a ->  35a  :     0.871043 (c= -0.93329698)
     0a ->  37a  :     0.018156 (c=  0.13474306)
     0a ->  40a  :     0.033941 (c= -0.18423171)

STATE  9:  E=  19.297321 au    525.107 eV  4235272.5 cm**-1
     0a ->  31a  :     0.011020 (c=  0.10497747)
     0a ->  32a  :     0.017956 (c= -0.13400143)
     0a ->  33a  :     0.082248 (c= -0.28678885)
     0a ->  34a  :     0.011774 (c=  0.10850684)
     0a ->  35a  :     0.038182 (c=  0.19540123)
     0a ->  37a  :     0.747399 (c=  0.86452220)
     0a ->  39a  :     0.011632 (c=  0.10784950)
     0a ->  40a  :     0.046655 (c= -0.21599792)
     0a ->  41a  :     0.021339 (c=  0.14607921)

STATE 10:  E=  19.300376 au    525.190 eV  4235942.8 cm**-1
     0a ->  30a  :     0.012979 (c=  0.11392638)
     0a ->  36a  :     0.069209 (c=  0.26307599)
     0a ->  38a  :     0.917027 (c=  0.95761546)

STATE 11:  E=  19.333210 au    526.083 eV  4243149.0 cm**-1
     0a ->  35a  :     0.010310 (c=  0.10153630)
     0a ->  39a  :     0.918123 (c= -0.95818733)
     0a ->  40a  :     0.056174 (c= -0.23701074)

STATE 12:  E=  19.343120 au    526.353 eV  4245324.1 cm**-1
     0a ->  35a  :     0.015834 (c= -0.12583175)
     0a ->  37a  :     0.137137 (c=  0.37032048)
     0a ->  39a  :     0.053424 (c= -0.23113644)
     0a ->  40a  :     0.548592 (c=  0.74066989)
     0a ->  41a  :     0.205519 (c= -0.45334246)
     0a ->  45a  :     0.015500 (c= -0.12449826)

STATE 13:  E=  19.375884 au    527.245 eV  4252514.9 cm**-1
     0a ->  40a  :     0.274862 (c=  0.52427281)
     0a ->  41a  :     0.686175 (c=  0.82835668)
     0a ->  43a  :     0.011742 (c= -0.10835899)

STATE 14:  E=  19.434112 au    528.829 eV  4265294.5 cm**-1
     0a ->  41a  :     0.024896 (c=  0.15778358)
     0a ->  43a  :     0.954608 (c=  0.97704050)

STATE 15:  E=  19.444617 au    529.115 eV  4267600.1 cm**-1
     0a ->  42a  :     0.986344 (c=  0.99314839)

STATE 16:  E=  19.475217 au    529.948 eV  4274316.0 cm**-1
     0a ->  44a  :     0.926209 (c= -0.96239733)
     0a ->  45a  :     0.056537 (c= -0.23777573)

STATE 17:  E=  19.487825 au    530.291 eV  4277083.3 cm**-1
     0a ->  41a  :     0.027992 (c=  0.16730888)
     0a ->  44a  :     0.049529 (c=  0.22255056)
     0a ->  45a  :     0.904633 (c= -0.95112205)

STATE 18:  E=  19.582926 au    532.879 eV  4297955.5 cm**-1
     0a ->  46a  :     0.875397 (c=  0.93562640)
     0a ->  48a  :     0.075168 (c=  0.27416854)
     0a ->  49a  :     0.017710 (c= -0.13308076)
     0a ->  52a  :     0.018224 (c=  0.13499795)

STATE 19:  E=  19.608269 au    533.568 eV  4303517.7 cm**-1
     0a ->  47a  :     0.976564 (c=  0.98821258)
     0a ->  50a  :     0.018739 (c= -0.13689181)

STATE 20:  E=  19.619775 au    533.881 eV  4306042.8 cm**-1
     0a ->  46a  :     0.101149 (c= -0.31803934)
     0a ->  48a  :     0.721379 (c=  0.84934039)
     0a ->  49a  :     0.137906 (c= -0.37135689)
     0a ->  59a  :     0.020752 (c=  0.14405390)


-----------------------------
TD-DFT/TDA-EXCITATION SPECTRA
-----------------------------

Center of mass = ( -1.2864, -0.0439,  0.0056)
Calculating the Dipole integrals                  ... done
Transforming integrals                            ... done
Calculating the Linear Momentum integrals         ... done
Transforming integrals                            ... done
Calculating angular momentum integrals            ... done
Transforming integrals                            ... done

-----------------------------------------------------------------------------
         ABSORPTION SPECTRUM VIA TRANSITION ELECTRIC DIPOLE MOMENTS
-----------------------------------------------------------------------------
State   Energy    Wavelength  fosc         T2        TX        TY        TZ  
        (cm-1)      (nm)                 (au**2)    (au)      (au)      (au) 
-----------------------------------------------------------------------------
   1 4199706.9      2.4   0.008200786   0.00064   0.00014   0.00053  -0.02535
   2 4199909.4      2.4   0.000091234   0.00001  -0.00002  -0.00006   0.00267
   3 4215719.3      2.4   0.013576668   0.00106  -0.00052  -0.03255  -0.00072
   4 4219539.7      2.4   0.003245817   0.00025   0.00854  -0.01343  -0.00022
   5 4224002.9      2.4   0.012481733   0.00097   0.02830  -0.01310  -0.00011
   6 4225899.8      2.4   0.000050423   0.00000   0.00139   0.00141  -0.00001
   7 4230622.7      2.4   0.001226550   0.00010   0.00005   0.00022  -0.00977
   8 4234431.1      2.4   0.001663303   0.00013  -0.01135   0.00072  -0.00001
   9 4235272.5      2.4   0.008350020   0.00065  -0.02548  -0.00020  -0.00019
  10 4235942.8      2.4   0.002771148   0.00022  -0.00017  -0.00030   0.01467
  11 4243149.0      2.4   0.002074389   0.00016  -0.00898   0.00896   0.00013
  12 4245324.1      2.4   0.015828025   0.00123   0.03500  -0.00150   0.00016
  13 4252515.0      2.4   0.007124178   0.00055  -0.02121  -0.01008  -0.00035
  14 4265294.6      2.3   0.001276701   0.00010   0.00991  -0.00056   0.00004
  15 4267600.1      2.3   0.000194951   0.00002   0.00097   0.00375   0.00007
  16 4274316.0      2.3   0.001687108   0.00013   0.00315  -0.01095  -0.00019
  17 4277083.3      2.3   0.007497943   0.00058   0.02303  -0.00683   0.00001
  18 4297955.5      2.3   0.003875548   0.00030  -0.00404   0.01674   0.00037
  19 4303517.7      2.3   0.004029927   0.00031  -0.00019  -0.00104   0.01753
  20 4306042.8      2.3   0.018541373   0.00142   0.00975   0.03635   0.00117

-----------------------------------------------------------------------------
         ABSORPTION SPECTRUM VIA TRANSITION VELOCITY DIPOLE MOMENTS
-----------------------------------------------------------------------------
State   Energy    Wavelength   fosc        P2         PX        PY        PZ  
        (cm-1)      (nm)                 (au**2)     (au)      (au)      (au) 
-----------------------------------------------------------------------------
   1 4199706.9      2.4   0.007957914   0.22842  -0.00264  -0.00992   0.47782
   2 4199909.4      2.4   0.000090619   0.00260   0.00030   0.00120  -0.05099
   3 4215719.3      2.4   0.013429765   0.38694   0.00157   0.62190   0.01366
   4 4219539.7      2.4   0.003226131   0.09304  -0.15984   0.25975   0.00432
   5 4224002.9      2.4   0.012360277   0.35683  -0.54102   0.25322   0.00211
   6 4225899.8      2.4   0.000042330   0.00122  -0.01725  -0.03041   0.00028
   7 4230622.7      2.4   0.001279091   0.03698  -0.00085  -0.00443   0.19226
   8 4234431.1      2.4   0.001598423   0.04626   0.21314  -0.02882  -0.00014
   9 4235272.5      2.4   0.008542965   0.24728   0.49726   0.00124   0.00368
  10 4235942.8      2.4   0.002671243   0.07733   0.00321   0.00567  -0.27801
  11 4243149.0      2.4   0.002101693   0.06095   0.17265  -0.17645  -0.00264
  12 4245324.1      2.4   0.015501294   0.44977  -0.66969   0.03559  -0.00291
  13 4252515.0      2.4   0.006902384   0.20061   0.39910   0.20318   0.00682
  14 4265294.6      2.3   0.001288759   0.03757  -0.19352   0.01096  -0.00076
  15 4267600.1      2.3   0.000165016   0.00481  -0.01408  -0.06792  -0.00132
  16 4274316.0      2.3   0.001598444   0.04670  -0.06465   0.20616   0.00361
  17 4277083.3      2.3   0.007457378   0.21799  -0.45124   0.11988  -0.00052
  18 4297955.5      2.3   0.003288897   0.09661   0.06866  -0.30307  -0.00677
  19 4303517.7      2.3   0.004598375   0.13525   0.00375   0.02059  -0.36717
  20 4306042.8      2.3   0.017811250   0.52418  -0.18324  -0.70005  -0.02306

-------------------------------------------------------------------
                             CD SPECTRUM
-------------------------------------------------------------------
State  Energy     Wavelength     R         MX        MY        MZ   
       (cm-1)       (nm)     (1e40*cgs)   (au)      (au)      (au)  
-------------------------------------------------------------------
   1 4199706.9      2.4      0.00015  -0.21434   0.82312   0.01590
   2 4199909.4      2.4     -0.00002   0.02267  -0.08785  -0.00193
   3 4215719.3      2.4     -0.00082   0.00639   0.02350  -1.07042
   4 4219539.7      2.4      0.00018   0.00329   0.01066  -0.51897
   5 4224002.9      2.4      0.00002   0.00415   0.01451  -0.67871
   6 4225899.8      2.4     -0.00022  -0.00073   0.00084   0.04431
   7 4230622.7      2.4     -0.00033  -0.08622   0.33104   0.00725
   8 4234431.1      2.4      0.00055  -0.00051  -0.00452   0.14469
   9 4235272.5      2.4     -0.00019  -0.00162  -0.00366   0.22070
  10 4235942.8      2.4      0.00048   0.12470  -0.47903  -0.00833
  11 4243149.0      2.4      0.00005  -0.00237  -0.00801   0.38106
  12 4245324.1      2.4      0.00021   0.00202   0.00845  -0.36113
  13 4252515.0      2.4      0.00022   0.00103   0.00371  -0.17077
  14 4265294.6      2.3     -0.00007   0.00056   0.00259  -0.10555
  15 4267600.1      2.3     -0.00001  -0.00078  -0.00200   0.11096
  16 4274316.0      2.3     -0.00053   0.00253   0.00752  -0.38442
  17 4277083.3      2.3     -0.00052   0.00265   0.00819  -0.40907
  18 4297955.5      2.3     -0.00081  -0.00306  -0.01305   0.55289
  19 4303517.7      2.3      0.01607   0.16474  -0.63224  -0.03378
  20 4306042.8      2.3     -0.01449  -0.00375  -0.03603   1.12365

Total run time:      153.240 sec

           *** ORCA-CIS/TD-DFT FINISHED WITHOUT ERROR ***

-----------------------
CIS/TD-DFT TOTAL ENERGY
-----------------------

    E(SCF)  =   -346.545515349 Eh
    DE(CIS) =     19.135272745 Eh (Root  1)
    ----------------------------- ---------
    E(tot)  =   -327.410242604 Eh


-------------------------   --------------------
FINAL SINGLE POINT ENERGY      -327.410242604110
-------------------------   --------------------


                            ***************************************
                            *     ORCA property calculations      *
                            ***************************************

                                    ---------------------
                                    Active property flags
                                    ---------------------
   (+) Dipole Moment


------------------------------------------------------------------------------
                       ORCA ELECTRIC PROPERTIES CALCULATION
------------------------------------------------------------------------------

Dipole Moment Calculation                       ... on
Quadrupole Moment Calculation                   ... off
Polarizability Calculation                      ... off
GBWName                                         ... /Users/lailaal-madhagi/Desktop/Testing_XAS_Analysis_code/Anisole//Results_dir_Anisole_geom_element_O_2019-11-04_22-05-47//GTE1_Anisole_geom_2019-11-04_22-06-27//TDDFT_O-edge.gbw
Electron density file                           ... /Users/lailaal-madhagi/Desktop/Testing_XAS_Analysis_code/Anisole//Results_dir_Anisole_geom_element_O_2019-11-04_22-05-47//GTE1_Anisole_geom_2019-11-04_22-06-27//TDDFT_O-edge.scfp.tmp
The origin for moment calculation is the CENTER OF MASS  = (-1.286444, -0.043879  0.005635)

-------------
DIPOLE MOMENT
-------------
                                X             Y             Z
Electronic contribution:     -1.87357       1.93520       0.03002
Nuclear contribution   :      2.20805      -2.39314      -0.03790
                        -----------------------------------------
Total Dipole Moment    :      0.33448      -0.45794      -0.00788
                        -----------------------------------------
Magnitude (a.u.)       :      0.56714
Magnitude (Debye)      :      1.44155



--------------------
Rotational spectrum 
--------------------
 
Rotational constants in cm-1:     0.169986     0.050624     0.039299 
Rotational constants in MHz :  5096.044459  1517.664681  1178.153101 

 Dipole components along the rotational axes: 
x,y,z [a.u.] :     0.358678    -0.439313    -0.000774 
x,y,z [Debye]:     0.911688    -1.116645    -0.001967 

 

Timings for individual modules:

Sum of individual times         ...      187.314 sec (=   3.122 min)
GTO integral calculation        ...        0.310 sec (=   0.005 min)   0.2 %
SCF iterations                  ...       33.013 sec (=   0.550 min)  17.6 %
CIS module                      ...      153.991 sec (=   2.567 min)  82.2 %
                             ****ORCA TERMINATED NORMALLY****
TOTAL RUN TIME: 0 days 0 hours 3 minutes 7 seconds 467 msec
