
                                 *****************
                                 * O   R   C   A *
                                 *****************

           --- An Ab Initio, DFT and Semiempirical electronic structure package ---

                  #######################################################
                  #                        -***-                        #
                  #          Department of theory and spectroscopy      #
                  #               Directorship: Frank Neese             #
                  #        Max Planck Institute fuer Kohlenforschung    #
                  #                Kaiser Wilhelm Platz 1               #
                  #                 D-45470 Muelheim/Ruhr               #
                  #                      Germany                        #
                  #                                                     #
                  #                  All rights reserved                #
                  #                        -***-                        #
                  #######################################################


                         Program Version 4.1.0  - RELEASE  -


 With contributions from (in alphabetic order):
   Daniel Aravena         : Magnetic Properties
   Michael Atanasov       : Ab Initio Ligand Field Theory
   Alexander A. Auer      : GIAO ZORA
   Ute Becker             : Parallelization
   Giovanni Bistoni       : ED, Open-shell LED
   Martin Brehm           : Molecular dynamics
   Dmytro Bykov           : SCF Hessian
   Vijay G. Chilkuri      : MRCI spin determinant printing
   Dipayan Datta          : RHF DLPNO-CCSD density
   Achintya Kumar Dutta   : EOM-CC, STEOM-CC
   Dmitry Ganyushin       : Spin-Orbit,Spin-Spin,Magnetic field MRCI
   Miquel Garcia          : C-PCM Hessian
   Yang Guo               : DLPNO-NEVPT2, CIM, IAO-localization
   Andreas Hansen         : Spin unrestricted coupled pair/coupled cluster methods
   Benjamin Helmich-Paris : CASSCF linear response (MC-RPA)
   Lee Huntington         : MR-EOM, pCC
   Robert Izsak           : Overlap fitted RIJCOSX, COSX-SCS-MP3, EOM
   Christian Kollmar      : KDIIS, OOCD, Brueckner-CCSD(T), CCSD density
   Simone Kossmann        : Meta GGA functionals, TD-DFT gradient, OOMP2, MP2 Hessian
   Martin Krupicka        : AUTO-CI
   Lucas Lang             : DCDCAS
   Dagmar Lenk            : GEPOL surface, SMD
   Dimitrios Liakos       : Extrapolation schemes; parallel MDCI
   Dimitrios Manganas     : ROCIS; embedding schemes
   Dimitrios Pantazis     : SARC Basis sets
   Taras Petrenko         : DFT Hessian,TD-DFT gradient, ASA, ECA, R-Raman, ABS, FL, XAS/XES, NRVS
   Peter Pinski           : DLPNO-MP2, DLPNO-MP2 Gradient
   Christoph Reimann      : Effective Core Potentials
   Marius Retegan         : Local ZFS, SOC
   Christoph Riplinger    : Optimizer, TS searches, QM/MM, DLPNO-CCSD(T), (RO)-DLPNO pert. Triples
   Tobias Risthaus        : Range-separated hybrids, TD-DFT gradient, RPA, STAB
   Michael Roemelt        : Restricted open shell CIS
   Masaaki Saitow         : Open-shell DLPNO
   Barbara Sandhoefer     : DKH picture change effects
   Avijit Sen             : IP-ROCIS
   Kantharuban Sivalingam : CASSCF convergence, NEVPT2, FIC-MRCI
   Bernardo de Souza      : ESD, SOC TD-DFT
   Georgi Stoychev        : AutoAux, RI-MP2 NMR
   Willem Van den Heuvel  : Paramagnetic NMR
   Boris Wezisla          : Elementary symmetry handling
   Frank Wennmohs         : Technical directorship


 We gratefully acknowledge several colleagues who have allowed us to
 interface, adapt or use parts of their codes:
   Stefan Grimme, W. Hujo, H. Kruse,             : VdW corrections, initial TS optimization,
                  C. Bannwarth                     DFT functionals, gCP, sTDA/sTD-DF
   Ed Valeev                                     : LibInt (2-el integral package), F12 methods
   Garnet Chan, S. Sharma, J. Yang, R. Olivares  : DMRG
   Ulf Ekstrom                                   : XCFun DFT Library
   Mihaly Kallay                                 : mrcc  (arbitrary order and MRCC methods)
   Andreas Klamt, Michael Diedenhofen            : otool_cosmo (COSMO solvation model)
   Jiri Pittner, Ondrej Demel                    : Mk-CCSD
   Frank Weinhold                                : gennbo (NPA and NBO analysis)
   Christopher J. Cramer and Donald G. Truhlar   : smd solvation model
   Lars Goerigk                                  : TD-DFT with DH, B97 family of functionals
   V. Asgeirsson, H. Jonsson                     : NEB implementation
   FAccTs GmbH                                   : IRC, NEB, NEB-TS, Multilevel


 Your calculation uses the libint2 library for the computation of 2-el integrals
 For citations please refer to: http://libint.valeyev.net

 This ORCA versions uses:
   CBLAS   interface :  Fast vector & matrix operations
   LAPACKE interface :  Fast linear algebra routines
   SCALAPACK package :  Parallel linear algebra routines




***************************************
The coordinates will be read from file: /Users/lailaal-madhagi/Desktop/Testing_XAS_Analysis_code/MetaNitroAniline/MetaNitroAniline_geom.xyz
***************************************


----- Orbital basis set information -----
Your calculation utilizes the basis: 6-31G*
   H-He, Li-Ne : W. J. Hehre, R. Ditchfield and J.A. Pople, J. Chem. Phys. 56, 2257 (1972).
                 Note: He and Ne are unpublished basis sets taken from the Gaussian program.
                 Note: Li and B from J. D. Dill and J. A. Pople, J. Chem. Phys. 62, 2921 (1975).
   Na - Ar     : M. M. Francl, W. J. Pietro, W. J. Hehre, J. S. Binkley, M. S. Gordon, 
                 D. J. DeFrees and J. A. Pople, J. Chem. Phys. 77, 3654 (1982).
   K - Zn      : V. A. Rassolov, J. A. Pople, M. A. Ratner, and T. L. Windus, J. Chem. Phys. 109, 1223 (1998).

================================================================================
                                        WARNINGS
                       Please study these warnings very carefully!
================================================================================


WARNING: Geometry Optimization
  ===> : Switching off AutoStart
         For restart on a previous wavefunction, please use MOREAD

INFO   : the flag for use of LIBINT has been found!

================================================================================
                                       INPUT FILE
================================================================================
NAME = /Users/lailaal-madhagi/Desktop/Testing_XAS_Analysis_code/MetaNitroAniline//Results_dir_MetaNitroAniline_geom_element_C_2019-11-11_18-58-13//GTE1_MetaNitroAniline_geom_2019-11-11_18-58-35//opt.inp
|  1> ! B3LYP 6-31G* TIGHTSCF Grid3 FinalGrid5 Opt 
|  2> !NormalPrint 
|  3> %output 
|  4> Print[P_Basis] 2 
|  5> Print[P_MOS] 1 
|  6> end 
|  7> *xyzfile 0 1 /Users/lailaal-madhagi/Desktop/Testing_XAS_Analysis_code/MetaNitroAniline/MetaNitroAniline_geom.xyz                           ****END OF INPUT****
================================================================================

                       *****************************
                       * Geometry Optimization Run *
                       *****************************

Geometry optimization settings:
Update method            Update   .... BFGS
Choice of coordinates    CoordSys .... Z-matrix Internals
Initial Hessian          InHess   .... Almoef's Model

Convergence Tolerances:
Energy Change            TolE     ....  5.0000e-06 Eh
Max. Gradient            TolMAXG  ....  3.0000e-04 Eh/bohr
RMS Gradient             TolRMSG  ....  1.0000e-04 Eh/bohr
Max. Displacement        TolMAXD  ....  4.0000e-03 bohr
RMS Displacement         TolRMSD  ....  2.0000e-03 bohr

------------------------------------------------------------------------------
                        ORCA OPTIMIZATION COORDINATE SETUP
------------------------------------------------------------------------------

The optimization will be done in new redundant internal coordinates
Making redundant internal coordinates   ...  (new redundants) done
Evaluating the initial hessian          ...  (Almloef) done
Evaluating the coordinates              ...  done
Calculating the B-matrix                .... done
Calculating the G-matrix                .... done
Diagonalizing the G-matrix              .... done
The first mode is                       ....   30
The number of degrees of freedom        ....   42

    -----------------------------------------------------------------
                    Redundant Internal Coordinates


    -----------------------------------------------------------------
         Definition                    Initial Value    Approx d2E/dq
    -----------------------------------------------------------------
      1. B(C   1,C   0)                  1.3971         0.608741   
      2. B(C   2,C   0)                  1.4091         0.582482   
      3. B(C   3,C   1)                  1.3957         0.611771   
      4. B(C   4,C   3)                  1.4009         0.600335   
      5. B(C   5,C   4)                  1.4033         0.595054   
      6. B(C   5,C   2)                  1.4101         0.580316   
      7. B(N   6,C   4)                  1.4168         0.507103   
      8. B(N   7,C   2)                  1.4296         0.483883   
      9. B(O   8,N   7)                  1.1944         1.028243   
     10. B(H   9,N   6)                  1.0306         0.401230   
     11. B(H  10,N   6)                  1.0306         0.401202   
     12. B(O  11,N   7)                  1.1944         1.028283   
     13. B(H  12,C   0)                  1.0826         0.370086   
     14. B(H  13,C   1)                  1.0824         0.370229   
     15. B(H  14,C   3)                  1.0829         0.369679   
     16. B(H  15,C   5)                  1.0830         0.369533   
     17. A(C   1,C   0,H  12)          118.6848         0.353449   
     18. A(C   1,C   0,C   2)          120.5674         0.427817   
     19. A(C   2,C   0,H  12)          120.7478         0.350823   
     20. A(C   0,C   1,H  13)          119.9002         0.353472   
     21. A(C   3,C   1,H  13)          119.8719         0.353769   
     22. A(C   0,C   1,C   3)          120.2279         0.431600   
     23. A(C   5,C   2,N   7)          120.6932         0.407747   
     24. A(C   0,C   2,N   7)          120.6466         0.408016   
     25. A(C   0,C   2,C   5)          118.6602         0.424169   
     26. A(C   1,C   3,C   4)          120.1874         0.430523   
     27. A(C   4,C   3,H  14)          120.3773         0.352552   
     28. A(C   1,C   3,H  14)          119.4353         0.353680   
     29. A(C   3,C   4,N   6)          120.1601         0.413629   
     30. A(C   3,C   4,C   5)          119.6111         0.428388   
     31. A(C   5,C   4,N   6)          120.2288         0.412980   
     32. A(C   2,C   5,C   4)          120.7460         0.425793   
     33. A(C   2,C   5,H  15)          120.1775         0.350513   
     34. A(C   4,C   5,H  15)          119.0765         0.352002   
     35. A(H   9,N   6,H  10)          118.5509         0.296052   
     36. A(C   4,N   6,H  10)          120.7116         0.342303   
     37. A(C   4,N   6,H   9)          120.7375         0.342307   
     38. A(C   2,N   7,O  11)          120.4896         0.445805   
     39. A(C   2,N   7,O   8)          120.4755         0.445802   
     40. A(O   8,N   7,O  11)          119.0349         0.508627   
     41. D(C   3,C   1,C   0,H  12)    179.9995         0.025587   
     42. D(H  13,C   1,C   0,C   2)   -179.9994         0.025587   
     43. D(C   3,C   1,C   0,C   2)      0.0003         0.025587   
     44. D(H  13,C   1,C   0,H  12)     -0.0002         0.025587   
     45. D(C   5,C   2,C   0,C   1)     -0.0000         0.023319   
     46. D(N   7,C   2,C   0,H  12)      0.0004         0.023319   
     47. D(C   5,C   2,C   0,H  12)   -179.9993         0.023319   
     48. D(N   7,C   2,C   0,C   1)    179.9997         0.023319   
     49. D(H  14,C   3,C   1,H  13)     -0.0009         0.025857   
     50. D(H  14,C   3,C   1,C   0)    179.9994         0.025857   
     51. D(C   4,C   3,C   1,H  13)    179.9997         0.025857   
     52. D(C   4,C   3,C   1,C   0)      0.0000         0.025857   
     53. D(N   6,C   4,C   3,C   1)    179.9992         0.024847   
     54. D(C   5,C   4,C   3,H  14)   -179.9999         0.024847   
     55. D(C   5,C   4,C   3,C   1)     -0.0005         0.024847   
     56. D(N   6,C   4,C   3,H  14)     -0.0002         0.024847   
     57. D(H  15,C   5,C   4,N   6)      0.0004         0.024389   
     58. D(C   2,C   5,C   4,N   6)   -179.9990         0.024389   
     59. D(C   2,C   5,C   4,C   3)      0.0007         0.024389   
     60. D(H  15,C   5,C   2,N   7)      0.0005         0.023138   
     61. D(H  15,C   5,C   2,C   0)   -179.9998         0.023138   
     62. D(H  15,C   5,C   4,C   3)   -179.9999         0.024389   
     63. D(C   4,C   5,C   2,N   7)    179.9999         0.023138   
     64. D(C   4,C   5,C   2,C   0)     -0.0004         0.023138   
     65. D(H  10,N   6,C   4,C   5)    179.9994         0.020349   
     66. D(H  10,N   6,C   4,C   3)     -0.0002         0.020349   
     67. D(H   9,N   6,C   4,C   5)      0.0005         0.020349   
     68. D(H   9,N   6,C   4,C   3)   -179.9991         0.020349   
     69. D(O  11,N   7,C   2,C   0)   -179.9975         0.018477   
     70. D(O   8,N   7,C   2,C   5)   -179.9972         0.018477   
     71. D(O   8,N   7,C   2,C   0)      0.0031         0.018477   
     72. D(O  11,N   7,C   2,C   5)      0.0022         0.018477   
    -----------------------------------------------------------------

Number of atoms                         .... 16
Number of degrees of freedom            .... 72

         *************************************************************
         *                GEOMETRY OPTIMIZATION CYCLE   1            *
         *************************************************************
---------------------------------
CARTESIAN COORDINATES (ANGSTROEM)
---------------------------------
  C     -0.496390    1.068330   -0.004020
  C     -1.710650    0.377390   -0.008980
  C      0.725910    0.369630   -0.061760
  C     -1.725500   -1.016870   -0.071390
  C     -0.522450   -1.732230   -0.129460
  C      0.697510   -1.038790   -0.124520
  N     -0.538200   -3.147540   -0.192780
  N      1.969380    1.074920   -0.056790
  O      1.988900    2.267960   -0.003480
  H      0.341470   -3.682690   -0.235770
  H     -1.429830   -3.664330   -0.196830
  O      3.003800    0.479850   -0.105870
  H     -0.514020    2.149630    0.045000
  H     -2.643280    0.925020    0.035720
  H     -2.673960   -1.539350   -0.074480
  H      1.622330   -1.600460   -0.169690

----------------------------
CARTESIAN COORDINATES (A.U.)
----------------------------
  NO LB      ZA    FRAG     MASS         X           Y           Z
   0 C     6.0000    0    12.011   -0.938041    2.018851   -0.007597
   1 C     6.0000    0    12.011   -3.232660    0.713164   -0.016970
   2 C     6.0000    0    12.011    1.371771    0.698499   -0.116709
   3 C     6.0000    0    12.011   -3.260722   -1.921606   -0.134908
   4 C     6.0000    0    12.011   -0.987287   -3.273440   -0.244644
   5 C     6.0000    0    12.011    1.318103   -1.963029   -0.235309
   6 N     7.0000    0    14.007   -1.017051   -5.947989   -0.364301
   7 N     7.0000    0    14.007    3.721589    2.031304   -0.107318
   8 O     8.0000    0    15.999    3.758476    4.285823   -0.006576
   9 H     1.0000    0     1.008    0.645285   -6.959276   -0.445541
  10 H     1.0000    0     1.008   -2.701987   -6.924580   -0.371955
  11 O     8.0000    0    15.999    5.676359    0.906785   -0.200065
  12 H     1.0000    0     1.008   -0.971357    4.062212    0.085038
  13 H     1.0000    0     1.008   -4.995075    1.748034    0.067501
  14 H     1.0000    0     1.008   -5.053052   -2.908950   -0.140747
  15 H     1.0000    0     1.008    3.065759   -3.024431   -0.320668

--------------------------------
INTERNAL COORDINATES (ANGSTROEM)
--------------------------------
 C      0   0   0     0.000000000000     0.00000000     0.00000000
 C      1   0   0     1.397086265339     0.00000000     0.00000000
 C      1   2   0     1.409089382403   120.56737602     0.00000000
 C      2   1   3     1.395735103162   120.22792818     0.00000000
 C      4   2   1     1.400871641872   120.18742491     0.00000000
 C      5   4   2     1.403276821871   119.61108139     0.00000000
 N      5   4   2     1.416813283746   120.16007485   179.99917310
 N      3   1   2     1.429572077896   120.64660098   179.99966837
 O      8   3   1     1.194389981581   120.47554104     0.00000000
 H      7   5   4     1.030559542918   120.73749414   180.00090894
 H      7   5   4     1.030578654689   120.71162866     0.00000000
 O      8   3   1     1.194379289715   120.48957728   180.00254289
 H      1   2   3     1.082554140586   118.68483317   179.99924247
 H      2   1   3     1.082448808859   119.90017001   180.00057076
 H      4   2   1     1.082853300360   119.43525707   179.99940666
 H      6   5   4     1.082961472168   119.07646534   180.00007484

---------------------------
INTERNAL COORDINATES (A.U.)
---------------------------
 C      0   0   0     0.000000000000     0.00000000     0.00000000
 C      1   0   0     2.640110426954     0.00000000     0.00000000
 C      1   2   0     2.662793030957   120.56737602     0.00000000
 C      2   1   3     2.637557100477   120.22792818     0.00000000
 C      4   2   1     2.647263751914   120.18742491     0.00000000
 C      5   4   2     2.651808883415   119.61108139     0.00000000
 N      5   4   2     2.677389089182   120.16007485   179.99917310
 N      3   1   2     2.701499715924   120.64660098   179.99966837
 O      8   3   1     2.257069962286   120.47554104     0.00000000
 H      7   5   4     1.947475300815   120.73749414   180.00090894
 H      7   5   4     1.947511416827   120.71162866     0.00000000
 O      8   3   1     2.257049757589   120.48957728   180.00254289
 H      1   2   3     2.045730850850   118.68483317   179.99924247
 H      2   1   3     2.045531802733   119.90017001   180.00057076
 H      4   2   1     2.046296180893   119.43525707   179.99940666
 H      6   5   4     2.046500595985   119.07646534   180.00007484

---------------------
BASIS SET INFORMATION
---------------------
There are 4 groups of distinct atoms

 Group   1 Type C   : 10s4p1d contracted to 3s2p1d pattern {631/31/1}
 Group   2 Type N   : 10s4p1d contracted to 3s2p1d pattern {631/31/1}
 Group   3 Type O   : 10s4p1d contracted to 3s2p1d pattern {631/31/1}
 Group   4 Type H   : 4s contracted to 2s pattern {31}

Atom   0C    basis set group =>   1
Atom   1C    basis set group =>   1
Atom   2C    basis set group =>   1
Atom   3C    basis set group =>   1
Atom   4C    basis set group =>   1
Atom   5C    basis set group =>   1
Atom   6N    basis set group =>   2
Atom   7N    basis set group =>   2
Atom   8O    basis set group =>   3
Atom   9H    basis set group =>   4
Atom  10H    basis set group =>   4
Atom  11O    basis set group =>   3
Atom  12H    basis set group =>   4
Atom  13H    basis set group =>   4
Atom  14H    basis set group =>   4
Atom  15H    basis set group =>   4

-------------------------
BASIS SET IN INPUT FORMAT
-------------------------

 # Basis set for element : H 
 NewGTO H 
 S 3 
   1      18.7311370000      0.0334945995
   2       2.8253937000      0.2347269467
   3       0.6401217000      0.8137573184
 S 1 
   1       0.1612778000      1.0000000000
  end;

 # Basis set for element : C 
 NewGTO C 
 S 6 
   1    3047.5249000000      0.0018347002
   2     457.3695100000      0.0140373012
   3     103.9486900000      0.0688426061
   4      29.2101550000      0.2321844206
   5       9.2866630000      0.4679413416
   6       3.1639270000      0.3623120322
 S 3 
   1       7.8682724000     -0.1193324086
   2       1.8812885000     -0.1608542116
   3       0.5442493000      1.1434564826
 P 3 
   1       7.8682724000      0.0689990956
   2       1.8812885000      0.3164239798
   3       0.5442493000      0.7443082524
 S 1 
   1       0.1687144000      1.0000000000
 P 1 
   1       0.1687144000      1.0000000000
 D 1 
   1       0.8000000000      1.0000000000
  end;

 # Basis set for element : N 
 NewGTO N 
 S 6 
   1    4173.5110000000      0.0018347994
   2     627.4579000000      0.0139949958
   3     142.9021000000      0.0685869792
   4      40.2343300000      0.2322409295
   5      12.8202100000      0.4690698576
   6       4.3904370000      0.3604548906
 S 3 
   1      11.6263580000     -0.1149610229
   2       2.7162800000     -0.1691180337
   3       0.7722180000      1.1458522281
 P 3 
   1      11.6263580000      0.0675800232
   2       2.7162800000      0.3239071114
   3       0.7722180000      0.7408952549
 S 1 
   1       0.2120313000      1.0000000000
 P 1 
   1       0.2120313000      1.0000000000
 D 1 
   1       0.8000000000      1.0000000000
  end;

 # Basis set for element : O 
 NewGTO O 
 S 6 
   1    5484.6717000000      0.0018310998
   2     825.2349500000      0.0139500985
   3     188.0469600000      0.0684450927
   4      52.9645000000      0.2327142753
   5      16.8975700000      0.4701929501
   6       5.7996353000      0.3585208619
 S 3 
   1      15.5396160000     -0.1107775038
   2       3.5999336000     -0.1480263051
   3       1.0137618000      1.1307670390
 P 3 
   1      15.5396160000      0.0708742995
   2       3.5999336000      0.3397527978
   3       1.0137618000      0.7271585953
 S 1 
   1       0.2700058000      1.0000000000
 P 1 
   1       0.2700058000      1.0000000000
 D 1 
   1       0.8000000000      1.0000000000
  end;

------------------------------------------------------------------------------
                           ORCA GTO INTEGRAL CALCULATION
------------------------------------------------------------------------------

                         BASIS SET STATISTICS AND STARTUP INFO

 # of primitive gaussian shells          ...  174
 # of primitive gaussian functions       ...  294
 # of contracted shells                  ...   72
 # of contracted basis functions         ...  152
 Highest angular momentum                ...    2
 Maximum contraction depth               ...    6
 Integral package used                   ... LIBINT
 Integral threshhold            Thresh   ...  2.500e-11
 Primitive cut-off              TCut     ...  2.500e-12


------------------------------ INTEGRAL EVALUATION ----------------------------


 * One electron integrals 
 Pre-screening matrix                    ... done
 Shell pair data                         ... done (   0.002 sec)

-------------------------------------------------------------------------------
                                 ORCA SCF
-------------------------------------------------------------------------------

------------
SCF SETTINGS
------------
Hamiltonian:
 Density Functional     Method          .... DFT(GTOs)
 Exchange Functional    Exchange        .... B88
   X-Alpha parameter    XAlpha          ....  0.666667
   Becke's b parameter  XBeta           ....  0.004200
 Correlation Functional Correlation     .... LYP
 LDA part of GGA corr.  LDAOpt          .... VWN-5
 Gradients option       PostSCFGGA      .... off
 Hybrid DFT is turned on
   Fraction HF Exchange ScalHFX         ....  0.200000
   Scaling of DF-GGA-X  ScalDFX         ....  0.720000
   Scaling of DF-GGA-C  ScalDFC         ....  0.810000
   Scaling of DF-LDA-C  ScalLDAC        ....  1.000000
   Perturbative correction              ....  0.000000
   Density functional embedding theory  .... OFF
   NL short-range parameter             ....  4.800000


General Settings:
 Integral files         IntName         .... /Users/lailaal-madhagi/Desktop/Testing_XAS_Analysis_code/MetaNitroAniline//Results_dir_MetaNitroAniline_geom_element_C_2019-11-11_18-58-13//GTE1_MetaNitroAniline_geom_2019-11-11_18-58-35//opt
 Hartree-Fock type      HFTyp           .... RHF
 Total Charge           Charge          ....    0
 Multiplicity           Mult            ....    1
 Number of Electrons    NEL             ....   72
 Basis Dimension        Dim             ....  152
 Nuclear Repulsion      ENuc            ....    497.5594352188 Eh

Convergence Acceleration:
 DIIS                   CNVDIIS         .... on
   Start iteration      DIISMaxIt       ....    12
   Startup error        DIISStart       ....  0.200000
   # of expansion vecs  DIISMaxEq       ....     5
   Bias factor          DIISBfac        ....   1.050
   Max. coefficient     DIISMaxC        ....  10.000
 Newton-Raphson         CNVNR           .... off
 SOSCF                  CNVSOSCF        .... on
   Start iteration      SOSCFMaxIt      ....   150
   Startup grad/error   SOSCFStart      ....  0.003300
 Level Shifting         CNVShift        .... on
   Level shift para.    LevelShift      ....    0.2500
   Turn off err/grad.   ShiftErr        ....    0.0010
 Zerner damping         CNVZerner       .... off
 Static damping         CNVDamp         .... on
   Fraction old density DampFac         ....    0.7000
   Max. Damping (<1)    DampMax         ....    0.9800
   Min. Damping (>=0)   DampMin         ....    0.0000
   Turn off err/grad.   DampErr         ....    0.1000
 Fernandez-Rico         CNVRico         .... off

SCF Procedure:
 Maximum # iterations   MaxIter         ....   125
 SCF integral mode      SCFMode         .... Direct
   Integral package                     .... LIBINT
 Reset frequency        DirectResetFreq ....    20
 Integral Threshold     Thresh          ....  2.500e-11 Eh
 Primitive CutOff       TCut            ....  2.500e-12 Eh

Convergence Tolerance:
 Convergence Check Mode ConvCheckMode   .... Total+1el-Energy
 Convergence forced     ConvForced      .... 0
 Energy Change          TolE            ....  1.000e-08 Eh
 1-El. energy change                    ....  1.000e-05 Eh
 Orbital Gradient       TolG            ....  1.000e-05
 Orbital Rotation angle TolX            ....  1.000e-05
 DIIS Error             TolErr          ....  5.000e-07


Diagonalization of the overlap matrix:
Smallest eigenvalue                        ... 4.413e-04
Time for diagonalization                   ...    0.006 sec
Threshold for overlap eigenvalues          ... 1.000e-08
Number of eigenvalues below threshold      ... 0
Time for construction of square roots      ...    0.004 sec
Total time needed                          ...    0.010 sec

-------------------
DFT GRID GENERATION
-------------------

General Integration Accuracy     IntAcc      ...  4.340
Radial Grid Type                 RadialGrid  ... Gauss-Chebyshev
Angular Grid (max. acc.)         AngularGrid ... Lebedev-194
Angular grid pruning method      GridPruning ... 3 (G Style)
Weight generation scheme         WeightScheme... Becke
Basis function cutoff            BFCut       ...    1.0000e-11
Integration weight cutoff        WCut        ...    1.0000e-14
Grids for H and He will be reduced by one unit

# of grid points (after initial pruning)     ...  42208 (   0.0 sec)
# of grid points (after weights+screening)   ...  38996 (   0.1 sec)
nearest neighbour list constructed           ...    0.0 sec
Grid point re-assignment to atoms done       ...    0.0 sec
Grid point division into batches done        ...    0.1 sec
Reduced shell lists constructed in    0.3 sec

Total number of grid points                  ...    38996
Total number of batches                      ...      617
Average number of points per batch           ...       63
Average number of grid points per atom       ...     2437
Average number of shells per batch           ...    46.19 (64.16%)
Average number of basis functions per batch  ...    99.55 (65.49%)
Average number of large shells per batch     ...    34.76 (75.25%)
Average number of large basis fcns per batch ...    75.68 (76.02%)
Maximum spatial batch extension              ...  16.13, 19.47, 22.18 au
Average spatial batch extension              ...   2.88,  2.84,  3.63 au

Time for grid setup =    0.389 sec

------------------------------
INITIAL GUESS: MODEL POTENTIAL
------------------------------
Loading Hartree-Fock densities                     ... done
Calculating cut-offs                               ... done
Setting up the integral package                    ... done
Initializing the effective Hamiltonian             ... done
Starting the Coulomb interaction                   ... done (   0.1 sec)
Reading the grid                                   ... done
Mapping shells                                     ... done
Starting the XC term evaluation                    ... done (   0.3 sec)
  promolecular density results
     # of electrons  =     71.996237042
     EX              =    -62.196008066
     EC              =     -2.492430792
     EX+EC           =    -64.688438858
Transforming the Hamiltonian                       ... done (   0.0 sec)
Diagonalizing the Hamiltonian                      ... done (   0.0 sec)
Back transforming the eigenvectors                 ... done (   0.0 sec)
Now organizing SCF variables                       ... done
                      ------------------
                      INITIAL GUESS DONE (   0.9 sec)
                      ------------------
--------------
SCF ITERATIONS
--------------
               ***  Starting incremental Fock matrix formation  ***

                         ----------------------------
                         !        ITERATION     0   !
                         ----------------------------
   Total Energy        :    -491.519301748143 Eh
   Energy Change       :    -491.519301748143 Eh
   MAX-DP              :       0.082221898685
   RMS-DP              :       0.002709265108
   Actual Damping      :       0.7000
   Actual Level Shift  :       0.2500 Eh
   Int. Num. El.       :    71.99899529 (UP=   35.99949765 DN=   35.99949765)
   Exchange            :   -50.70374142
   Correlation         :    -2.95894933


                         ----------------------------
                         !        ITERATION     1   !
                         ----------------------------
   Total Energy        :    -491.659466518043 Eh
   Energy Change       :      -0.140164769900 Eh
   MAX-DP              :       0.049913328655
   RMS-DP              :       0.001715828375
   Actual Damping      :       0.7000
   Actual Level Shift  :       0.2500 Eh
   Int. Num. El.       :    71.99886407 (UP=   35.99943203 DN=   35.99943203)
   Exchange            :   -50.39140890
   Correlation         :    -2.94812442

                               ***Turning on DIIS***

                         ----------------------------
                         !        ITERATION     2   !
                         ----------------------------
   Total Energy        :    -491.709721323692 Eh
   Energy Change       :      -0.050254805649 Eh
   MAX-DP              :       0.063018891600
   RMS-DP              :       0.002640201938
   Actual Damping      :       0.0000
   Actual Level Shift  :       0.2500 Eh
   Int. Num. El.       :    71.99878746 (UP=   35.99939373 DN=   35.99939373)
   Exchange            :   -50.19508249
   Correlation         :    -2.94077590
   DIIS-Error          :       0.037526746506


                         ----------------------------
                         !        ITERATION     3   !
                         ----------------------------
   Total Energy        :    -491.796974957292 Eh
   Energy Change       :      -0.087253633600 Eh
   MAX-DP              :       0.034997260159
   RMS-DP              :       0.001123374368
   Actual Damping      :       0.0000
   Actual Level Shift  :       0.2500 Eh
   Int. Num. El.       :    71.99868381 (UP=   35.99934191 DN=   35.99934191)
   Exchange            :   -49.90367531
   Correlation         :    -2.92902171
   DIIS-Error          :       0.055710846940
   DIIS coefficients:
      0.60463   0.39537


                         ----------------------------
                         !        ITERATION     4   !
                         ----------------------------
   Total Energy        :    -491.811729722125 Eh
   Energy Change       :      -0.014754764834 Eh
   MAX-DP              :       0.009526782706
   RMS-DP              :       0.000406294046
   Actual Damping      :       0.0000
   Actual Level Shift  :       0.2500 Eh
   Int. Num. El.       :    71.99872719 (UP=   35.99936360 DN=   35.99936360)
   Exchange            :   -50.01151256
   Correlation         :    -2.93331448
   DIIS-Error          :       0.015669743115
   DIIS coefficients:
      0.28479   0.11830   0.59692

                      *** Initiating the SOSCF procedure ***
                           *** Shutting down DIIS ***
                      *** Re-Reading the Fockian *** 
                      *** Removing any level shift *** 

                         ----------------------------
                         !        ITERATION     5   !
                         ----------------------------
   Total Energy        :    -491.813059658868 Eh
   Energy Change       :      -0.001329936743 Eh
   MAX-DP              :       0.002726745767
   RMS-DP              :       0.000132484651
   Orbital gradient    :       0.000966452996
   Orbital Rotation    :       0.000966452996
   Actual Damping      :       0.0000
   Int. Num. El.       :    71.99873157 (UP=   35.99936579 DN=   35.99936579)
   Exchange            :   -50.04086457
   Correlation         :    -2.93472395

               *** Restarting incremental Fock matrix formation ***

                         ----------------------------
                         !        ITERATION     6   !
                         ----------------------------
   Total Energy        :    -491.813104889276 Eh
   Energy Change       :      -0.000045230408 Eh
   MAX-DP              :       0.001830531397
   RMS-DP              :       0.000058500753
   Orbital gradient    :       0.000643947044
   Orbital Rotation    :       0.001472675063
   Actual Damping      :       0.0000
   Int. Num. El.       :    71.99872843 (UP=   35.99936422 DN=   35.99936422)
   Exchange            :   -50.04895260
   Correlation         :    -2.93497627


                         ----------------------------
                         !        ITERATION     7   !
                         ----------------------------
   Total Energy        :    -491.813101453134 Eh
   Energy Change       :       0.000003436143 Eh
   MAX-DP              :       0.001087443923
   RMS-DP              :       0.000031654287
   Orbital gradient    :       0.000749989706
   Orbital Rotation    :       0.000693084952
   Actual Damping      :       0.0000
   Int. Num. El.       :    71.99872891 (UP=   35.99936445 DN=   35.99936445)
   Exchange            :   -50.04819474
   Correlation         :    -2.93498134


                         ----------------------------
                         !        ITERATION     8   !
                         ----------------------------
   Total Energy        :    -491.813110303712 Eh
   Energy Change       :      -0.000008850578 Eh
   MAX-DP              :       0.000374249658
   RMS-DP              :       0.000009840732
   Orbital gradient    :       0.000065372537
   Orbital Rotation    :       0.000268445586
   Actual Damping      :       0.0000
   Int. Num. El.       :    71.99872787 (UP=   35.99936393 DN=   35.99936393)
   Exchange            :   -50.04863903
   Correlation         :    -2.93497495


                         ----------------------------
                         !        ITERATION     9   !
                         ----------------------------
   Total Energy        :    -491.813110065468 Eh
   Energy Change       :       0.000000238244 Eh
   MAX-DP              :       0.000331817490
   RMS-DP              :       0.000006424391
   Orbital gradient    :       0.000169410840
   Orbital Rotation    :       0.000256672066
   Actual Damping      :       0.0000
   Int. Num. El.       :    71.99872763 (UP=   35.99936382 DN=   35.99936382)
   Exchange            :   -50.04876529
   Correlation         :    -2.93497838


                         ----------------------------
                         !        ITERATION    10   !
                         ----------------------------
   Total Energy        :    -491.813110415606 Eh
   Energy Change       :      -0.000000350139 Eh
   MAX-DP              :       0.000167677925
   RMS-DP              :       0.000004672994
   Orbital gradient    :       0.000056664454
   Orbital Rotation    :       0.000150874801
   Actual Damping      :       0.0000
   Int. Num. El.       :    71.99872779 (UP=   35.99936389 DN=   35.99936389)
   Exchange            :   -50.04873550
   Correlation         :    -2.93497874


                         ----------------------------
                         !        ITERATION    11   !
                         ----------------------------
   Total Energy        :    -491.813110339638 Eh
   Energy Change       :       0.000000075969 Eh
   MAX-DP              :       0.000115576535
   RMS-DP              :       0.000003112411
   Orbital gradient    :       0.000074211013
   Orbital Rotation    :       0.000086909972
   Actual Damping      :       0.0000
   Int. Num. El.       :    71.99872785 (UP=   35.99936392 DN=   35.99936392)
   Exchange            :   -50.04865270
   Correlation         :    -2.93497593


                         ----------------------------
                         !        ITERATION    12   !
                         ----------------------------
   Total Energy        :    -491.813110444162 Eh
   Energy Change       :      -0.000000104525 Eh
   MAX-DP              :       0.000021072105
   RMS-DP              :       0.000000835752
   Orbital gradient    :       0.000005120034
   Orbital Rotation    :       0.000022129275
   Actual Damping      :       0.0000
   Int. Num. El.       :    71.99872779 (UP=   35.99936390 DN=   35.99936390)
   Exchange            :   -50.04867724
   Correlation         :    -2.93497645


                         ----------------------------
                         !        ITERATION    13   !
                         ----------------------------
   Total Energy        :    -491.813110442462 Eh
   Energy Change       :       0.000000001701 Eh
   MAX-DP              :       0.000015324221
   RMS-DP              :       0.000000506908
   Orbital gradient    :       0.000008026230
   Orbital Rotation    :       0.000014677927
   Actual Damping      :       0.0000
   Int. Num. El.       :    71.99872781 (UP=   35.99936390 DN=   35.99936390)
   Exchange            :   -50.04872077
   Correlation         :    -2.93497810

                  ***Gradient check signals convergence***
              ***Rediagonalizing the Fockian in SOSCF/NRSCF***

               *****************************************************
               *                     SUCCESS                       *
               *           SCF CONVERGED AFTER  14 CYCLES          *
               *****************************************************

Setting up the final grid:

General Integration Accuracy     IntAcc      ...  5.010
Radial Grid Type                 RadialGrid  ... Gauss-Chebyshev
Angular Grid (max. acc.)         AngularGrid ... Lebedev-434
Angular grid pruning method      GridPruning ... 3 (G Style)
Weight generation scheme         WeightScheme... Becke
Basis function cutoff            BFCut       ...    1.0000e-11
Integration weight cutoff        WCut        ...    1.0000e-14
Grids for H and He will be reduced by one unit

# of grid points (after initial pruning)     ... 147204 (   0.1 sec)
# of grid points (after weights+screening)   ... 134779 (   0.3 sec)
nearest neighbour list constructed           ...    0.0 sec
Grid point re-assignment to atoms done       ...    0.0 sec
Grid point division into batches done        ...    0.8 sec
Reduced shell lists constructed in    1.5 sec

Total number of grid points                  ...   134779
Total number of batches                      ...     2112
Average number of points per batch           ...       63
Average number of grid points per atom       ...     8424
Average number of shells per batch           ...    42.44 (58.94%)
Average number of basis functions per batch  ...    91.08 (59.92%)
Average number of large shells per batch     ...    31.50 (74.23%)
Average number of large basis fcns per batch ...    68.21 (74.88%)
Maximum spatial batch extension              ...  19.89, 17.62, 24.10 au
Average spatial batch extension              ...   2.00,  1.97,  2.24 au

Final grid set up in    1.9 sec
Final integration                            ... done (   1.3 sec)
Change in XC energy                          ...    -0.000370410
Integrated number of electrons               ...    71.999983941
Previous integrated no of electrons          ...    71.998727797

----------------
TOTAL SCF ENERGY
----------------

Total Energy       :         -491.81348086 Eh          -13382.92519 eV

Components:
Nuclear Repulsion  :          497.55943522 Eh           13539.28056 eV
Electronic Energy  :         -989.37291607 Eh          -26922.20574 eV
One Electron Energy:        -1655.01854352 Eh          -45035.34412 eV
Two Electron Energy:          665.64562745 Eh           18113.13838 eV

Virial components:
Potential Energy   :         -980.87918198 Eh          -26691.07949 eV
Kinetic Energy     :          489.06570113 Eh           13308.15430 eV
Virial Ratio       :            2.00561843


DFT components:
N(Alpha)           :       35.999991970374 electrons
N(Beta)            :       35.999991970374 electrons
N(Total)           :       71.999983940748 electrons
E(X)               :      -50.049067688610 Eh       
E(C)               :       -2.934981917518 Eh       
E(XC)              :      -52.984049606129 Eh       
DFET-embed. en.    :        0.000000000000 Eh       

---------------
SCF CONVERGENCE
---------------

  Last Energy change         ...   -2.3994e-09  Tolerance :   1.0000e-08
  Last MAX-Density change    ...    4.3491e-06  Tolerance :   1.0000e-07
  Last RMS-Density change    ...    1.3002e-07  Tolerance :   5.0000e-09
  Last Orbital Gradient      ...    1.2677e-06  Tolerance :   1.0000e-05
  Last Orbital Rotation      ...    1.6234e-06  Tolerance :   1.0000e-05

             **** THE GBW FILE WAS UPDATED (/Users/lailaal-madhagi/Desktop/Testing_XAS_Analysis_code/MetaNitroAniline//Results_dir_MetaNitroAniline_geom_element_C_2019-11-11_18-58-13//GTE1_MetaNitroAniline_geom_2019-11-11_18-58-35//opt.gbw) ****
             **** DENSITY FILE WAS UPDATED (/Users/lailaal-madhagi/Desktop/Testing_XAS_Analysis_code/MetaNitroAniline//Results_dir_MetaNitroAniline_geom_element_C_2019-11-11_18-58-13//GTE1_MetaNitroAniline_geom_2019-11-11_18-58-35//opt.scfp.tmp) ****
             **** ENERGY FILE WAS UPDATED (/Users/lailaal-madhagi/Desktop/Testing_XAS_Analysis_code/MetaNitroAniline//Results_dir_MetaNitroAniline_geom_element_C_2019-11-11_18-58-13//GTE1_MetaNitroAniline_geom_2019-11-11_18-58-35//opt.en.tmp) ****
----------------
ORBITAL ENERGIES
----------------

  NO   OCC          E(Eh)            E(eV) 
   0   2.0000     -19.153868      -521.2032 
   1   2.0000     -19.153656      -521.1975 
   2   2.0000     -14.556596      -396.1051 
   3   2.0000     -14.350911      -390.5081 
   4   2.0000     -10.248438      -278.8742 
   5   2.0000     -10.241302      -278.6800 
   6   2.0000     -10.202034      -277.6114 
   7   2.0000     -10.201232      -277.5896 
   8   2.0000     -10.199522      -277.5431 
   9   2.0000     -10.196200      -277.4527 
  10   2.0000      -1.246251       -33.9122 
  11   2.0000      -1.049452       -28.5570 
  12   2.0000      -0.921295       -25.0697 
  13   2.0000      -0.866621       -23.5820 
  14   2.0000      -0.801333       -21.8054 
  15   2.0000      -0.747337       -20.3361 
  16   2.0000      -0.701135       -19.0788 
  17   2.0000      -0.621373       -16.9084 
  18   2.0000      -0.592340       -16.1184 
  19   2.0000      -0.547590       -14.9007 
  20   2.0000      -0.538213       -14.6455 
  21   2.0000      -0.528756       -14.3882 
  22   2.0000      -0.505642       -13.7592 
  23   2.0000      -0.494198       -13.4478 
  24   2.0000      -0.483606       -13.1596 
  25   2.0000      -0.447838       -12.1863 
  26   2.0000      -0.441176       -12.0050 
  27   2.0000      -0.395250       -10.7553 
  28   2.0000      -0.385286       -10.4842 
  29   2.0000      -0.370875       -10.0920 
  30   2.0000      -0.321089        -8.7373 
  31   2.0000      -0.303439        -8.2570 
  32   2.0000      -0.293631        -7.9901 
  33   2.0000      -0.271197        -7.3797 
  34   2.0000      -0.266389        -7.2488 
  35   2.0000      -0.215692        -5.8693 
  36   0.0000      -0.072938        -1.9848 
  37   0.0000      -0.004006        -0.1090 
  38   0.0000       0.026944         0.7332 
  39   0.0000       0.060271         1.6401 
  40   0.0000       0.091503         2.4899 
  41   0.0000       0.106730         2.9043 
  42   0.0000       0.151741         4.1291 
  43   0.0000       0.158426         4.3110 
  44   0.0000       0.164252         4.4695 
  45   0.0000       0.188774         5.1368 
  46   0.0000       0.211004         5.7417 
  47   0.0000       0.238079         6.4785 
  48   0.0000       0.284819         7.7503 
  49   0.0000       0.290508         7.9051 
  50   0.0000       0.318838         8.6760 
  51   0.0000       0.334167         9.0931 
  52   0.0000       0.362969         9.8769 
  53   0.0000       0.408877        11.1261 
  54   0.0000       0.467985        12.7345 
  55   0.0000       0.488408        13.2903 
  56   0.0000       0.506675        13.7873 
  57   0.0000       0.534469        14.5437 
  58   0.0000       0.559361        15.2210 
  59   0.0000       0.569618        15.5001 
  60   0.0000       0.574769        15.6403 
  61   0.0000       0.583322        15.8730 
  62   0.0000       0.593993        16.1634 
  63   0.0000       0.601185        16.3591 
  64   0.0000       0.610675        16.6173 
  65   0.0000       0.638676        17.3792 
  66   0.0000       0.645919        17.5764 
  67   0.0000       0.657249        17.8847 
  68   0.0000       0.657291        17.8858 
  69   0.0000       0.724164        19.7055 
  70   0.0000       0.731453        19.9038 
  71   0.0000       0.762556        20.7502 
  72   0.0000       0.793911        21.6034 
  73   0.0000       0.800171        21.7738 
  74   0.0000       0.819519        22.3002 
  75   0.0000       0.836687        22.7674 
  76   0.0000       0.842882        22.9360 
  77   0.0000       0.853471        23.2241 
  78   0.0000       0.856793        23.3145 
  79   0.0000       0.880282        23.9537 
  80   0.0000       0.894527        24.3413 
  81   0.0000       0.941465        25.6186 
  82   0.0000       0.965891        26.2832 
  83   0.0000       0.968063        26.3423 
  84   0.0000       0.981725        26.7141 
  85   0.0000       0.995810        27.0974 
  86   0.0000       1.007394        27.4126 
  87   0.0000       1.033460        28.1219 
  88   0.0000       1.058224        28.7957 
  89   0.0000       1.087791        29.6003 
  90   0.0000       1.126214        30.6458 
  91   0.0000       1.153500        31.3883 
  92   0.0000       1.193371        32.4733 
  93   0.0000       1.225311        33.3424 
  94   0.0000       1.285001        34.9667 
  95   0.0000       1.325833        36.0777 
  96   0.0000       1.327320        36.1182 
  97   0.0000       1.340424        36.4748 
  98   0.0000       1.356049        36.9000 
  99   0.0000       1.407087        38.2888 
 100   0.0000       1.440379        39.1947 
 101   0.0000       1.450689        39.4753 
 102   0.0000       1.466591        39.9080 
 103   0.0000       1.484930        40.4070 
 104   0.0000       1.489631        40.5349 
 105   0.0000       1.596805        43.4513 
 106   0.0000       1.626520        44.2599 
 107   0.0000       1.656279        45.0696 
 108   0.0000       1.710590        46.5475 
 109   0.0000       1.749860        47.6161 
 110   0.0000       1.760686        47.9107 
 111   0.0000       1.791793        48.7572 
 112   0.0000       1.832409        49.8624 
 113   0.0000       1.845470        50.2178 
 114   0.0000       1.866190        50.7816 
 115   0.0000       1.891229        51.4630 
 116   0.0000       1.893427        51.5228 
 117   0.0000       1.930428        52.5296 
 118   0.0000       1.933288        52.6074 
 119   0.0000       1.953621        53.1607 
 120   0.0000       1.979190        53.8565 
 121   0.0000       1.997473        54.3540 
 122   0.0000       2.027017        55.1579 
 123   0.0000       2.060006        56.0556 
 124   0.0000       2.112028        57.4712 
 125   0.0000       2.151153        58.5358 
 126   0.0000       2.162063        58.8327 
 127   0.0000       2.216001        60.3005 
 128   0.0000       2.226623        60.5895 
 129   0.0000       2.247917        61.1689 
 130   0.0000       2.261064        61.5267 
 131   0.0000       2.289311        62.2953 
 132   0.0000       2.341536        63.7164 
 133   0.0000       2.406305        65.4789 
 134   0.0000       2.414739        65.7084 
 135   0.0000       2.452505        66.7360 
 136   0.0000       2.555826        69.5476 
 137   0.0000       2.588455        70.4354 
 138   0.0000       2.604484        70.8716 
 139   0.0000       2.619250        71.2734 
 140   0.0000       2.652243        72.1712 
 141   0.0000       2.712446        73.8094 
 142   0.0000       2.731598        74.3306 
 143   0.0000       2.780702        75.6667 
 144   0.0000       2.790718        75.9393 
 145   0.0000       2.866257        77.9948 
 146   0.0000       2.940691        80.0203 
 147   0.0000       2.965408        80.6929 
 148   0.0000       3.022279        82.2404 
 149   0.0000       3.133112        85.2563 
 150   0.0000       3.247649        88.3730 
 151   0.0000       3.418944        93.0342 
------------------
MOLECULAR ORBITALS
------------------
                      0         1         2         3         4         5   
                 -19.15387 -19.15366 -14.55660 -14.35091 -10.24844 -10.24130
                   2.00000   2.00000   2.00000   2.00000   2.00000   2.00000
                  --------  --------  --------  --------  --------  --------
  0C   1s        -0.000000  0.000034 -0.000070  0.000033  0.000256 -0.004227
  0C   2s        -0.000061  0.000392 -0.000650  0.000299  0.000654  0.002034
  0C   1pz        0.000003  0.000000 -0.000001 -0.000006 -0.000010 -0.000048
  0C   1px       -0.000204  0.000108 -0.000011  0.000024  0.000039  0.000889
  0C   1py       -0.000028  0.000054 -0.000024 -0.000114 -0.000194 -0.000647
  0C   3s        -0.006047 -0.005502  0.007223 -0.002117 -0.005379 -0.016692
  0C   2pz        0.000106  0.000218 -0.000288  0.000069  0.000166  0.000461
  0C   2px       -0.003672 -0.005455 -0.001103  0.000094  0.000591 -0.000745
  0C   2py        0.000607  0.002247 -0.006930  0.001579  0.003977  0.009887
  0C   1dz2      -0.000050  0.000060 -0.000199  0.000058  0.000114 -0.000491
  0C   1dxz      -0.000002  0.000011 -0.000006  0.000003  0.000005 -0.000072
  0C   1dyz       0.000013 -0.000012  0.000036 -0.000003 -0.000007  0.000024
  0C   1dx2y2    -0.000153  0.000064 -0.000379 -0.000040 -0.000036  0.000723
  0C   1dxy      -0.000086  0.000222 -0.000140 -0.000003 -0.000008 -0.000852
  1C   1s        -0.000020  0.000025 -0.000011  0.000002 -0.000003  0.000002
  1C   2s        -0.000126  0.000195 -0.000172  0.000094  0.000022  0.000014
  1C   1pz        0.000003  0.000002  0.000004 -0.000011 -0.000018 -0.000006
  1C   1px        0.000019  0.000052 -0.000269  0.000080  0.000107  0.000395
  1C   1py        0.000070  0.000074 -0.000029 -0.000208 -0.000340  0.000056
  1C   3s         0.000517 -0.001485 -0.004505  0.004505  0.008056  0.008805
  1C   2pz       -0.000068 -0.000077  0.000037 -0.000080 -0.000167 -0.000136
  1C   2px        0.000067 -0.000871 -0.001363  0.001257  0.003550  0.003553
  1C   2py       -0.001474 -0.002130  0.000170 -0.001173 -0.002016 -0.001325
  1C   1dz2      -0.000040  0.000079 -0.000062  0.000045  0.000064  0.000049
  1C   1dxz      -0.000000  0.000001 -0.000001  0.000000  0.000002  0.000002
  1C   1dyz       0.000002 -0.000003  0.000005 -0.000004 -0.000002 -0.000008
  1C   1dx2y2     0.000011 -0.000036 -0.000016  0.000014 -0.000050  0.000074
  1C   1dxy       0.000029 -0.000064  0.000016 -0.000028 -0.000038  0.000049
  2C   1s         0.000032 -0.000047  0.000077 -0.000015  0.000328 -0.995039
  2C   2s         0.000139 -0.000196  0.000061  0.000062 -0.000037 -0.036755
  2C   1pz       -0.000003  0.000000 -0.000002 -0.000005 -0.000007  0.000001
  2C   1px       -0.000103  0.000219 -0.000462 -0.000087 -0.000133 -0.000503
  2C   1py       -0.000114  0.000105 -0.000271 -0.000145 -0.000214 -0.000231
  2C   3s        -0.001500  0.001906  0.007523  0.005913  0.009490  0.024914
  2C   2pz        0.000692  0.000404  0.000063 -0.000065 -0.000119 -0.000070
  2C   2px       -0.004134 -0.008319  0.018440  0.000151 -0.001702 -0.017169
  2C   2py        0.013407  0.004995  0.010226 -0.001370 -0.003452 -0.009759
  2C   1dz2      -0.000044  0.000082  0.000027 -0.000029 -0.000023  0.001077
  2C   1dxz       0.000022  0.000019 -0.000007  0.000003  0.000006  0.000025
  2C   1dyz       0.000020  0.000003  0.000009 -0.000001  0.000001 -0.000061
  2C   1dx2y2    -0.000514 -0.000299 -0.000140  0.000034 -0.000039 -0.000287
  2C   1dxy       0.000290  0.000205 -0.000236  0.000100  0.000134 -0.000464
  3C   1s        -0.000009  0.000009 -0.000027  0.000069 -0.004114  0.000303
  3C   2s        -0.000070  0.000078 -0.000284  0.000647  0.002168  0.000637
  3C   1pz       -0.000003 -0.000001  0.000001 -0.000002 -0.000048 -0.000001
  3C   1px        0.000027  0.000008 -0.000141  0.000014  0.001078  0.000225
  3C   1py       -0.000050 -0.000018 -0.000049 -0.000039 -0.000541  0.000081
  3C   3s         0.001015 -0.001086  0.001228 -0.007016 -0.017078 -0.004234
  3C   2pz       -0.000091 -0.000028  0.000017 -0.000056  0.000089 -0.000051
  3C   2px        0.000797  0.000715  0.000815 -0.005288 -0.009909 -0.002844
  3C   2py       -0.001635 -0.000273  0.000759 -0.003774 -0.002757 -0.002502
  3C   1dz2      -0.000023  0.000027 -0.000050  0.000183 -0.000493  0.000099
  3C   1dxz      -0.000003  0.000001 -0.000002  0.000004 -0.000070  0.000004
  3C   1dyz       0.000002 -0.000004  0.000007  0.000005  0.000047 -0.000010
  3C   1dx2y2     0.000023  0.000047 -0.000044 -0.000311  0.000298  0.000042
  3C   1dxy      -0.000042  0.000012 -0.000032 -0.000222 -0.000998  0.000020
  4C   1s        -0.000012  0.000034  0.000000 -0.000114 -0.995133 -0.000389
  4C   2s        -0.000139  0.000268 -0.000191  0.000080 -0.036617 -0.000030
  4C   1pz        0.000004  0.000001 -0.000008 -0.000037 -0.000002  0.000011
  4C   1px       -0.000140  0.000022 -0.000101 -0.000011 -0.000018  0.000128
  4C   1py        0.000026  0.000023 -0.000221 -0.000838 -0.000056  0.000304
  4C   3s         0.000800 -0.001216 -0.005534 -0.003187  0.031812  0.009977
  4C   2pz       -0.000096 -0.000046  0.000055  0.000779  0.000774  0.000033
  4C   2px        0.003416 -0.000909 -0.001591 -0.000024  0.000182  0.003104
  4C   2py       -0.000506 -0.001464  0.000471  0.017313  0.017308  0.002229
  4C   1dz2      -0.000038  0.000062  0.000003 -0.000240  0.000907 -0.000025
  4C   1dxz      -0.000000  0.000001 -0.000004  0.000004  0.000027  0.000007
  4C   1dyz      -0.000001 -0.000000 -0.000005  0.000044 -0.000086  0.000003
  4C   1dx2y2     0.000057 -0.000071  0.000118 -0.000562  0.000329 -0.000091
  4C   1dxy       0.000051 -0.000059 -0.000029  0.000015  0.000010  0.000137
  5C   1s        -0.000026  0.000005 -0.000076  0.000077 -0.004222 -0.004795
  5C   2s        -0.000295  0.000164 -0.000690  0.000698  0.002274  0.002133
  5C   1pz        0.000001  0.000004  0.000000 -0.000001 -0.000001  0.000052
  5C   1px       -0.000030  0.000148 -0.000022 -0.000028 -0.001118 -0.000086
  5C   1py        0.000009  0.000155  0.000001 -0.000038 -0.000553  0.001119
  5C   3s         0.007209  0.004031  0.007460 -0.007358 -0.018664 -0.018286
  5C   2pz        0.000285  0.000014  0.000218 -0.000299 -0.000375 -0.000392
  5C   2px        0.001671  0.000223 -0.006484  0.004660  0.009403  0.008488
  5C   2py        0.007136  0.000418  0.001740 -0.004428 -0.003837 -0.004652
  5C   1dz2      -0.000022  0.000050 -0.000206  0.000194 -0.000463 -0.000463
  5C   1dxz      -0.000001  0.000011 -0.000025  0.000023  0.000017  0.000014
  5C   1dyz       0.000010 -0.000013  0.000023 -0.000007 -0.000001  0.000081
  5C   1dx2y2    -0.000154  0.000086  0.000030 -0.000283  0.000372 -0.001074
  5C   1dxy      -0.000082  0.000245 -0.000369  0.000207  0.000947  0.000178
  6N   1s        -0.000007  0.000011 -0.000065 -0.995302 -0.000161  0.000031
  6N   2s        -0.000088  0.000110 -0.000319 -0.032504 -0.000662  0.000314
  6N   1pz       -0.000002  0.000001 -0.000000 -0.000017  0.000034 -0.000000
  6N   1px       -0.000034 -0.000021 -0.000025  0.000005  0.000021  0.000053
  6N   1py       -0.000058  0.000023 -0.000013 -0.000377  0.000763  0.000020
  6N   3s        -0.000145 -0.000726  0.001820  0.029048  0.006541 -0.001260
  6N   2pz        0.000015 -0.000027  0.000041  0.000284  0.000199 -0.000026
  6N   2px       -0.000250  0.000324  0.000360  0.000063 -0.000048 -0.000823
  6N   2py        0.000212 -0.000439  0.001085  0.006343  0.004403 -0.000981
  6N   1dz2      -0.000048  0.000026 -0.000067 -0.000190 -0.001054  0.000073
  6N   1dxz      -0.000003  0.000001  0.000000 -0.000000 -0.000002 -0.000001
  6N   1dyz       0.000005 -0.000004  0.000010  0.000028  0.000156 -0.000010
  6N   1dx2y2    -0.000012  0.000025 -0.000109 -0.000294 -0.001649  0.000118
  6N   1dxy      -0.000041  0.000019  0.000009  0.000008  0.000036 -0.000028
  7N   1s         0.000108 -0.000175  0.995297 -0.000007  0.000021 -0.000233
  7N   2s        -0.000143  0.000224  0.034065  0.000277  0.000285 -0.001285
  7N   1pz        0.000018  0.000014  0.000003 -0.000001 -0.000002 -0.000002
  7N   1px       -0.000435  0.000276  0.000744 -0.000019 -0.000019 -0.000298
  7N   1py        0.000196  0.000437  0.000419 -0.000033 -0.000058 -0.000176
  7N   3s         0.006800 -0.010897 -0.023032 -0.001128 -0.000178  0.010339
  7N   2pz       -0.000952 -0.000637  0.000049  0.000024  0.000063 -0.000020
  7N   2px        0.014190 -0.001400  0.012783  0.000792  0.000469 -0.008398
  7N   2py       -0.014350 -0.014805  0.007209  0.000920  0.001626 -0.004464
  7N   1dz2       0.000167 -0.000273 -0.000920  0.000043  0.000034 -0.001212
  7N   1dxz       0.000044 -0.000011 -0.000065  0.000001  0.000001 -0.000003
  7N   1dyz      -0.000011  0.000058  0.000118 -0.000000  0.000002  0.000033
  7N   1dx2y2    -0.000369 -0.000654 -0.000563 -0.000046 -0.000078  0.000749
  7N   1dxy       0.000662 -0.000322 -0.000956 -0.000044 -0.000046  0.001286
  8O   1s        -0.227833 -0.968743  0.000119  0.000003  0.000009  0.000001
  8O   2s        -0.007899 -0.029257  0.000519  0.000057  0.000121 -0.000027
  8O   1pz        0.000035  0.000097  0.000042 -0.000000  0.000000  0.000003
  8O   1px       -0.000109  0.000222  0.000034  0.000007  0.000010 -0.000177
  8O   1py        0.000716  0.002272  0.000943 -0.000001  0.000014 -0.000016
  8O   3s         0.011680  0.025717 -0.003981 -0.000403 -0.001051  0.001029
  8O   2pz       -0.000161 -0.000425  0.000158  0.000009  0.000022 -0.000032
  8O   2px       -0.002082 -0.000200 -0.001517 -0.000162 -0.000176  0.001636
  8O   2py       -0.004567 -0.009528  0.002781  0.000130  0.000407  0.000069
  8O   1dz2      -0.000419 -0.000295  0.001217  0.000005  0.000016  0.000178
  8O   1dxz       0.000018 -0.000001  0.000020  0.000002  0.000002 -0.000010
  8O   1dyz       0.000029  0.000054 -0.000181 -0.000001 -0.000004 -0.000009
  8O   1dx2y2    -0.000218 -0.000648  0.001776  0.000004  0.000035  0.000060
  8O   1dxy       0.000649 -0.000093  0.000288  0.000040  0.000045 -0.000333
  9H   1s        -0.000031 -0.000023 -0.000117  0.000115  0.000033  0.000174
  9H   2s         0.000258 -0.000182  0.000070 -0.002730  0.000504  0.000036
 10H   1s         0.000010  0.000073 -0.000012  0.000105 -0.000011 -0.000061
 10H   2s         0.000009 -0.000032  0.000211 -0.002731  0.000472 -0.000306
 11O   1s         0.968767 -0.227730  0.000120  0.000001  0.000002 -0.000002
 11O   2s         0.029716 -0.005959  0.000525  0.000065  0.000089 -0.000046
 11O   1pz        0.000093 -0.000010 -0.000038  0.000000  0.000000 -0.000004
 11O   1px       -0.002101  0.000426  0.000831 -0.000026 -0.000043 -0.000118
 11O   1py        0.001069 -0.000017 -0.000450 -0.000004 -0.000013 -0.000152
 11O   3s        -0.028186  0.000890 -0.004047 -0.000058  0.000104  0.001343
 11O   2pz       -0.000408  0.000053 -0.000159 -0.000003 -0.000002  0.000049
 11O   2px        0.009633  0.000818  0.001642 -0.000043 -0.000081  0.000780
 11O   2py       -0.004441  0.001572 -0.002755 -0.000095 -0.000078  0.001452
 11O   1dz2       0.000454  0.000244  0.001220  0.000017  0.000037  0.000178
 11O   1dxz       0.000050  0.000003  0.000135 -0.000000 -0.000000  0.000008
 11O   1dyz      -0.000023  0.000012 -0.000106 -0.000003 -0.000005  0.000003
 11O   1dx2y2    -0.000503 -0.000510 -0.000594  0.000034  0.000049 -0.000309
 11O   1dxy       0.000494 -0.000369  0.001707 -0.000005 -0.000012 -0.000123
 12H   1s         0.000137  0.000245  0.000278 -0.000038 -0.000126 -0.000136
 12H   2s        -0.000042 -0.001040  0.002135 -0.000499 -0.001174 -0.002467
 13H   1s         0.000043  0.000127  0.000032  0.000004  0.000085  0.000017
 13H   2s         0.000273  0.000096  0.000113  0.000083  0.000611  0.000412
 14H   1s        -0.000056  0.000103  0.000047 -0.000218 -0.000005 -0.000174
 14H   2s        -0.000088  0.000221  0.000326 -0.001963 -0.002806 -0.001075
 15H   1s        -0.000265 -0.000010  0.000242 -0.000190  0.000038 -0.000078
 15H   2s         0.000923 -0.000306  0.001872 -0.001847 -0.002682 -0.002188
                      6         7         8         9        10        11   
                 -10.20203 -10.20123 -10.19952 -10.19620  -1.24625  -1.04945
                   2.00000   2.00000   2.00000   2.00000   2.00000   2.00000
                  --------  --------  --------  --------  --------  --------
  0C   1s         0.000889  0.042358 -0.008589  0.994193  0.003367  0.004185
  0C   2s         0.000090 -0.000613  0.000008  0.036621 -0.009848 -0.008741
  0C   1pz       -0.000012  0.000005  0.000006 -0.000048  0.000171  0.000065
  0C   1px        0.000137  0.001156 -0.000034  0.000025 -0.006733 -0.005273
  0C   1py       -0.000192  0.000664  0.000106 -0.001057  0.000575 -0.001076
  0C   3s         0.004788  0.011966 -0.007889 -0.033727  0.023625  0.022719
  0C   2pz       -0.000121 -0.000189  0.000176  0.000360 -0.001255 -0.000692
  0C   2px        0.000046 -0.001662  0.000652 -0.000381  0.002190  0.020879
  0C   2py       -0.002659 -0.004985  0.004233  0.007818 -0.026840 -0.005411
  0C   1dz2       0.000079  0.000563 -0.000112 -0.000624  0.000211  0.000470
  0C   1dxz      -0.000001 -0.000007 -0.000004 -0.000031  0.000025  0.000014
  0C   1dyz      -0.000003  0.000004  0.000003  0.000027  0.000079 -0.000047
  0C   1dx2y2    -0.000019 -0.000619  0.000104  0.000463 -0.001876  0.000210
  0C   1dxy      -0.000093 -0.000921  0.000052  0.000053 -0.000512  0.000020
  1C   1s         0.009833  0.985824 -0.128497 -0.043301  0.000167  0.000493
  1C   2s         0.000867  0.035857 -0.006841 -0.003750 -0.001912 -0.000913
  1C   1pz       -0.000006 -0.000031  0.000064 -0.000001  0.000022 -0.000018
  1C   1px        0.000137  0.000720 -0.000111 -0.001218 -0.001457 -0.000785
  1C   1py       -0.000072 -0.000336  0.001378 -0.000598 -0.000207 -0.000775
  1C   3s        -0.004716 -0.029927  0.017981  0.015208 -0.010114  0.001322
  1C   2pz        0.000129  0.000265 -0.000354 -0.000223  0.000120  0.000371
  1C   2px       -0.002530 -0.005704  0.005142  0.006765 -0.001524  0.001580
  1C   2py        0.001661  0.003153 -0.005416 -0.001719  0.001953  0.009000
  1C   1dz2       0.000083 -0.000490  0.000674  0.000645 -0.000237  0.000124
  1C   1dxz       0.000003 -0.000002 -0.000007 -0.000013 -0.000002  0.000001
  1C   1dyz      -0.000007  0.000036 -0.000102 -0.000005  0.000016 -0.000004
  1C   1dx2y2     0.000011 -0.000097  0.001167 -0.000494 -0.000011 -0.000076
  1C   1dxy      -0.000006  0.000325 -0.000166 -0.001070  0.000140 -0.000121
  2C   1s         0.004992 -0.000168  0.000219 -0.004414  0.026092 -0.000029
  2C   2s         0.002311 -0.000178 -0.000546 -0.002302 -0.049103 -0.000023
  2C   1pz       -0.000057 -0.000005  0.000001 -0.000054 -0.000156 -0.001212
  2C   1px       -0.000054  0.000244  0.000095  0.001141 -0.039364  0.011934
  2C   1py       -0.001303  0.000017  0.000076 -0.000645 -0.022275 -0.021197
  2C   3s        -0.013796 -0.004390  0.004876  0.014748  0.011944  0.001409
  2C   2pz        0.000168 -0.000089  0.000001  0.000112  0.000266 -0.002699
  2C   2px        0.003640  0.001548 -0.004377 -0.006387  0.076136  0.026748
  2C   2py        0.005477 -0.001238 -0.002074 -0.000564  0.042304 -0.047175
  2C   1dz2      -0.000617  0.000021 -0.000055  0.000620  0.003864 -0.000030
  2C   1dxz      -0.000001  0.000005 -0.000005  0.000082 -0.000032 -0.000298
  2C   1dyz       0.000101  0.000004  0.000006 -0.000050 -0.000032 -0.000194
  2C   1dx2y2    -0.001148 -0.000141 -0.000011 -0.000484 -0.003339  0.006111
  2C   1dxy      -0.000068  0.000022 -0.000072  0.001067 -0.005518 -0.003661
  3C   1s         0.001433  0.128562  0.986781  0.003088  0.000032 -0.000021
  3C   2s         0.000100  0.002575  0.036588  0.000246 -0.001301  0.000141
  3C   1pz       -0.000007 -0.000059  0.000005 -0.000004  0.000000 -0.000002
  3C   1px        0.000245  0.000051  0.000841 -0.000114 -0.000633  0.000057
  3C   1py       -0.000035 -0.001279  0.000513 -0.000146 -0.000300 -0.000027
  3C   3s         0.005140  0.009196 -0.034952 -0.007334  0.005500 -0.001532
  3C   2pz        0.000020  0.000107 -0.000024 -0.000031 -0.000005  0.000357
  3C   2px        0.002414  0.002980 -0.007262 -0.003225  0.001944 -0.004556
  3C   2py        0.001600  0.003804 -0.003996 -0.002225  0.000819  0.005750
  3C   1dz2       0.000078  0.000520 -0.000683 -0.000066 -0.000123  0.000016
  3C   1dxz       0.000001 -0.000003 -0.000035 -0.000005 -0.000009  0.000006
  3C   1dyz      -0.000010 -0.000090  0.000078  0.000007  0.000021  0.000003
  3C   1dx2y2     0.000089  0.001087 -0.000370 -0.000013 -0.000169 -0.000123
  3C   1dxy      -0.000009  0.000016 -0.000391 -0.000057 -0.000178  0.000068
  4C   1s         0.004433 -0.000568 -0.004285  0.000112  0.000216 -0.000651
  4C   2s         0.002324 -0.000374 -0.002302 -0.000599 -0.002008  0.001136
  4C   1pz        0.000006 -0.000018 -0.000053 -0.000008 -0.000034 -0.000017
  4C   1px        0.001151  0.000233  0.001139 -0.000005 -0.000875  0.001117
  4C   1py        0.000681 -0.000281 -0.000642 -0.000176 -0.001171  0.000150
  4C   3s        -0.013106 -0.003218  0.014438  0.004719 -0.013795  0.000017
  4C   2pz       -0.000229 -0.000041  0.000352  0.000227  0.000174  0.000462
  4C   2px       -0.002886  0.001164 -0.002909 -0.000378  0.000334 -0.009387
  4C   2py       -0.006474 -0.000365  0.006425  0.004869  0.004031  0.005785
  4C   1dz2      -0.000655  0.000066  0.000652 -0.000058 -0.000050 -0.000141
  4C   1dxz       0.000003  0.000012  0.000081 -0.000004 -0.000010 -0.000002
  4C   1dyz       0.000001 -0.000010 -0.000042  0.000002 -0.000015  0.000005
  4C   1dx2y2     0.000671 -0.000003 -0.000648  0.000064  0.000415  0.000086
  4C   1dxy       0.000939  0.000214  0.000945 -0.000017  0.000027  0.000120
  5C   1s        -0.995071  0.009884  0.000151  0.000462  0.003416 -0.004296
  5C   2s        -0.036603 -0.000000  0.000015 -0.000013 -0.009918  0.009031
  5C   1pz       -0.000041 -0.000007 -0.000004 -0.000011 -0.000209  0.000102
  5C   1px        0.000878  0.000147  0.000194  0.000109 -0.002952  0.003617
  5C   1py       -0.000486 -0.000095  0.000011 -0.000185 -0.006064  0.003994
  5C   3s         0.033709  0.000216 -0.005577 -0.005562  0.022085 -0.023685
  5C   2pz        0.000322  0.000052 -0.000146 -0.000154  0.001048 -0.000871
  5C   2px       -0.006427 -0.001089  0.003189  0.002687 -0.020814 -0.005506
  5C   2py        0.004087  0.000645 -0.001725 -0.002136  0.013326 -0.021974
  5C   1dz2       0.000576 -0.000053 -0.000056 -0.000059  0.000236 -0.000472
  5C   1dxz      -0.000000 -0.000002  0.000000 -0.000001 -0.000082 -0.000028
  5C   1dyz      -0.000045  0.000005  0.000008  0.000001  0.000005  0.000037
  5C   1dx2y2     0.000190 -0.000012 -0.000075  0.000051  0.000366  0.000082
  5C   1dxy      -0.000389 -0.000007  0.000011  0.000057 -0.001851 -0.000183
  6N   1s         0.000019 -0.000021 -0.000014 -0.000022 -0.000085 -0.000286
  6N   2s         0.000326 -0.000226 -0.000273 -0.000235 -0.001090  0.000439
  6N   1pz        0.000004 -0.000003 -0.000006  0.000000 -0.000007  0.000011
  6N   1px        0.000041  0.000052  0.000041 -0.000009 -0.000068  0.000180
  6N   1py        0.000103 -0.000035 -0.000115  0.000001 -0.000180  0.000321
  6N   3s        -0.001624  0.000878  0.001221  0.002148  0.006377  0.003582
  6N   2pz       -0.000025  0.000042  0.000014  0.000036  0.000195  0.000026
  6N   2px        0.000069 -0.000553  0.000089  0.000133  0.000205  0.000452
  6N   2py       -0.000521  0.000663  0.000356  0.000868  0.004432  0.000792
  6N   1dz2       0.000102 -0.000060 -0.000098 -0.000023 -0.000197 -0.000007
  6N   1dxz       0.000008 -0.000001 -0.000004  0.000000 -0.000002  0.000005
  6N   1dyz      -0.000005  0.000007  0.000002  0.000003  0.000029  0.000001
  6N   1dx2y2    -0.000082 -0.000055  0.000102 -0.000032 -0.000288 -0.000047
  6N   1dxy       0.000048 -0.000005  0.000042  0.000005 -0.000021  0.000090
  7N   1s         0.000005 -0.000020 -0.000025 -0.000001  0.164833  0.000186
  7N   2s         0.000232 -0.000233 -0.000244 -0.000196 -0.355980 -0.000402
  7N   1pz       -0.000003 -0.000002  0.000000 -0.000003 -0.000352 -0.017035
  7N   1px       -0.000018  0.000044  0.000017  0.000077 -0.091379  0.168657
  7N   1py       -0.000080 -0.000014  0.000019 -0.000032 -0.051521 -0.297581
  7N   3s        -0.000292  0.000741  0.002365  0.000014 -0.205539 -0.000606
  7N   2pz       -0.000002  0.000054 -0.000018  0.000006  0.000268 -0.000104
  7N   2px        0.000245 -0.001332 -0.000602 -0.000119  0.062553  0.001219
  7N   2py        0.000064  0.000562 -0.000691  0.000085  0.035877 -0.001712
  7N   1dz2       0.000034 -0.000035 -0.000042 -0.000026  0.016740  0.000004
  7N   1dxz       0.000005  0.000002 -0.000002  0.000000  0.000896 -0.001269
  7N   1dyz      -0.000003  0.000002  0.000003  0.000006 -0.001714 -0.000844
  7N   1dx2y2    -0.000029 -0.000016  0.000010 -0.000081  0.004968  0.026197
  7N   1dxy       0.000068  0.000063 -0.000011 -0.000007  0.008358 -0.015658
  8O   1s         0.000008  0.000000 -0.000001 -0.000004  0.107212  0.141259
  8O   2s         0.000143 -0.000047 -0.000016 -0.000147 -0.231614 -0.312103
  8O   1pz        0.000000  0.000001  0.000001  0.000003  0.006132  0.005141
  8O   1px       -0.000032  0.000031 -0.000013  0.000037 -0.004332  0.025331
  8O   1py       -0.000007  0.000028  0.000011  0.000075  0.134088  0.126271
  8O   3s        -0.000515 -0.000339  0.000084  0.000233 -0.196410 -0.298690
  8O   2pz        0.000006  0.000006 -0.000001 -0.000011  0.002549  0.002255
  8O   2px        0.000192  0.000045  0.000077 -0.000072 -0.008187  0.014339
  8O   2py        0.000223  0.000159  0.000014 -0.000274  0.052677  0.056931
  8O   1dz2       0.000017 -0.000022  0.000011 -0.000038  0.007969  0.005347
  8O   1dxz      -0.000001 -0.000003 -0.000001  0.000002  0.000068 -0.000324
  8O   1dyz      -0.000001  0.000000 -0.000001  0.000003 -0.001419 -0.000755
  8O   1dx2y2     0.000013  0.000046  0.000012 -0.000023  0.016350  0.010601
  8O   1dxy      -0.000025 -0.000023 -0.000016  0.000061  0.002710 -0.006553
  9H   1s         0.000095  0.000061 -0.000045 -0.000067 -0.000273  0.000241
  9H   2s         0.000033  0.000221  0.000191  0.000062  0.000986 -0.000696
 10H   1s         0.000057 -0.000143 -0.000090 -0.000027 -0.000120 -0.000050
 10H   2s        -0.000187  0.000022 -0.000008  0.000106  0.000812  0.000156
 11O   1s         0.000004 -0.000006  0.000002 -0.000009  0.107462 -0.141108
 11O   2s         0.000148 -0.000082  0.000000 -0.000154 -0.232136  0.311659
 11O   1pz        0.000002  0.000000 -0.000001  0.000001 -0.005699  0.004527
 11O   1px       -0.000079 -0.000016  0.000017  0.000018  0.113136 -0.121178
 11O   1py        0.000013 -0.000007 -0.000011  0.000027 -0.072480  0.042637
 11O   3s        -0.000331  0.000806 -0.000245  0.000632 -0.196675  0.298739
 11O   2pz       -0.000012  0.000016 -0.000005  0.000005 -0.002414  0.001960
 11O   2px        0.000283 -0.000199  0.000163 -0.000351  0.041069 -0.056312
 11O   2py       -0.000131  0.000253 -0.000023 -0.000057 -0.033932  0.016553
 11O   1dz2       0.000035 -0.000006  0.000009 -0.000018  0.008001 -0.005364
 11O   1dxz       0.000002 -0.000002  0.000002 -0.000002  0.001121 -0.000710
 11O   1dyz       0.000000  0.000002  0.000000 -0.000000 -0.000722  0.000066
 11O   1dx2y2    -0.000060 -0.000012 -0.000030  0.000039 -0.005384  0.010798
 11O   1dxy      -0.000002 -0.000035  0.000020 -0.000002  0.015670 -0.006156
 12H   1s         0.000052 -0.000235 -0.000067 -0.001326 -0.001259 -0.004085
 12H   2s         0.000429  0.001096 -0.000764  0.002576  0.009596  0.000328
 13H   1s        -0.000100 -0.001401  0.000058 -0.000045 -0.000057 -0.000473
 13H   2s        -0.000823  0.002739  0.000944  0.001229  0.001229 -0.001210
 14H   1s         0.000067 -0.000347 -0.001334 -0.000080 -0.000089 -0.000029
 14H   2s         0.000474  0.001336  0.002514 -0.000679  0.000690 -0.000379
 15H   1s         0.001329  0.000067 -0.000126 -0.000090 -0.001411  0.004175
 15H   2s        -0.002693  0.000554 -0.000716 -0.000673  0.008553 -0.000465
                     12        13        14        15        16        17   
                  -0.92130  -0.86662  -0.80133  -0.74734  -0.70113  -0.62137
                   2.00000   2.00000   2.00000   2.00000   2.00000   2.00000
                  --------  --------  --------  --------  --------  --------
  0C   1s         0.026580  0.091724 -0.026388 -0.100796 -0.093682 -0.079249
  0C   2s        -0.050742 -0.175118  0.048301  0.198496  0.182672  0.159548
  0C   1pz        0.001047  0.002927  0.000708  0.000511 -0.000992 -0.001406
  0C   1px       -0.003391 -0.026315 -0.091545 -0.038297 -0.008373  0.128332
  0C   1py        0.021642  0.052441 -0.028048 -0.006850 -0.025974  0.030218
  0C   3s        -0.028745 -0.096415  0.040440  0.148211  0.162268  0.138253
  0C   2pz       -0.000180 -0.000114 -0.000439  0.000918 -0.000429  0.000574
  0C   2px       -0.004457 -0.003543 -0.013874 -0.009100  0.001766  0.032290
  0C   2py       -0.006054 -0.004049 -0.016419  0.015855 -0.008940  0.028119
  0C   1dz2       0.002797  0.008853 -0.002502 -0.007419 -0.006267 -0.003924
  0C   1dxz       0.000116  0.000449  0.000280 -0.000135 -0.000287 -0.000350
  0C   1dyz      -0.000225 -0.000674  0.000145  0.000423  0.000725  0.000633
  0C   1dx2y2     0.000025 -0.001305 -0.002327  0.001568 -0.003817 -0.004164
  0C   1dxy       0.000271  0.001999  0.007198  0.003926 -0.002988 -0.006502
  1C   1s         0.029449  0.066946 -0.107529 -0.087923 -0.000053  0.097537
  1C   2s        -0.055546 -0.127486  0.207093  0.172659 -0.000230 -0.197997
  1C   1pz        0.001226  0.001371 -0.002829  0.001406  0.003587 -0.000682
  1C   1px       -0.016780 -0.045897  0.018200  0.036117  0.080762  0.106156
  1C   1py        0.019219  0.008537 -0.054186  0.048477  0.118313  0.035664
  1C   3s        -0.057302 -0.078664  0.137976  0.139558 -0.020732 -0.156484
  1C   2pz        0.000551  0.000055 -0.000104  0.000377  0.001135 -0.001453
  1C   2px       -0.003617 -0.008003 -0.003391 -0.003387  0.012537  0.050040
  1C   2py        0.010479 -0.002658 -0.003930  0.006949  0.031428 -0.008513
  1C   1dz2       0.003191  0.006469 -0.009082 -0.006549  0.000119  0.004766
  1C   1dxz       0.000117  0.000243 -0.000351 -0.000193 -0.000021  0.000416
  1C   1dyz      -0.000303 -0.000405  0.000893  0.000256 -0.000521 -0.000544
  1C   1dx2y2     0.000976 -0.001831 -0.003189  0.004183  0.009453  0.001009
  1C   1dxy       0.000429 -0.000841 -0.001793  0.003151  0.003942  0.005762
  2C   1s         0.037871  0.129532  0.086179 -0.006528 -0.012826 -0.016420
  2C   2s        -0.073000 -0.255565 -0.175628  0.013780  0.020581  0.034894
  2C   1pz        0.000477 -0.000351  0.000521  0.006579 -0.000066  0.009609
  2C   1px        0.010193 -0.000755 -0.111473 -0.025585 -0.191382 -0.136379
  2C   1py        0.015506 -0.008068 -0.041704  0.133997 -0.093026  0.148346
  2C   3s        -0.066418 -0.130812 -0.116508  0.014675  0.044430  0.015267
  2C   2pz        0.001063 -0.000344  0.000544  0.001105 -0.000545  0.002274
  2C   2px        0.002547  0.037195 -0.002332 -0.010456 -0.001837 -0.019009
  2C   2py        0.024693  0.009828  0.010868  0.019458 -0.012779  0.041418
  2C   1dz2       0.003916  0.011386  0.007525 -0.000868  0.000871  0.000100
  2C   1dxz       0.000090  0.000384 -0.000000 -0.000364 -0.000431 -0.000308
  2C   1dyz      -0.000334 -0.000743 -0.000319 -0.000317  0.000568 -0.000082
  2C   1dx2y2     0.000985 -0.002288 -0.002414  0.009822 -0.007463  0.004032
  2C   1dxy      -0.000783 -0.002016 -0.007400 -0.002674 -0.013858 -0.004996
  3C   1s         0.055195  0.041963 -0.113808  0.011683  0.116563 -0.004179
  3C   2s        -0.105903 -0.078549  0.218413 -0.022067 -0.232749  0.008003
  3C   1pz        0.001696 -0.001399  0.001540  0.004470  0.001198 -0.010197
  3C   1px       -0.042297 -0.021001  0.029477 -0.059237  0.009949  0.106431
  3C   1py        0.017432 -0.041178  0.048401  0.071034  0.031328 -0.175808
  3C   3s        -0.036927 -0.056168  0.158338 -0.020054 -0.180161  0.013852
  3C   2pz        0.000993 -0.000479  0.000258  0.000261  0.000944 -0.003103
  3C   2px        0.010626 -0.003939  0.000325 -0.006993  0.022832  0.027765
  3C   2py        0.027374 -0.012443  0.005692  0.002267  0.031903 -0.055383
  3C   1dz2       0.005741  0.004013 -0.009549  0.000738  0.007314 -0.000227
  3C   1dxz       0.000377  0.000028 -0.000251  0.000363  0.000318 -0.000357
  3C   1dyz      -0.000495 -0.000283  0.000789  0.000244 -0.000504 -0.000245
  3C   1dx2y2    -0.000575  0.000505 -0.001688 -0.008339 -0.001592  0.007750
  3C   1dxy       0.003355 -0.002464  0.001531  0.003464  0.000234 -0.004023
  4C   1s         0.118807  0.006727 -0.043622  0.093991  0.021069 -0.073419
  4C   2s        -0.234051 -0.010874  0.085056 -0.190175 -0.043847  0.155742
  4C   1pz        0.002976 -0.004383  0.004772 -0.002728 -0.003772  0.001923
  4C   1px       -0.000032 -0.010595 -0.060245 -0.071263  0.158153 -0.128641
  4C   1py        0.066265 -0.102549  0.077286 -0.094748 -0.008199 -0.018771
  4C   3s        -0.094109 -0.029431  0.055890 -0.134091 -0.051482  0.102198
  4C   2pz       -0.002756  0.000063  0.000784 -0.000434 -0.000345 -0.000347
  4C   2px        0.000376 -0.006331 -0.006902 -0.006197  0.012297 -0.012948
  4C   2py       -0.061599 -0.001510  0.014145 -0.012565 -0.001733 -0.014157
  4C   1dz2       0.012459  0.000065 -0.002861  0.005460  0.001214 -0.002638
  4C   1dxz       0.000272  0.000105 -0.000454  0.000181  0.000459 -0.000134
  4C   1dyz      -0.001340  0.000320  0.000117  0.000061 -0.000153  0.000282
  4C   1dx2y2     0.008319 -0.006749  0.004916 -0.008592 -0.002533 -0.001085
  4C   1dxy      -0.000323 -0.000947 -0.005372 -0.004614  0.007974 -0.001299
[...]
 0 C  dxy             0.0       8.2       1.9       0.0       1.1       1.1
 1 C  s               0.0       5.8       1.4       0.0       0.3       1.5
 1 C  px              0.0       1.5       0.2       0.0       0.1       0.1
 1 C  py              0.0       0.2       2.3       0.0       1.1       0.5
 1 C  dz2             0.0      10.3       2.0       0.0       0.9       2.9
 1 C  dxz             3.6       0.1       0.0       0.9       0.0       0.0
 1 C  dyz            11.3       0.1       0.0       3.0       0.0       0.0
 1 C  dx2y2           0.0       0.9       0.0       0.0       0.1       9.0
 1 C  dxy             0.0       6.8       2.9       0.0       0.1       5.6
 2 C  s               0.0       0.0       4.5       0.0       2.6       1.5
 2 C  px              0.0       0.0       0.2       0.0       0.1       0.5
 2 C  py              0.0       0.1       0.9       0.0       0.1       2.2
 2 C  dz2             0.0       0.4      11.0       0.1       1.6       3.1
 2 C  dxz             1.2       0.0       0.0       2.7       0.0       0.0
 2 C  dyz             4.5       0.0       0.1       8.8       0.0       0.0
 2 C  dx2y2           0.0       1.7       0.0       0.0       2.8       0.7
 2 C  dxy             0.0       1.8       1.1       0.0      10.1       0.1
 3 C  s               0.0       0.3       5.1       0.0       0.9       1.9
 3 C  px              0.0       0.3       0.7       0.0       0.1       0.3
 3 C  py              0.0       0.7       0.6       0.0       0.1       1.8
 3 C  dz2             0.1       0.5      12.0       0.0       0.7       1.5
 3 C  dxz             3.2       0.0       0.0       0.7       0.0       0.0
 3 C  dyz            11.6       0.0       0.1       2.6       0.0       0.0
 3 C  dx2y2           0.0       1.8       4.2       0.0       5.2       1.1
 3 C  dxy             0.0      18.4       0.1       0.0       1.6       1.2
 4 C  s               0.0       3.4       2.7       0.0       1.6       1.3
 4 C  px              0.0       0.7       0.2       0.0       0.7       2.4
 4 C  py              0.0       0.1       0.0       0.0       0.5       0.7
 4 C  dz2             0.0       4.9       8.0       0.0       0.6       2.2
 4 C  dxz            12.4       0.0       0.0       3.5       0.0       0.0
 4 C  dx2y2           0.0       0.0       2.4       0.0       6.9       5.1
 4 C  dxy             0.0       0.1       0.3       0.0       0.0       0.4
 5 C  s               0.0       0.8       0.0       0.0       0.2      11.0
 5 C  px              0.0       0.1       0.3       0.0       0.1       1.4
 5 C  py              0.0       0.5       0.9       0.0       0.1       0.1
 5 C  dz2             0.0       1.3       0.1       0.0       0.2      12.3
 5 C  dxz             2.5       0.0       0.0       0.9       0.0       0.0
 5 C  dyz             6.6       0.0       0.0       5.6       0.0       0.1
 5 C  dx2y2           0.0       1.8       0.3       0.0       1.6       3.3
 5 C  dxy             0.0       1.1       0.3       0.0       5.2       9.5
 6 N  s               0.0       0.5       1.5       0.0       1.0       0.1
 6 N  py              0.0       0.3       0.1       0.0       1.2       0.3
 6 N  dz2             0.0       1.6       3.2       0.0       0.9       0.0
 6 N  dxz             0.4       0.0       0.0       0.1       0.0       0.0
 6 N  dx2y2           0.0       1.2       0.2       0.0       5.1       1.0
 6 N  dxy             0.0       0.3       0.1       0.0       0.3       0.0
 7 N  s               0.0       0.0       3.0       0.0       3.2       0.2
 7 N  px              0.0       0.3       0.3       0.0       3.8       0.0
 7 N  py              0.0       0.1       0.1       0.0       1.2       0.0
 7 N  dz2             0.1       0.0       3.7       0.2       1.2       0.3
 7 N  dxz             3.0       0.0       0.0       7.6       0.0       0.0
 7 N  dyz            11.1       0.0       0.0      24.4       0.0       0.0
 7 N  dx2y2           0.0       0.0       0.7       0.0       0.0       0.0
 7 N  dxy             0.0       0.1       0.6       0.1       0.5       0.0
 8 O  s               0.0       0.0       0.1       0.0       1.8       0.1
 8 O  pz              0.4       0.0       0.0       0.7       0.0       0.0
 8 O  px              0.0       0.1       0.0       0.0       0.3       0.0
 8 O  py              0.0       0.0       0.2       0.0       0.7       0.0
 8 O  dz2             0.0       0.1       0.0       0.1       0.4       0.0
 8 O  dxz             0.3       0.0       0.0       0.4       0.0       0.0
 8 O  dyz             8.6       0.0       0.0      14.8       0.0       0.0
 8 O  dx2y2           0.0       0.5       0.8       0.0       3.9       0.6
 8 O  dxy             0.0       0.9       0.0       0.0       5.2       0.0
 9 H  s               0.0       0.2       0.1       0.0       0.1       0.2
10 H  s               0.0       0.0       0.3       0.0       0.0       0.0
11 O  s               0.0       0.1       0.3       0.0       2.0       0.1
11 O  pz              0.3       0.0       0.0       0.7       0.0       0.0
11 O  px              0.0       0.0       0.3       0.0       0.2       0.1
11 O  py              0.0       0.0       0.1       0.0       0.7       0.0
11 O  dz2             0.0       0.0       0.1       0.1       0.3       0.2
11 O  dxz             7.2       0.0       0.0      13.0       0.0       0.0
11 O  dyz             1.0       0.0       0.0       2.1       0.0       0.0
11 O  dx2y2           0.0       0.1       0.7       0.0       0.7       0.0
11 O  dxy             0.0       0.0       1.1       0.0       7.3       0.0
12 H  s               0.0       0.4       0.2       0.0       1.0       0.4
13 H  s               0.0       1.9       0.4       0.0       0.0       0.6
14 H  s               0.0       1.0       0.1       0.0       0.2       0.0
15 H  s               0.0       0.5       0.2       0.0       0.1       0.2

                    144       145       146       147       148       149   
                   2.79671   2.86824   2.91803   2.93257   3.04021   3.09346
                   0.00000   0.00000   0.00000   0.00000   0.00000   0.00000
                  --------  --------  --------  --------  --------  --------
 0 C  s               2.6       0.8       0.4       1.6       0.4       0.2
 0 C  px              3.4       0.7       0.2       0.1       0.1       0.5
 0 C  py              0.8       0.1       0.1       0.2       0.2       0.0
 0 C  dz2             1.5       1.1       0.9       2.9       0.1       0.2
 0 C  dx2y2           0.1       0.5       0.1       0.1       0.6       0.4
 0 C  dxy            14.9       2.1       1.0       0.0       0.0       0.6
 1 C  s               1.4       1.4       0.1       1.5       0.2       1.0
 1 C  px              2.2       0.0       0.0       0.1       0.1       0.1
 1 C  py              2.4       0.4       0.0       0.0       0.6       0.1
 1 C  dz2             1.7       1.6       0.3       2.3       0.0       0.5
 1 C  dx2y2          16.7       1.9       0.0       0.0       2.8       0.3
 1 C  dxy             8.6       2.0       0.0       0.4       0.3       2.5
 2 C  s               1.5       3.1       0.7       5.5       0.2       0.1
 2 C  px              0.2       0.6       0.0       0.3       0.1       0.5
 2 C  py              0.0       0.0       0.2       0.0       0.1       0.2
 2 C  dz2             0.1       2.6       0.8       6.6       0.0       0.1
 2 C  dx2y2           0.6       0.2       2.9       1.1       3.9       0.0
 2 C  dxy             0.0       1.3       0.2       3.5       1.1       2.6
 3 C  s               0.8       2.0       0.2       1.3       0.3       0.3
 3 C  px              0.1       0.1       0.1       0.1       1.3       0.0
 3 C  py              1.1       0.6       0.0       0.0       1.5       0.1
 3 C  dz2             0.2       2.3       0.2       1.7       0.1       0.3
 3 C  dx2y2           3.1       0.8       0.3       0.0       6.0       2.5
 3 C  dxy             2.7       3.2       0.1       0.5       3.2       1.6
 4 C  s               1.4       4.3       0.1       2.1       0.0       0.7
 4 C  px              0.1       0.0       0.0       0.1       1.4       0.1
 4 C  py              0.2       0.9       0.0       0.0       0.2       0.1
 4 C  dz2             0.8       5.5       0.1       3.3       0.0       0.4
 4 C  dyz             0.0       0.1       0.0       0.0       0.0       0.0
 4 C  dx2y2           0.7      10.8       0.0       0.5       1.1       1.6
 4 C  dxy             3.4       0.7       1.5       0.0      25.1       3.3
 5 C  s               0.0       1.8       0.1       1.1       1.5       0.6
 5 C  px              0.2       0.0       0.1       0.1       1.2       0.6
 5 C  py              0.3       0.5       0.0       0.1       0.0       0.1
 5 C  dz2             0.0       2.4       0.0       2.9       0.5       0.4
 5 C  dx2y2           6.4       0.0       0.0       0.0       3.5       0.4
 5 C  dxy             0.0       0.3       0.0       0.9       0.1       0.1
 6 N  s               0.0       2.2       0.0       0.5       0.1       0.0
 6 N  px              0.1       0.0       0.0       0.0       0.2       0.0
 6 N  py              0.1       2.0       0.0       0.3       0.1       0.1
 6 N  dz2             0.0       2.4       0.0       0.8       0.1       0.0
 6 N  dx2y2           0.3       5.8       0.0       0.7       0.3       0.1
 6 N  dxy             3.6       0.9       0.8       0.0      10.5       1.6
 7 N  s               0.3       4.9       0.9      14.1       0.6       1.9
 7 N  px              0.3       0.8       2.3       0.4       0.4       1.2
 7 N  py              0.2       0.1       6.8       1.0       0.5       0.6
 7 N  dz2             0.1       1.0       0.6       8.1       0.3       0.9
 7 N  dyz             0.0       0.0       0.0       0.0       0.0       0.1
 7 N  dx2y2           4.5       0.1       0.1       0.0       2.7      15.8
 7 N  dxy             0.6       0.1       0.4       2.0      10.9      19.0
 8 O  s               2.3       2.4      11.3       9.2       0.1       1.1
 8 O  px              0.0       0.0       0.0       0.0       0.5       0.7
 8 O  py              0.4       0.6       2.9       2.1       0.1       1.5
 8 O  dz2             0.9       1.3       3.1       4.5       0.0       0.7
 8 O  dyz             0.0       0.0       0.1       0.1       0.0       0.0
 8 O  dx2y2           0.2       4.3      10.2      11.7       0.3       3.1
 8 O  dxy             0.3       0.4       0.9       0.3       5.5       9.1
 9 H  s               0.3       0.1       0.1       0.0       1.0       0.2
10 H  s               0.4       0.1       0.1       0.0       1.0       0.1
11 O  s               0.2       3.6      19.6       0.8       1.2       0.4
11 O  px              0.0       0.6       3.0       0.1       0.9       1.3
11 O  py              0.2       0.4       1.2       0.1       0.4       0.5
11 O  dz2             0.1       2.0       6.5       0.9       0.4       0.5
11 O  dx2y2           2.6       0.2       4.6       0.0       0.7      15.5
11 O  dxy             1.6       6.1      13.1       1.1       3.1       0.5
12 H  s               0.1       0.0       0.1       0.1       0.0       0.0
14 H  s               0.0       0.4       0.0       0.0       0.0       0.2
15 H  s               0.1       0.1       0.0       0.2       0.1       0.0

                    150       151   
                   3.20144   3.42186
                   0.00000   0.00000
                  --------  --------
 0 C  s               0.1       1.4
 0 C  px              1.7       0.0
 0 C  py              0.2       0.1
 0 C  dz2             0.0       0.8
 0 C  dx2y2           0.8      12.5
 0 C  dxy             7.1       0.0
 1 C  s               0.0       1.2
 1 C  px              0.3       0.0
 1 C  py              0.8       0.0
 1 C  dz2             0.0       0.8
 1 C  dx2y2           1.1       3.5
 1 C  dxy             1.2       8.4
 2 C  s               0.0       0.9
 2 C  px              0.2       0.3
 2 C  py              1.0       0.1
 2 C  dz2             0.0       0.6
 2 C  dx2y2          19.4       4.7
 2 C  dxy             7.1      11.5
 3 C  s               0.0       1.4
 3 C  px              0.3       0.1
 3 C  py              0.4       0.0
 3 C  dz2             0.0       0.9
 3 C  dx2y2           3.0       3.2
 3 C  dxy             0.6       7.8
 4 C  s               0.0       0.5
 4 C  px              1.1       0.0
 4 C  py              0.1       0.3
 4 C  dz2             0.0       0.5
 4 C  dx2y2           0.7      13.0
 4 C  dxy             8.3       0.1
 5 C  s               0.0       1.2
 5 C  px              0.3       0.0
 5 C  py              2.4       0.1
 5 C  dz2             0.0       0.7
 5 C  dx2y2           5.7       4.2
 5 C  dxy             5.8       8.5
 6 N  s               0.0       0.2
 6 N  py              0.0       0.4
 6 N  dx2y2           0.1       0.7
 6 N  dxy             2.4       0.0
 7 N  px              0.1       0.1
 7 N  py              0.3       0.0
 7 N  dx2y2          12.3       1.2
 7 N  dxy             5.9       3.2
 8 O  s               0.3       0.1
 8 O  px              0.2       0.0
 8 O  py              0.6       0.1
 8 O  dx2y2           0.5       0.0
 8 O  dxy             2.8       0.7
 9 H  s               0.2       0.0
10 H  s               0.2       0.0
11 O  s               0.4       0.1
11 O  px              0.3       0.1
11 O  py              0.5       0.0
11 O  dx2y2           0.8       0.7
11 O  dxy             1.7       0.0
12 H  s               0.0       0.6
13 H  s               0.0       0.5
14 H  s               0.0       0.5
15 H  s               0.0       0.6


                      *****************************
                      * MAYER POPULATION ANALYSIS *
                      *****************************

  NA   - Mulliken gross atomic population
  ZA   - Total nuclear charge
  QA   - Mulliken gross atomic charge
  VA   - Mayer's total valence
  BVA  - Mayer's bonded valence
  FA   - Mayer's free valence

  ATOM       NA         ZA         QA         VA         BVA        FA
  0 C      6.1639     6.0000    -0.1639     3.8749     3.8749     0.0000
  1 C      6.1433     6.0000    -0.1433     3.9624     3.9624     0.0000
  2 C      5.7561     6.0000     0.2439     3.8620     3.8620    -0.0000
  3 C      6.1646     6.0000    -0.1646     3.9006     3.9006     0.0000
  4 C      5.6329     6.0000     0.3671     3.8655     3.8655    -0.0000
  5 C      6.2193     6.0000    -0.2193     3.8462     3.8462     0.0000
  6 N      7.8179     7.0000    -0.8179     2.8451     2.8451    -0.0000
  7 N      6.6246     7.0000     0.3754     3.9223     3.9223    -0.0000
  8 O      8.3785     8.0000    -0.3785     1.9212     1.9212    -0.0000
  9 H      0.6581     1.0000     0.3419     0.8535     0.8535     0.0000
 10 H      0.6615     1.0000     0.3385     0.8557     0.8557     0.0000
 11 O      8.3835     8.0000    -0.3835     1.9194     1.9194    -0.0000
 12 H      0.8292     1.0000     0.1708     0.9437     0.9437     0.0000
 13 H      0.8588     1.0000     0.1412     0.9366     0.9366    -0.0000
 14 H      0.8733     1.0000     0.1267     0.9384     0.9384     0.0000
 15 H      0.8346     1.0000     0.1654     0.9469     0.9469    -0.0000

  Mayer bond orders larger than 0.1
B(  0-C ,  1-C ) :   1.4025 B(  0-C ,  2-C ) :   1.4024 B(  0-C , 12-H ) :   0.9035 
B(  1-C ,  3-C ) :   1.4696 B(  1-C , 13-H ) :   0.9272 B(  2-C ,  5-C ) :   1.4195 
B(  2-C ,  7-N ) :   0.8109 B(  3-C ,  4-C ) :   1.3616 B(  3-C , 14-H ) :   0.9242 
B(  4-C ,  5-C ) :   1.3282 B(  4-C ,  6-N ) :   1.0208 B(  5-C , 15-H ) :   0.8963 
B(  6-N ,  9-H ) :   0.8399 B(  6-N , 10-H ) :   0.8417 B(  7-N ,  8-O ) :   1.5381 
B(  7-N , 11-O ) :   1.5329 B(  8-O , 11-O ) :   0.2666 

-------
TIMINGS
-------

Total SCF time: 0 days 0 hours 0 min 27 sec 

Total time                  ....      27.423 sec
Sum of individual times     ....      27.113 sec  ( 98.9%)

Fock matrix formation       ....      24.794 sec  ( 90.4%)
  XC integration            ....       3.477 sec  ( 14.0% of F)
    Basis function eval.    ....       1.291 sec  ( 37.1% of XC)
    Density eval.           ....       0.976 sec  ( 28.1% of XC)
    XC-Functional eval.     ....       0.241 sec  (  6.9% of XC)
    XC-Potential eval.      ....       0.791 sec  ( 22.7% of XC)
Diagonalization             ....       0.004 sec  (  0.0%)
Density matrix formation    ....       0.004 sec  (  0.0%)
Population analysis         ....       0.055 sec  (  0.2%)
Initial guess               ....       0.004 sec  (  0.0%)
Orbital Transformation      ....       0.000 sec  (  0.0%)
Orbital Orthonormalization  ....       0.002 sec  (  0.0%)
DIIS solution               ....       0.001 sec  (  0.0%)
SOSCF solution              ....       0.016 sec  (  0.1%)
Grid generation             ....       2.236 sec  (  8.2%)

-------------------------   --------------------
FINAL SINGLE POINT ENERGY      -491.826672212367
-------------------------   --------------------

                                *** OPTIMIZATION RUN DONE ***

                            ***************************************
                            *     ORCA property calculations      *
                            ***************************************

                                    ---------------------
                                    Active property flags
                                    ---------------------
   (+) Dipole Moment


------------------------------------------------------------------------------
                       ORCA ELECTRIC PROPERTIES CALCULATION
------------------------------------------------------------------------------

Dipole Moment Calculation                       ... on
Quadrupole Moment Calculation                   ... off
Polarizability Calculation                      ... off
GBWName                                         ... /Users/lailaal-madhagi/Desktop/Testing_XAS_Analysis_code/MetaNitroAniline//Results_dir_MetaNitroAniline_geom_element_C_2019-11-11_18-58-13//GTE1_MetaNitroAniline_geom_2019-11-11_18-58-35//opt.gbw
Electron density file                           ... /Users/lailaal-madhagi/Desktop/Testing_XAS_Analysis_code/MetaNitroAniline//Results_dir_MetaNitroAniline_geom_element_C_2019-11-11_18-58-13//GTE1_MetaNitroAniline_geom_2019-11-11_18-58-35//opt.scfp.tmp
The origin for moment calculation is the CENTER OF MASS  = ( 0.777923, -0.240661 -0.145777)

-------------
DIPOLE MOMENT
-------------
                                X             Y             Z
Electronic contribution:      5.52664       4.38062       0.07805
Nuclear contribution   :     -7.13116      -6.11096      -0.12512
                        -----------------------------------------
Total Dipole Moment    :     -1.60452      -1.73034      -0.04706
                        -----------------------------------------
Magnitude (a.u.)       :      2.36025
Magnitude (Debye)      :      5.99927



--------------------
Rotational spectrum 
--------------------
 
Rotational constants in cm-1:     0.090156     0.032908     0.024108 
Rotational constants in MHz :  2702.798561   986.542264   722.737550 

 Dipole components along the rotational axes: 
x,y,z [a.u.] :    -2.359489    -0.059700    -0.004215 
x,y,z [Debye]:    -5.997343    -0.151746    -0.010714 

 

Timings for individual modules:

Sum of individual times         ...      531.085 sec (=   8.851 min)
GTO integral calculation        ...        3.788 sec (=   0.063 min)   0.7 %
SCF iterations                  ...      360.702 sec (=   6.012 min)  67.9 %
SCF Gradient evaluation         ...      165.151 sec (=   2.753 min)  31.1 %
Geometry relaxation             ...        1.444 sec (=   0.024 min)   0.3 %
                             ****ORCA TERMINATED NORMALLY****
TOTAL RUN TIME: 0 days 0 hours 8 minutes 52 seconds 277 msec
