
                                 *****************
                                 * O   R   C   A *
                                 *****************

           --- An Ab Initio, DFT and Semiempirical electronic structure package ---

                  #######################################################
                  #                        -***-                        #
                  #          Department of theory and spectroscopy      #
                  #               Directorship: Frank Neese             #
                  #        Max Planck Institute fuer Kohlenforschung    #
                  #                Kaiser Wilhelm Platz 1               #
                  #                 D-45470 Muelheim/Ruhr               #
                  #                      Germany                        #
                  #                                                     #
                  #                  All rights reserved                #
                  #                        -***-                        #
                  #######################################################


                         Program Version 4.1.0  - RELEASE  -


 With contributions from (in alphabetic order):
   Daniel Aravena         : Magnetic Properties
   Michael Atanasov       : Ab Initio Ligand Field Theory
   Alexander A. Auer      : GIAO ZORA
   Ute Becker             : Parallelization
   Giovanni Bistoni       : ED, Open-shell LED
   Martin Brehm           : Molecular dynamics
   Dmytro Bykov           : SCF Hessian
   Vijay G. Chilkuri      : MRCI spin determinant printing
   Dipayan Datta          : RHF DLPNO-CCSD density
   Achintya Kumar Dutta   : EOM-CC, STEOM-CC
   Dmitry Ganyushin       : Spin-Orbit,Spin-Spin,Magnetic field MRCI
   Miquel Garcia          : C-PCM Hessian
   Yang Guo               : DLPNO-NEVPT2, CIM, IAO-localization
   Andreas Hansen         : Spin unrestricted coupled pair/coupled cluster methods
   Benjamin Helmich-Paris : CASSCF linear response (MC-RPA)
   Lee Huntington         : MR-EOM, pCC
   Robert Izsak           : Overlap fitted RIJCOSX, COSX-SCS-MP3, EOM
   Christian Kollmar      : KDIIS, OOCD, Brueckner-CCSD(T), CCSD density
   Simone Kossmann        : Meta GGA functionals, TD-DFT gradient, OOMP2, MP2 Hessian
   Martin Krupicka        : AUTO-CI
   Lucas Lang             : DCDCAS
   Dagmar Lenk            : GEPOL surface, SMD
   Dimitrios Liakos       : Extrapolation schemes; parallel MDCI
   Dimitrios Manganas     : ROCIS; embedding schemes
   Dimitrios Pantazis     : SARC Basis sets
   Taras Petrenko         : DFT Hessian,TD-DFT gradient, ASA, ECA, R-Raman, ABS, FL, XAS/XES, NRVS
   Peter Pinski           : DLPNO-MP2, DLPNO-MP2 Gradient
   Christoph Reimann      : Effective Core Potentials
   Marius Retegan         : Local ZFS, SOC
   Christoph Riplinger    : Optimizer, TS searches, QM/MM, DLPNO-CCSD(T), (RO)-DLPNO pert. Triples
   Tobias Risthaus        : Range-separated hybrids, TD-DFT gradient, RPA, STAB
   Michael Roemelt        : Restricted open shell CIS
   Masaaki Saitow         : Open-shell DLPNO
   Barbara Sandhoefer     : DKH picture change effects
   Avijit Sen             : IP-ROCIS
   Kantharuban Sivalingam : CASSCF convergence, NEVPT2, FIC-MRCI
   Bernardo de Souza      : ESD, SOC TD-DFT
   Georgi Stoychev        : AutoAux, RI-MP2 NMR
   Willem Van den Heuvel  : Paramagnetic NMR
   Boris Wezisla          : Elementary symmetry handling
   Frank Wennmohs         : Technical directorship


 We gratefully acknowledge several colleagues who have allowed us to
 interface, adapt or use parts of their codes:
   Stefan Grimme, W. Hujo, H. Kruse,             : VdW corrections, initial TS optimization,
                  C. Bannwarth                     DFT functionals, gCP, sTDA/sTD-DF
   Ed Valeev                                     : LibInt (2-el integral package), F12 methods
   Garnet Chan, S. Sharma, J. Yang, R. Olivares  : DMRG
   Ulf Ekstrom                                   : XCFun DFT Library
   Mihaly Kallay                                 : mrcc  (arbitrary order and MRCC methods)
   Andreas Klamt, Michael Diedenhofen            : otool_cosmo (COSMO solvation model)
   Jiri Pittner, Ondrej Demel                    : Mk-CCSD
   Frank Weinhold                                : gennbo (NPA and NBO analysis)
   Christopher J. Cramer and Donald G. Truhlar   : smd solvation model
   Lars Goerigk                                  : TD-DFT with DH, B97 family of functionals
   V. Asgeirsson, H. Jonsson                     : NEB implementation
   FAccTs GmbH                                   : IRC, NEB, NEB-TS, Multilevel


 Your calculation uses the libint2 library for the computation of 2-el integrals
 For citations please refer to: http://libint.valeyev.net

 This ORCA versions uses:
   CBLAS   interface :  Fast vector & matrix operations
   LAPACKE interface :  Fast linear algebra routines
   SCALAPACK package :  Parallel linear algebra routines




***************************************
The coordinates will be read from file: /Users/lailaal-madhagi/Desktop/Testing_XAS_Analysis_code/BenzylCarbamate//Results_dir_BenzylCarbamate_geom_element_N_2019-11-07_07-11-17//GTE1_BenzylCarbamate_geom_2019-11-07_07-11-29//opt.xyz
***************************************


----- Orbital basis set information -----
Your calculation utilizes the basis: 6-31G*
   H-He, Li-Ne : W. J. Hehre, R. Ditchfield and J.A. Pople, J. Chem. Phys. 56, 2257 (1972).
                 Note: He and Ne are unpublished basis sets taken from the Gaussian program.
                 Note: Li and B from J. D. Dill and J. A. Pople, J. Chem. Phys. 62, 2921 (1975).
   Na - Ar     : M. M. Francl, W. J. Pietro, W. J. Hehre, J. S. Binkley, M. S. Gordon, 
                 D. J. DeFrees and J. A. Pople, J. Chem. Phys. 77, 3654 (1982).
   K - Zn      : V. A. Rassolov, J. A. Pople, M. A. Ratner, and T. L. Windus, J. Chem. Phys. 109, 1223 (1998).

================================================================================
                                        WARNINGS
                       Please study these warnings very carefully!
================================================================================

INFO   : Checking CIS options ...

WARNING: CIS/ROCIS methods need fully converged wavefunctions
  ===> : Setting SCFConvForced true
         You can overwrite this default with %scf ConvForced false 


INFO   : the flag for use of LIBINT has been found!

================================================================================
                                       INPUT FILE
================================================================================
NAME = /Users/lailaal-madhagi/Desktop/Testing_XAS_Analysis_code/BenzylCarbamate//Results_dir_BenzylCarbamate_geom_element_N_2019-11-07_07-11-17//GTE1_BenzylCarbamate_geom_2019-11-07_07-11-29//TDDFT_N-edge.inp
|  1> #This is N K-edge calculation 
|  2> ! B3LYP 6-31G* TIGHTSCF Grid3 FinalGrid5 
|  3> !NormalPrint 
|  4> %output 
|  5> Print[P_Basis] 2 
|  6> Print[P_MOS] 1 
|  7> end 
|  8> 
|  9> %tddft 
| 10> orbwin[0]=2,2,-1,-1 
| 11> nroots=20 
| 12> maxdim=200 
| 13> end 
| 14> *xyzfile 0 1 /Users/lailaal-madhagi/Desktop/Testing_XAS_Analysis_code/BenzylCarbamate//Results_dir_BenzylCarbamate_geom_element_N_2019-11-07_07-11-17//GTE1_BenzylCarbamate_geom_2019-11-07_07-11-29//opt.xyz                           ****END OF INPUT****
================================================================================

                       ****************************
                       * Single Point Calculation *
                       ****************************

---------------------------------
CARTESIAN COORDINATES (ANGSTROEM)
---------------------------------
  C     -3.936251    0.142912    0.549611
  C     -3.775606   -0.860061   -0.406672
  C     -2.844739    0.915337    0.957206
  C     -2.512414   -1.091384   -0.958930
  C     -1.580891    0.686164    0.406692
  C     -1.422662   -0.322082   -0.553657
  C     -0.368253    1.497150    0.815416
  H     -2.967427    1.695429    1.700201
  H     -4.915033    0.329341    0.984257
  H     -4.626637   -1.458712   -0.721005
  H     -0.441508   -0.507737   -0.988346
  H     -2.375946   -1.870462   -1.704702
  O     -0.741606    2.459581    1.798789
  H      0.051624    2.007012   -0.065538
  H      0.406184    0.828714    1.222422
  C      0.166988    3.325921    2.337144
  N      1.456000    3.221881    1.882679
  O     -0.188891    4.128775    3.170192
  H      1.773000    2.563521    1.190779
  H      2.123198    3.864199    2.280533

----------------------------
CARTESIAN COORDINATES (A.U.)
----------------------------
  NO LB      ZA    FRAG     MASS         X           Y           Z
   0 C     6.0000    0    12.011   -7.438436    0.270064    1.038614
   1 C     6.0000    0    12.011   -7.134861   -1.625279   -0.768498
   2 C     6.0000    0    12.011   -5.375778    1.729735    1.808857
   3 C     6.0000    0    12.011   -4.747774   -2.062416   -1.812115
   4 C     6.0000    0    12.011   -2.987451    1.296663    0.768536
   5 C     6.0000    0    12.011   -2.688441   -0.608648   -1.046259
   6 C     6.0000    0    12.011   -0.695897    2.829203    1.540912
   7 H     1.0000    0     1.008   -5.607624    3.203897    3.212914
   8 H     1.0000    0     1.008   -9.288067    0.622365    1.859976
   9 H     1.0000    0     1.008   -8.743077   -2.756565   -1.362502
  10 H     1.0000    0     1.008   -0.834330   -0.959484   -1.867703
  11 H     1.0000    0     1.008   -4.489887   -3.534660   -3.221420
  12 O     8.0000    0    15.999   -1.401432    4.647935    3.399218
  13 H     1.0000    0     1.008    0.097554    3.792703   -0.123850
  14 H     1.0000    0     1.008    0.767577    1.566043    2.310042
  15 C     6.0000    0    12.011    0.315562    6.285081    4.416562
  16 N     7.0000    0    14.007    2.751441    6.088473    3.557747
  17 O     8.0000    0    15.999   -0.356953    7.802254    5.990795
  18 H     1.0000    0     1.008    3.350484    4.844352    2.250246
  19 H     1.0000    0     1.008    4.012262    7.302277    4.309583

--------------------------------
INTERNAL COORDINATES (ANGSTROEM)
--------------------------------
 C      0   0   0     0.000000000000     0.00000000     0.00000000
 C      1   0   0     1.395076016136     0.00000000     0.00000000
 C      1   2   0     1.397917111366   120.47780046     0.00000000
 C      2   1   3     1.397910085680   119.59224300     0.00000000
 C      3   1   2     1.397461344904   120.04514919     0.00000000
 C      4   2   1     1.394141354068   120.01191748     0.00000000
 C      5   3   1     1.515006071350   121.99367109   179.96154928
 H      3   1   2     1.084268453234   120.59675780   179.99233761
 H      1   2   3     1.087054645797   120.06996650   180.00405797
 H      2   1   3     1.086942174623   120.26755187   179.99162662
 H      6   4   2     1.089075248976   119.61118541   180.01290592
 H      4   2   1     1.087088890355   120.20206388   179.99116639
 O      7   5   3     1.425723974047   109.74465834     0.23387282
 H      7   5   3     1.101061248222   109.70979952   239.48230368
 H      7   5   3     1.101005474135   109.73969893   120.99897791
 C     13   7   5     1.365984760378   121.72095081   180.16469301
 N     16  13   7     1.370735128632   116.53173085     0.00000000
 O     16  13   7     1.210451813014   119.75787004   180.01356471
 H     17  16  13     1.006306583944   125.01914218     0.09514795
 H     17  16  13     1.007974577872   116.30978553   179.85843976

---------------------------
INTERNAL COORDINATES (A.U.)
---------------------------
 C      0   0   0     0.000000000000     0.00000000     0.00000000
 C      1   0   0     2.636311606500     0.00000000     0.00000000
 C      1   2   0     2.641680498404   120.47780046     0.00000000
 C      2   1   3     2.641667221782   119.59224300     0.00000000
 C      3   1   2     2.640819224610   120.04514919     0.00000000
 C      4   2   1     2.634545351163   120.01191748     0.00000000
 C      5   3   1     2.862946566079   121.99367109   179.96154928
 H      3   1   2     2.048970432262   120.59675780   179.99233761
 H      1   2   3     2.054235573164   120.06996650   180.00405797
 H      2   1   3     2.054023033446   120.26755187   179.99162662
 H      6   4   2     2.058053959797   119.61118541   180.01290592
 H      4   2   1     2.054300285999   120.20206388   179.99116639
 O      7   5   3     2.694227853515   109.74465834     0.23387282
 H      7   5   3     2.080704215814   109.70979952   239.48230368
 H      7   5   3     2.080598818064   109.73969893   120.99897791
 C     13   7   5     2.581337100225   121.72095081   180.16469301
 N     16  13   7     2.590313995259   116.53173085     0.00000000
 O     16  13   7     2.287422424905   119.75787004   180.01356471
 H     17  16  13     1.901643850416   125.01914218     0.09514795
 H     17  16  13     1.904795902133   116.30978553   179.85843976

---------------------
BASIS SET INFORMATION
---------------------
There are 4 groups of distinct atoms

 Group   1 Type C   : 10s4p1d contracted to 3s2p1d pattern {631/31/1}
 Group   2 Type H   : 4s contracted to 2s pattern {31}
 Group   3 Type O   : 10s4p1d contracted to 3s2p1d pattern {631/31/1}
 Group   4 Type N   : 10s4p1d contracted to 3s2p1d pattern {631/31/1}

Atom   0C    basis set group =>   1
Atom   1C    basis set group =>   1
Atom   2C    basis set group =>   1
Atom   3C    basis set group =>   1
Atom   4C    basis set group =>   1
Atom   5C    basis set group =>   1
Atom   6C    basis set group =>   1
Atom   7H    basis set group =>   2
Atom   8H    basis set group =>   2
Atom   9H    basis set group =>   2
Atom  10H    basis set group =>   2
Atom  11H    basis set group =>   2
Atom  12O    basis set group =>   3
Atom  13H    basis set group =>   2
Atom  14H    basis set group =>   2
Atom  15C    basis set group =>   1
Atom  16N    basis set group =>   4
Atom  17O    basis set group =>   3
Atom  18H    basis set group =>   2
Atom  19H    basis set group =>   2

-------------------------
BASIS SET IN INPUT FORMAT
-------------------------

 # Basis set for element : H 
 NewGTO H 
 S 3 
   1      18.7311370000      0.0334945995
   2       2.8253937000      0.2347269467
   3       0.6401217000      0.8137573184
 S 1 
   1       0.1612778000      1.0000000000
  end;

 # Basis set for element : C 
 NewGTO C 
 S 6 
   1    3047.5249000000      0.0018347002
   2     457.3695100000      0.0140373012
   3     103.9486900000      0.0688426061
   4      29.2101550000      0.2321844206
   5       9.2866630000      0.4679413416
   6       3.1639270000      0.3623120322
 S 3 
   1       7.8682724000     -0.1193324086
   2       1.8812885000     -0.1608542116
   3       0.5442493000      1.1434564826
 P 3 
   1       7.8682724000      0.0689990956
   2       1.8812885000      0.3164239798
   3       0.5442493000      0.7443082524
 S 1 
   1       0.1687144000      1.0000000000
 P 1 
   1       0.1687144000      1.0000000000
 D 1 
   1       0.8000000000      1.0000000000
  end;

 # Basis set for element : N 
 NewGTO N 
 S 6 
   1    4173.5110000000      0.0018347994
   2     627.4579000000      0.0139949958
   3     142.9021000000      0.0685869792
   4      40.2343300000      0.2322409295
   5      12.8202100000      0.4690698576
   6       4.3904370000      0.3604548906
 S 3 
   1      11.6263580000     -0.1149610229
   2       2.7162800000     -0.1691180337
   3       0.7722180000      1.1458522281
 P 3 
   1      11.6263580000      0.0675800232
   2       2.7162800000      0.3239071114
   3       0.7722180000      0.7408952549
 S 1 
   1       0.2120313000      1.0000000000
 P 1 
   1       0.2120313000      1.0000000000
 D 1 
   1       0.8000000000      1.0000000000
  end;

 # Basis set for element : O 
 NewGTO O 
 S 6 
   1    5484.6717000000      0.0018310998
   2     825.2349500000      0.0139500985
   3     188.0469600000      0.0684450927
   4      52.9645000000      0.2327142753
   5      16.8975700000      0.4701929501
   6       5.7996353000      0.3585208619
 S 3 
   1      15.5396160000     -0.1107775038
   2       3.5999336000     -0.1480263051
   3       1.0137618000      1.1307670390
 P 3 
   1      15.5396160000      0.0708742995
   2       3.5999336000      0.3397527978
   3       1.0137618000      0.7271585953
 S 1 
   1       0.2700058000      1.0000000000
 P 1 
   1       0.2700058000      1.0000000000
 D 1 
   1       0.8000000000      1.0000000000
  end;

------------------------------------------------------------------------------
                           ORCA GTO INTEGRAL CALCULATION
------------------------------------------------------------------------------

                         BASIS SET STATISTICS AND STARTUP INFO

 # of primitive gaussian shells          ...  201
 # of primitive gaussian functions       ...  333
 # of contracted shells                  ...   84
 # of contracted basis functions         ...  172
 Highest angular momentum                ...    2
 Maximum contraction depth               ...    6
 Integral package used                   ... LIBINT
 Integral threshhold            Thresh   ...  2.500e-11
 Primitive cut-off              TCut     ...  2.500e-12


------------------------------ INTEGRAL EVALUATION ----------------------------


 * One electron integrals 
 Pre-screening matrix                    ... done
 Shell pair data                         ... done (   0.002 sec)

-------------------------------------------------------------------------------
                                 ORCA SCF
-------------------------------------------------------------------------------

------------
SCF SETTINGS
------------
Hamiltonian:
 Density Functional     Method          .... DFT(GTOs)
 Exchange Functional    Exchange        .... B88
   X-Alpha parameter    XAlpha          ....  0.666667
   Becke's b parameter  XBeta           ....  0.004200
 Correlation Functional Correlation     .... LYP
 LDA part of GGA corr.  LDAOpt          .... VWN-5
 Gradients option       PostSCFGGA      .... off
 Hybrid DFT is turned on
   Fraction HF Exchange ScalHFX         ....  0.200000
   Scaling of DF-GGA-X  ScalDFX         ....  0.720000
   Scaling of DF-GGA-C  ScalDFC         ....  0.810000
   Scaling of DF-LDA-C  ScalLDAC        ....  1.000000
   Perturbative correction              ....  0.000000
   Density functional embedding theory  .... OFF
   NL short-range parameter             ....  4.800000


General Settings:
 Integral files         IntName         .... /Users/lailaal-madhagi/Desktop/Testing_XAS_Analysis_code/BenzylCarbamate//Results_dir_BenzylCarbamate_geom_element_N_2019-11-07_07-11-17//GTE1_BenzylCarbamate_geom_2019-11-07_07-11-29//TDDFT_N-edge
 Hartree-Fock type      HFTyp           .... RHF
 Total Charge           Charge          ....    0
 Multiplicity           Mult            ....    1
 Number of Electrons    NEL             ....   80
 Basis Dimension        Dim             ....  172
 Nuclear Repulsion      ENuc            ....    566.4556227795 Eh

Convergence Acceleration:
 DIIS                   CNVDIIS         .... on
   Start iteration      DIISMaxIt       ....    12
   Startup error        DIISStart       ....  0.200000
   # of expansion vecs  DIISMaxEq       ....     5
   Bias factor          DIISBfac        ....   1.050
   Max. coefficient     DIISMaxC        ....  10.000
 Newton-Raphson         CNVNR           .... off
 SOSCF                  CNVSOSCF        .... on
   Start iteration      SOSCFMaxIt      ....   150
   Startup grad/error   SOSCFStart      ....  0.003300
 Level Shifting         CNVShift        .... on
   Level shift para.    LevelShift      ....    0.2500
   Turn off err/grad.   ShiftErr        ....    0.0010
 Zerner damping         CNVZerner       .... off
 Static damping         CNVDamp         .... on
   Fraction old density DampFac         ....    0.7000
   Max. Damping (<1)    DampMax         ....    0.9800
   Min. Damping (>=0)   DampMin         ....    0.0000
   Turn off err/grad.   DampErr         ....    0.1000
 Fernandez-Rico         CNVRico         .... off

SCF Procedure:
 Maximum # iterations   MaxIter         ....   125
 SCF integral mode      SCFMode         .... Direct
   Integral package                     .... LIBINT
 Reset frequency        DirectResetFreq ....    20
 Integral Threshold     Thresh          ....  2.500e-11 Eh
 Primitive CutOff       TCut            ....  2.500e-12 Eh

Convergence Tolerance:
 Convergence Check Mode ConvCheckMode   .... Total+1el-Energy
 Convergence forced     ConvForced      .... 1
 Energy Change          TolE            ....  1.000e-08 Eh
 1-El. energy change                    ....  1.000e-05 Eh
 Orbital Gradient       TolG            ....  1.000e-05
 Orbital Rotation angle TolX            ....  1.000e-05
 DIIS Error             TolErr          ....  5.000e-07


Diagonalization of the overlap matrix:
Smallest eigenvalue                        ... 4.790e-04
Time for diagonalization                   ...    0.004 sec
Threshold for overlap eigenvalues          ... 1.000e-08
Number of eigenvalues below threshold      ... 0
Time for construction of square roots      ...    0.003 sec
Total time needed                          ...    0.007 sec

-------------------
DFT GRID GENERATION
-------------------

General Integration Accuracy     IntAcc      ...  4.340
Radial Grid Type                 RadialGrid  ... Gauss-Chebyshev
Angular Grid (max. acc.)         AngularGrid ... Lebedev-194
Angular grid pruning method      GridPruning ... 3 (G Style)
Weight generation scheme         WeightScheme... Becke
Basis function cutoff            BFCut       ...    1.0000e-11
Integration weight cutoff        WCut        ...    1.0000e-14
Grids for H and He will be reduced by one unit

# of grid points (after initial pruning)     ...  50012 (   0.0 sec)
# of grid points (after weights+screening)   ...  45931 (   0.1 sec)
nearest neighbour list constructed           ...    0.0 sec
Grid point re-assignment to atoms done       ...    0.0 sec
Grid point division into batches done        ...    0.1 sec
Reduced shell lists constructed in    0.3 sec

Total number of grid points                  ...    45931
Total number of batches                      ...      727
Average number of points per batch           ...       63
Average number of grid points per atom       ...     2297
Average number of shells per batch           ...    48.99 (58.33%)
Average number of basis functions per batch  ...   101.42 (58.97%)
Average number of large shells per batch     ...    36.01 (73.49%)
Average number of large basis fcns per batch ...    75.45 (74.39%)
Maximum spatial batch extension              ...  19.98, 19.14, 19.78 au
Average spatial batch extension              ...   2.96,  3.23,  3.26 au

Time for grid setup =    0.478 sec

------------------------------
INITIAL GUESS: MODEL POTENTIAL
------------------------------
Loading Hartree-Fock densities                     ... done
Calculating cut-offs                               ... done
Setting up the integral package                    ... done
Initializing the effective Hamiltonian             ... done
Starting the Coulomb interaction                   ... done (   0.1 sec)
Reading the grid                                   ... done
Mapping shells                                     ... done
Starting the XC term evaluation                    ... done (   0.3 sec)
  promolecular density results
     # of electrons  =     79.995718642
     EX              =    -66.781834683
     EC              =     -2.725968311
     EX+EC           =    -69.507802994
Transforming the Hamiltonian                       ... done (   0.0 sec)
Diagonalizing the Hamiltonian                      ... done (   0.0 sec)
Back transforming the eigenvectors                 ... done (   0.0 sec)
Now organizing SCF variables                       ... done
                      ------------------
                      INITIAL GUESS DONE (   1.0 sec)
                      ------------------
--------------
SCF ITERATIONS
--------------
               ***  Starting incremental Fock matrix formation  ***

                         ----------------------------
                         !        ITERATION     0   !
                         ----------------------------
   Total Energy        :    -514.833625487415 Eh
   Energy Change       :    -514.833625487415 Eh
   MAX-DP              :       0.095576843045
   RMS-DP              :       0.002648962468
   Actual Damping      :       0.7000
   Actual Level Shift  :       0.2500 Eh
   Int. Num. El.       :    80.00052886 (UP=   40.00026443 DN=   40.00026443)
   Exchange            :   -54.74112625
   Correlation         :    -3.24772900


                         ----------------------------
                         !        ITERATION     1   !
                         ----------------------------
   Total Energy        :    -514.991976757820 Eh
   Energy Change       :      -0.158351270405 Eh
   MAX-DP              :       0.050857914255
   RMS-DP              :       0.001757797599
   Actual Damping      :       0.7000
   Actual Level Shift  :       0.2500 Eh
   Int. Num. El.       :    80.00061012 (UP=   40.00030506 DN=   40.00030506)
   Exchange            :   -54.32139332
   Correlation         :    -3.23306982

                               ***Turning on DIIS***

                         ----------------------------
                         !        ITERATION     2   !
                         ----------------------------
   Total Energy        :    -515.052038318390 Eh
   Energy Change       :      -0.060061560570 Eh
   MAX-DP              :       0.070093518724
   RMS-DP              :       0.002671811873
   Actual Damping      :       0.0000
   Actual Level Shift  :       0.2500 Eh
   Int. Num. El.       :    80.00065722 (UP=   40.00032861 DN=   40.00032861)
   Exchange            :   -54.05801448
   Correlation         :    -3.22310590
   DIIS-Error          :       0.043316561393


                         ----------------------------
                         !        ITERATION     3   !
                         ----------------------------
   Total Energy        :    -515.149159011038 Eh
   Energy Change       :      -0.097120692648 Eh
   MAX-DP              :       0.034480911039
   RMS-DP              :       0.001232316710
   Actual Damping      :       0.0000
   Actual Level Shift  :       0.2500 Eh
   Int. Num. El.       :    80.00071800 (UP=   40.00035900 DN=   40.00035900)
   Exchange            :   -53.68582733
   Correlation         :    -3.20769057
   DIIS-Error          :       0.059353897316
   DIIS coefficients:
      0.59021   0.40979


                         ----------------------------
                         !        ITERATION     4   !
                         ----------------------------
   Total Energy        :    -515.169077998432 Eh
   Energy Change       :      -0.019918987394 Eh
   MAX-DP              :       0.011960522553
   RMS-DP              :       0.000407260323
   Actual Damping      :       0.0000
   Actual Level Shift  :       0.2500 Eh
   Int. Num. El.       :    80.00068548 (UP=   40.00034274 DN=   40.00034274)
   Exchange            :   -53.84634618
   Correlation         :    -3.21407611
   DIIS-Error          :       0.013802808509
   DIIS coefficients:
      0.26602   0.08960   0.64438


                         ----------------------------
                         !        ITERATION     5   !
                         ----------------------------
   Total Energy        :    -515.170525304368 Eh
   Energy Change       :      -0.001447305936 Eh
   MAX-DP              :       0.004168928268
   RMS-DP              :       0.000125458370
   Actual Damping      :       0.0000
   Actual Level Shift  :       0.2500 Eh
   Int. Num. El.       :    80.00068110 (UP=   40.00034055 DN=   40.00034055)
   Exchange            :   -53.87644885
   Correlation         :    -3.21572097
   DIIS-Error          :       0.005965119237
   DIIS coefficients:
      0.06564   0.00283   0.17431   0.75722

                      *** Initiating the SOSCF procedure ***
                           *** Shutting down DIIS ***
                      *** Re-Reading the Fockian *** 
                      *** Removing any level shift *** 

                         ----------------------------
                         !        ITERATION     6   !
                         ----------------------------
   Total Energy        :    -515.170602894057 Eh
   Energy Change       :      -0.000077589689 Eh
   MAX-DP              :       0.001132195508
   RMS-DP              :       0.000038655850
   Orbital gradient    :       0.000291482337
   Orbital Rotation    :       0.000291482337
   Actual Damping      :       0.0000
   Int. Num. El.       :    80.00068231 (UP=   40.00034115 DN=   40.00034115)
   Exchange            :   -53.88518775
   Correlation         :    -3.21603821

               *** Restarting incremental Fock matrix formation ***

                         ----------------------------
                         !        ITERATION     7   !
                         ----------------------------
   Total Energy        :    -515.170609444234 Eh
   Energy Change       :      -0.000006550177 Eh
   MAX-DP              :       0.000853349156
   RMS-DP              :       0.000022115568
   Orbital gradient    :       0.000127633948
   Orbital Rotation    :       0.000354751567
   Actual Damping      :       0.0000
   Int. Num. El.       :    80.00068200 (UP=   40.00034100 DN=   40.00034100)
   Exchange            :   -53.88560744
   Correlation         :    -3.21603714


                         ----------------------------
                         !        ITERATION     8   !
                         ----------------------------
   Total Energy        :    -515.170609358447 Eh
   Energy Change       :       0.000000085787 Eh
   MAX-DP              :       0.000355262676
   RMS-DP              :       0.000009454939
   Orbital gradient    :       0.000208463039
   Orbital Rotation    :       0.000242150285
   Actual Damping      :       0.0000
   Int. Num. El.       :    80.00068279 (UP=   40.00034140 DN=   40.00034140)
   Exchange            :   -53.88497612
   Correlation         :    -3.21603333


                         ----------------------------
                         !        ITERATION     9   !
                         ----------------------------
   Total Energy        :    -515.170610397878 Eh
   Energy Change       :      -0.000001039431 Eh
   MAX-DP              :       0.000095959846
   RMS-DP              :       0.000004111337
   Orbital gradient    :       0.000040150341
   Orbital Rotation    :       0.000133331470
   Actual Damping      :       0.0000
   Int. Num. El.       :    80.00068258 (UP=   40.00034129 DN=   40.00034129)
   Exchange            :   -53.88545891
   Correlation         :    -3.21604042


                         ----------------------------
                         !        ITERATION    10   !
                         ----------------------------
   Total Energy        :    -515.170610368229 Eh
   Energy Change       :       0.000000029649 Eh
   MAX-DP              :       0.000067088240
   RMS-DP              :       0.000002024391
   Orbital gradient    :       0.000051485742
   Orbital Rotation    :       0.000076214129
   Actual Damping      :       0.0000
   Int. Num. El.       :    80.00068249 (UP=   40.00034125 DN=   40.00034125)
   Exchange            :   -53.88540734
   Correlation         :    -3.21603580


                         ----------------------------
                         !        ITERATION    11   !
                         ----------------------------
   Total Energy        :    -515.170610427287 Eh
   Energy Change       :      -0.000000059058 Eh
   MAX-DP              :       0.000017466615
   RMS-DP              :       0.000000653671
   Orbital gradient    :       0.000003468368
   Orbital Rotation    :       0.000008802435
   Actual Damping      :       0.0000
   Int. Num. El.       :    80.00068254 (UP=   40.00034127 DN=   40.00034127)
   Exchange            :   -53.88538513
   Correlation         :    -3.21603679


                         ----------------------------
                         !        ITERATION    12   !
                         ----------------------------
   Total Energy        :    -515.170610428234 Eh
   Energy Change       :      -0.000000000947 Eh
   MAX-DP              :       0.000010253096
   RMS-DP              :       0.000000339775
   Orbital gradient    :       0.000005808275
   Orbital Rotation    :       0.000007062023
   Actual Damping      :       0.0000
   Int. Num. El.       :    80.00068254 (UP=   40.00034127 DN=   40.00034127)
   Exchange            :   -53.88543368
   Correlation         :    -3.21603892

                  ***Gradient check signals convergence***
              ***Rediagonalizing the Fockian in SOSCF/NRSCF***

               *****************************************************
               *                     SUCCESS                       *
               *           SCF CONVERGED AFTER  13 CYCLES          *
               *****************************************************

Setting up the final grid:

General Integration Accuracy     IntAcc      ...  5.010
Radial Grid Type                 RadialGrid  ... Gauss-Chebyshev
Angular Grid (max. acc.)         AngularGrid ... Lebedev-434
Angular grid pruning method      GridPruning ... 3 (G Style)
Weight generation scheme         WeightScheme... Becke
Basis function cutoff            BFCut       ...    1.0000e-11
Integration weight cutoff        WCut        ...    1.0000e-14
Grids for H and He will be reduced by one unit

# of grid points (after initial pruning)     ... 178086 (   0.1 sec)
# of grid points (after weights+screening)   ... 161829 (   0.4 sec)
nearest neighbour list constructed           ...    0.0 sec
Grid point re-assignment to atoms done       ...    0.0 sec
Grid point division into batches done        ...    0.8 sec
Reduced shell lists constructed in    1.7 sec

Total number of grid points                  ...   161829
Total number of batches                      ...     2540
Average number of points per batch           ...       63
Average number of grid points per atom       ...     8091
Average number of shells per batch           ...    45.26 (53.88%)
Average number of basis functions per batch  ...    93.40 (54.30%)
Average number of large shells per batch     ...    32.68 (72.22%)
Average number of large basis fcns per batch ...    68.26 (73.08%)
Maximum spatial batch extension              ...  16.87, 19.41, 20.20 au
Average spatial batch extension              ...   1.98,  2.05,  2.09 au

Final grid set up in    2.2 sec
Final integration                            ... done (   1.4 sec)
Change in XC energy                          ...    -0.000019789
Integrated number of electrons               ...    80.000010273
Previous integrated no of electrons          ...    80.000682542

----------------
TOTAL SCF ENERGY
----------------

Total Energy       :         -515.17063022 Eh          -14018.50554 eV

Components:
Nuclear Repulsion  :          566.45562278 Eh           15414.04113 eV
Electronic Energy  :        -1081.62625300 Eh          -29432.54667 eV
One Electron Energy:        -1823.05892337 Eh          -49607.95532 eV
Two Electron Energy:          741.43267038 Eh           20175.40866 eV

Virial components:
Potential Energy   :        -1027.28462016 Eh          -27953.83566 eV
Kinetic Energy     :          512.11398995 Eh           13935.33012 eV
Virial Ratio       :            2.00596867


DFT components:
N(Alpha)           :       40.000005136550 electrons
N(Beta)            :       40.000005136550 electrons
N(Total)           :       80.000010273100 electrons
E(X)               :      -53.885428875691 Eh       
E(C)               :       -3.216039329010 Eh       
E(XC)              :      -57.101468204701 Eh       
DFET-embed. en.    :        0.000000000000 Eh       

---------------
SCF CONVERGENCE
---------------

  Last Energy change         ...    7.3362e-10  Tolerance :   1.0000e-08
  Last MAX-Density change    ...    3.7885e-06  Tolerance :   1.0000e-07
  Last RMS-Density change    ...    1.2659e-07  Tolerance :   5.0000e-09
  Last Orbital Gradient      ...    1.2783e-06  Tolerance :   1.0000e-05
  Last Orbital Rotation      ...    2.5607e-06  Tolerance :   1.0000e-05

             **** THE GBW FILE WAS UPDATED (/Users/lailaal-madhagi/Desktop/Testing_XAS_Analysis_code/BenzylCarbamate//Results_dir_BenzylCarbamate_geom_element_N_2019-11-07_07-11-17//GTE1_BenzylCarbamate_geom_2019-11-07_07-11-29//TDDFT_N-edge.gbw) ****
             **** DENSITY FILE WAS UPDATED (/Users/lailaal-madhagi/Desktop/Testing_XAS_Analysis_code/BenzylCarbamate//Results_dir_BenzylCarbamate_geom_element_N_2019-11-07_07-11-17//GTE1_BenzylCarbamate_geom_2019-11-07_07-11-29//TDDFT_N-edge.scfp.tmp) ****
             **** ENERGY FILE WAS UPDATED (/Users/lailaal-madhagi/Desktop/Testing_XAS_Analysis_code/BenzylCarbamate//Results_dir_BenzylCarbamate_geom_element_N_2019-11-07_07-11-17//GTE1_BenzylCarbamate_geom_2019-11-07_07-11-29//TDDFT_N-edge.en.tmp) ****
----------------
ORBITAL ENERGIES
----------------

  NO   OCC          E(Eh)            E(eV) 
   0   2.0000     -19.179910      -521.9119 
   1   2.0000     -19.102628      -519.8089 
   2   2.0000     -14.355910      -390.6442 
   3   2.0000     -10.328842      -281.0621 
   4   2.0000     -10.253866      -279.0219 
   5   2.0000     -10.196777      -277.4684 
   6   2.0000     -10.186146      -277.1791 
   7   2.0000     -10.184732      -277.1406 
   8   2.0000     -10.182052      -277.0677 
   9   2.0000     -10.181587      -277.0551 
  10   2.0000     -10.178891      -276.9817 
  11   2.0000      -1.096060       -29.8253 
  12   2.0000      -1.006809       -27.3967 
  13   2.0000      -0.907651       -24.6984 
  14   2.0000      -0.854838       -23.2613 
  15   2.0000      -0.777096       -21.1458 
  16   2.0000      -0.742879       -20.2148 
  17   2.0000      -0.700266       -19.0552 
  18   2.0000      -0.620002       -16.8711 
  19   2.0000      -0.597581       -16.2610 
  20   2.0000      -0.586450       -15.9581 
  21   2.0000      -0.568053       -15.4575 
  22   2.0000      -0.525401       -14.2969 
  23   2.0000      -0.508680       -13.8419 
  24   2.0000      -0.493385       -13.4257 
  25   2.0000      -0.459829       -12.5126 
  26   2.0000      -0.439869       -11.9695 
  27   2.0000      -0.430421       -11.7124 
  28   2.0000      -0.417677       -11.3656 
  29   2.0000      -0.416776       -11.3410 
  30   2.0000      -0.408522       -11.1164 
  31   2.0000      -0.359908        -9.7936 
  32   2.0000      -0.357479        -9.7275 
  33   2.0000      -0.345434        -9.3997 
  34   2.0000      -0.336703        -9.1621 
  35   2.0000      -0.301099        -8.1933 
  36   2.0000      -0.267881        -7.2894 
  37   2.0000      -0.265422        -7.2225 
  38   2.0000      -0.248653        -6.7662 
  39   2.0000      -0.242924        -6.6103 
  40   0.0000      -0.004232        -0.1152 
  41   0.0000       0.002701         0.0735 
  42   0.0000       0.061718         1.6794 
  43   0.0000       0.063378         1.7246 
  44   0.0000       0.095667         2.6032 
  45   0.0000       0.107330         2.9206 
  46   0.0000       0.125750         3.4218 
  47   0.0000       0.135995         3.7006 
  48   0.0000       0.137702         3.7471 
  49   0.0000       0.152039         4.1372 
  50   0.0000       0.164720         4.4822 
  51   0.0000       0.189339         5.1522 
  52   0.0000       0.192780         5.2458 
  53   0.0000       0.210258         5.7214 
  54   0.0000       0.221731         6.0336 
  55   0.0000       0.271252         7.3811 
  56   0.0000       0.297335         8.0909 
  57   0.0000       0.305575         8.3151 
  58   0.0000       0.331757         9.0276 
  59   0.0000       0.346862         9.4386 
  60   0.0000       0.360153         9.8003 
  61   0.0000       0.388421        10.5695 
  62   0.0000       0.470123        12.7927 
  63   0.0000       0.515747        14.0342 
  64   0.0000       0.523141        14.2354 
  65   0.0000       0.530381        14.4324 
  66   0.0000       0.540492        14.7075 
  67   0.0000       0.551591        15.0095 
  68   0.0000       0.574071        15.6213 
  69   0.0000       0.581497        15.8234 
  70   0.0000       0.584742        15.9116 
  71   0.0000       0.599245        16.3063 
  72   0.0000       0.600711        16.3462 
  73   0.0000       0.603469        16.4212 
  74   0.0000       0.619881        16.8678 
  75   0.0000       0.623480        16.9657 
  76   0.0000       0.635191        17.2844 
  77   0.0000       0.656579        17.8664 
  78   0.0000       0.666741        18.1429 
  79   0.0000       0.670170        18.2363 
  80   0.0000       0.692703        18.8494 
  81   0.0000       0.698457        19.0060 
  82   0.0000       0.712038        19.3755 
  83   0.0000       0.742510        20.2047 
  84   0.0000       0.781586        21.2680 
  85   0.0000       0.829445        22.5703 
  86   0.0000       0.840502        22.8712 
  87   0.0000       0.842116        22.9151 
  88   0.0000       0.845889        23.0178 
  89   0.0000       0.857453        23.3325 
  90   0.0000       0.861875        23.4528 
  91   0.0000       0.878356        23.9013 
  92   0.0000       0.879076        23.9209 
  93   0.0000       0.919303        25.0155 
  94   0.0000       0.934691        25.4342 
  95   0.0000       0.950908        25.8755 
  96   0.0000       0.960119        26.1262 
  97   0.0000       0.993158        27.0252 
  98   0.0000       1.025044        27.8929 
  99   0.0000       1.025707        27.9109 
 100   0.0000       1.058154        28.7938 
 101   0.0000       1.087381        29.5891 
 102   0.0000       1.089659        29.6511 
 103   0.0000       1.119025        30.4502 
 104   0.0000       1.138795        30.9882 
 105   0.0000       1.166745        31.7487 
 106   0.0000       1.196536        32.5594 
 107   0.0000       1.221750        33.2455 
 108   0.0000       1.255501        34.1639 
 109   0.0000       1.290555        35.1178 
 110   0.0000       1.300724        35.3945 
 111   0.0000       1.350107        36.7383 
 112   0.0000       1.368794        37.2468 
 113   0.0000       1.406756        38.2798 
 114   0.0000       1.432999        38.9939 
 115   0.0000       1.450547        39.4714 
 116   0.0000       1.463831        39.8329 
 117   0.0000       1.478198        40.2238 
 118   0.0000       1.482402        40.3382 
 119   0.0000       1.493671        40.6449 
 120   0.0000       1.513832        41.1935 
 121   0.0000       1.554115        42.2896 
 122   0.0000       1.652752        44.9737 
 123   0.0000       1.679081        45.6901 
 124   0.0000       1.757296        47.8185 
 125   0.0000       1.774317        48.2816 
 126   0.0000       1.796370        48.8817 
 127   0.0000       1.807158        49.1753 
 128   0.0000       1.812480        49.3201 
 129   0.0000       1.829319        49.7783 
 130   0.0000       1.863225        50.7009 
 131   0.0000       1.896872        51.6165 
 132   0.0000       1.903605        51.7997 
 133   0.0000       1.923895        52.3518 
 134   0.0000       1.935728        52.6738 
 135   0.0000       1.977744        53.8172 
 136   0.0000       1.988291        54.1041 
 137   0.0000       2.034041        55.3491 
 138   0.0000       2.038826        55.4793 
 139   0.0000       2.059791        56.0498 
 140   0.0000       2.095863        57.0313 
 141   0.0000       2.114228        57.5311 
 142   0.0000       2.131295        57.9955 
 143   0.0000       2.142463        58.2994 
 144   0.0000       2.169156        59.0257 
 145   0.0000       2.199411        59.8490 
 146   0.0000       2.219432        60.3938 
 147   0.0000       2.237312        60.8803 
 148   0.0000       2.260938        61.5233 
 149   0.0000       2.278869        62.0112 
 150   0.0000       2.308683        62.8225 
 151   0.0000       2.327533        63.3354 
 152   0.0000       2.397338        65.2349 
 153   0.0000       2.432614        66.1948 
 154   0.0000       2.554694        69.5168 
 155   0.0000       2.570657        69.9511 
 156   0.0000       2.581806        70.2545 
 157   0.0000       2.606746        70.9332 
 158   0.0000       2.661804        72.4314 
 159   0.0000       2.664775        72.5122 
 160   0.0000       2.672584        72.7247 
 161   0.0000       2.708788        73.7099 
 162   0.0000       2.722707        74.0886 
 163   0.0000       2.745349        74.7047 
 164   0.0000       2.780748        75.6680 
 165   0.0000       2.837209        77.2044 
 166   0.0000       2.883519        78.4645 
 167   0.0000       2.947919        80.2170 
 168   0.0000       3.042359        82.7868 
 169   0.0000       3.158747        85.9539 
 170   0.0000       3.187894        86.7470 
 171   0.0000       3.417625        92.9983 
------------------
MOLECULAR ORBITALS
------------------
                      0         1         2         3         4         5   
                 -19.17991 -19.10263 -14.35591 -10.32884 -10.25387 -10.19678
                   2.00000   2.00000   2.00000   2.00000   2.00000   2.00000
                  --------  --------  --------  --------  --------  --------
  0C   1s        -0.000015  0.000013  0.000010  0.000036  0.000092 -0.000148
  0C   2s        -0.000073  0.000097  0.000058  0.000185  0.000420  0.000117
  0C   1pz       -0.000015  0.000008 -0.000016 -0.000054 -0.000027  0.000007
  0C   1px        0.000060  0.000008 -0.000020 -0.000054  0.000010  0.000161
  0C   1py        0.000001  0.000011 -0.000023 -0.000076 -0.000027  0.000056
  0C   3s         0.002322 -0.001002 -0.001115 -0.002402 -0.004431  0.001899
  0C   2pz        0.000353 -0.000258  0.000175  0.000131  0.000729 -0.000852
  0C   2px        0.000892 -0.000549 -0.000667 -0.001415 -0.002504  0.000958
  0C   2py        0.000655 -0.000448 -0.000006 -0.000279  0.000059 -0.000651
  0C   1dz2      -0.000020  0.000015  0.000009  0.000033  0.000047 -0.000004
  0C   1dxz       0.000023 -0.000003 -0.000003 -0.000026 -0.000016  0.000031
  0C   1dyz       0.000020 -0.000021 -0.000008 -0.000036 -0.000102 -0.000078
  0C   1dx2y2     0.000012 -0.000015 -0.000009 -0.000026 -0.000035  0.000008
  0C   1dxy       0.000043 -0.000021 -0.000012 -0.000061 -0.000078  0.000015
  1C   1s         0.000010 -0.000004 -0.000007 -0.000008 -0.000016  0.000496
  1C   2s         0.000084 -0.000019 -0.000046 -0.000045 -0.000083  0.000405
  1C   1pz        0.000016 -0.000003  0.000013  0.000056  0.000011  0.000030
  1C   1px        0.000042  0.000006 -0.000014 -0.000079  0.000013  0.000099
  1C   1py        0.000030 -0.000001  0.000011  0.000038  0.000016  0.000063
  1C   3s        -0.000224  0.000349  0.000698  0.000078  0.002186 -0.002613
  1C   2pz       -0.000211 -0.000069  0.000046  0.000096  0.000935 -0.000565
  1C   2px       -0.000648  0.000480  0.000350  0.000199  0.001205 -0.001233
  1C   2py       -0.000424  0.000068  0.000154  0.000165  0.001384 -0.000987
  1C   1dz2       0.000003 -0.000004 -0.000001  0.000007  0.000004  0.000016
  1C   1dxz       0.000008 -0.000002 -0.000004  0.000005 -0.000002  0.000017
  1C   1dyz      -0.000013 -0.000003  0.000012  0.000023  0.000018 -0.000058
  1C   1dx2y2    -0.000005  0.000008  0.000001 -0.000018 -0.000009 -0.000018
  1C   1dxy       0.000002  0.000002 -0.000001  0.000003 -0.000003 -0.000012
  2C   1s         0.000016  0.000009 -0.000018 -0.000046  0.000085 -0.012087
  2C   2s         0.000060  0.000084 -0.000104 -0.000271  0.000200  0.001443
  2C   1pz       -0.000026  0.000031  0.000018  0.000026  0.000048 -0.000516
  2C   1px       -0.000073  0.000018  0.000042  0.000220  0.000320  0.001227
  2C   1py       -0.000049  0.000039  0.000032  0.000093  0.000149 -0.000203
  2C   3s        -0.001002 -0.000837  0.001759  0.005460  0.003811 -0.009221
  2C   2pz        0.000854  0.000156 -0.000853 -0.001480 -0.001409  0.001889
  2C   2px        0.001840 -0.001547  0.000102  0.000272 -0.000565 -0.003689
  2C   2py        0.001482 -0.000287 -0.000907 -0.001543 -0.001719  0.000978
  2C   1dz2       0.000014  0.000005 -0.000009 -0.000060 -0.000093 -0.000354
  2C   1dxz      -0.000062  0.000053 -0.000015  0.000019  0.000084 -0.000793
  2C   1dyz      -0.000050 -0.000014  0.000029  0.000047 -0.000132  0.000153
  2C   1dx2y2     0.000025 -0.000032  0.000015  0.000066  0.000124  0.000894
  2C   1dxy      -0.000077  0.000038  0.000001  0.000082  0.000135 -0.000318
  3C   1s        -0.000013  0.000014 -0.000003 -0.000037  0.000098 -0.000318
  3C   2s        -0.000060  0.000100 -0.000024 -0.000193  0.000436  0.000127
  3C   1pz        0.000047  0.000010 -0.000005 -0.000032  0.000001  0.000094
  3C   1px        0.000018 -0.000007  0.000008  0.000090  0.000012  0.000078
  3C   1py        0.000057  0.000009 -0.000003 -0.000008  0.000004  0.000127
  3C   3s         0.002512 -0.000733 -0.000215  0.000849 -0.005022  0.001847
  3C   2pz        0.000314 -0.000361 -0.000146  0.000727 -0.001384  0.000806
  3C   2px        0.000912  0.000155  0.000315 -0.000064 -0.001741 -0.000417
  3C   2py        0.000615 -0.000350 -0.000067  0.000780 -0.002035  0.000762
  3C   1dz2      -0.000021  0.000013 -0.000007 -0.000024  0.000058  0.000018
  3C   1dxz       0.000016  0.000002  0.000009  0.000020 -0.000015  0.000060
  3C   1dyz       0.000008 -0.000021  0.000009  0.000047 -0.000084 -0.000038
  3C   1dx2y2     0.000020 -0.000014  0.000004  0.000013 -0.000056 -0.000049
  3C   1dxy       0.000035 -0.000015  0.000016  0.000049 -0.000084  0.000028
  4C   1s         0.000086  0.000006 -0.000001 -0.000024 -0.001469 -0.994867
  4C   2s         0.000427  0.000029 -0.000053 -0.000139  0.000729 -0.036734
  4C   1pz        0.000009 -0.000044  0.000006  0.000223  0.000287  0.000061
  4C   1px       -0.000010  0.000033 -0.000098 -0.000157  0.000401  0.000070
  4C   1py        0.000007 -0.000039 -0.000022  0.000198  0.000434  0.000086
  4C   3s        -0.004801 -0.000660 -0.000587  0.003963 -0.005843  0.031649
  4C   2pz       -0.002095  0.000914  0.000104 -0.002333 -0.002421  0.000406
  4C   2px       -0.002678 -0.002124  0.001694  0.005376 -0.000559 -0.000739
  4C   2py       -0.003096  0.000373  0.000619 -0.000965 -0.002827  0.000230
  4C   1dz2       0.000072  0.000019 -0.000004  0.000005 -0.000340  0.000109
  4C   1dxz      -0.000090 -0.000043  0.000029  0.000074  0.000431  0.000384
  4C   1dyz      -0.000128 -0.000011  0.000013  0.000085  0.000250 -0.000562
  4C   1dx2y2    -0.000025 -0.000002 -0.000013 -0.000068  0.000203 -0.000220
  4C   1dxy      -0.000170 -0.000057  0.000031  0.000075  0.000742  0.000117
  5C   1s        -0.000001 -0.000007 -0.000005  0.000039  0.000046 -0.019608
  5C   2s        -0.000051 -0.000022 -0.000057  0.000226  0.000258  0.001097
  5C   1pz       -0.000078  0.000029 -0.000024 -0.000087  0.000110  0.000906
  5C   1px       -0.000070  0.000018 -0.000025 -0.000091  0.000204 -0.000115
  5C   1py       -0.000107  0.000037 -0.000034 -0.000122  0.000183  0.000961
  5C   3s        -0.002193  0.001309  0.000229 -0.004191  0.001267 -0.008127
  5C   2pz        0.000430  0.000239  0.000420 -0.001061 -0.001611 -0.002391
  5C   2px        0.002155  0.000028 -0.000337  0.000257 -0.003125  0.000891
  5C   2py        0.001114  0.000270  0.000361 -0.001089 -0.002703 -0.002363
  5C   1dz2       0.000035 -0.000007  0.000011  0.000016 -0.000001  0.000263
  5C   1dxz      -0.000013  0.000031 -0.000033 -0.000061  0.000147 -0.000164
  5C   1dyz       0.000042  0.000007  0.000016 -0.000088 -0.000103  0.001137
  5C   1dx2y2    -0.000054 -0.000007 -0.000003  0.000031 -0.000050 -0.000576
  5C   1dxy      -0.000036  0.000035 -0.000036 -0.000085  0.000107 -0.000165
  6C   1s        -0.000157  0.000048 -0.000022 -0.000209 -0.995281  0.001425
  6C   2s        -0.001067  0.000543 -0.000238 -0.000744 -0.037484  0.000944
  6C   1pz        0.000530  0.000262  0.000090 -0.000305 -0.000926 -0.000178
  6C   1px       -0.000225  0.000076 -0.000175 -0.000171  0.000470 -0.000750
  6C   1py        0.000512  0.000309  0.000045 -0.000388 -0.000874 -0.000422
  6C   3s         0.012220  0.000225  0.001352 -0.001119  0.027748 -0.006124
  6C   2pz        0.002231 -0.001323  0.001044  0.003058 -0.001426  0.000091
  6C   2px       -0.002573 -0.001093  0.000643  0.003342 -0.000286  0.003784
  6C   2py        0.001668 -0.001780  0.001340  0.004373 -0.001630  0.001242
  6C   1dz2      -0.000034 -0.000003  0.000073  0.000080 -0.000167 -0.000450
  6C   1dxz       0.000107  0.000068 -0.000083 -0.000011  0.000155  0.000425
  6C   1dyz       0.000169  0.000005  0.000097  0.000189 -0.000584  0.000300
  6C   1dx2y2    -0.000049 -0.000033 -0.000085 -0.000156  0.000299  0.000352
  6C   1dxy       0.000157  0.000062 -0.000120 -0.000046  0.000173  0.000851
  7H   1s        -0.000204  0.000071  0.000037  0.000114  0.000196  0.000314
  7H   2s        -0.000407 -0.000147  0.000371  0.000061  0.000600 -0.000146
  8H   1s        -0.000050  0.000022 -0.000019 -0.000023 -0.000032  0.000063
  8H   2s         0.000021 -0.000086 -0.000156 -0.000265 -0.000727  0.000155
  9H   1s        -0.000076  0.000028  0.000005  0.000022  0.000122 -0.000039
  9H   2s        -0.000267  0.000101  0.000089  0.000103  0.000464 -0.000505
 10H   1s        -0.000191 -0.000000 -0.000024 -0.000006  0.000296  0.000281
 10H   2s        -0.000212 -0.000156  0.000346  0.000213  0.000385 -0.000049
 11H   1s        -0.000055 -0.000014 -0.000013  0.000060  0.000036  0.000048
 11H   2s        -0.000025 -0.000154 -0.000037  0.000352 -0.000565  0.000105
 12O   1s         0.995194 -0.000392  0.000021  0.000158 -0.000091 -0.000005
 12O   2s         0.030968  0.000491 -0.000056  0.001308 -0.000527  0.000038
 12O   1pz       -0.000482 -0.000020 -0.000218 -0.000024 -0.000042 -0.000033
 12O   1px        0.001682  0.000266 -0.000017 -0.000069 -0.000016  0.000006
 12O   1py       -0.000014  0.000059 -0.000243 -0.000048 -0.000052 -0.000035
 12O   3s        -0.025164 -0.001855 -0.000449 -0.005731  0.000113  0.000445
 12O   2pz        0.001275  0.000820  0.001752 -0.001961 -0.001441 -0.000478
 12O   2px       -0.005112 -0.002109 -0.001188 -0.003422  0.001119 -0.000199
 12O   2py       -0.000166  0.000254  0.001554 -0.003188 -0.001236 -0.000581
 12O   1dz2       0.000036  0.000219  0.000087  0.000587  0.000307  0.000103
 12O   1dxz       0.000015  0.000145 -0.000016 -0.000867 -0.000673 -0.000073
 12O   1dyz      -0.000603  0.000138  0.000161 -0.001051  0.001531 -0.000023
 12O   1dx2y2     0.000086 -0.000426 -0.000156 -0.000122 -0.000452 -0.000105
 12O   1dxy      -0.000146 -0.000062 -0.000065 -0.001516 -0.000554 -0.000165
 13H   1s        -0.000548  0.000098 -0.000123 -0.000320  0.000469  0.000417
 13H   2s        -0.000962 -0.000204 -0.000580  0.000072 -0.005639 -0.001057
 14H   1s        -0.000547  0.000097 -0.000121 -0.000315  0.000470  0.000415
 14H   2s        -0.000961 -0.000201 -0.000577  0.000078 -0.005629 -0.001046
 15C   1s         0.000023 -0.000313  0.000052  0.995037 -0.000043  0.000000
 15C   2s         0.000093 -0.000971 -0.001181  0.036241  0.000783  0.000003
 15C   1pz       -0.000274  0.000059  0.000135  0.000070 -0.000082 -0.000012
 15C   1px       -0.000370 -0.000057 -0.000391 -0.000913 -0.000035 -0.000017
 15C   1py       -0.000413  0.000048  0.000028 -0.000202 -0.000100 -0.000019
 15C   3s         0.005790 -0.008259  0.009459 -0.002577 -0.000902  0.000570
 15C   2pz       -0.004117 -0.010262 -0.002916  0.004476  0.002404 -0.000311
 15C   2px       -0.004988  0.004309  0.009181 -0.004650 -0.001690 -0.000341
 15C   2py       -0.006027 -0.009914 -0.000387  0.003477  0.002112 -0.000444
 15C   1dz2       0.000098  0.000309  0.000353 -0.000319  0.000079 -0.000026
 15C   1dxz      -0.000356 -0.000324  0.000639 -0.000646  0.000058  0.000014
 15C   1dyz       0.000201  0.000753  0.000224  0.002344 -0.000082  0.000045
 15C   1dx2y2     0.000001 -0.000454 -0.000905  0.000236 -0.000125  0.000018
 15C   1dxy      -0.000355 -0.000419  0.000245  0.000243 -0.000044  0.000046
 16N   1s        -0.000000  0.000041  0.995223  0.000044 -0.000007  0.000007
 16N   2s        -0.000184  0.000595  0.032518 -0.000407  0.000080  0.000093
 16N   1pz       -0.000180 -0.000022  0.000152 -0.000336 -0.000054 -0.000040
 16N   1px        0.000242 -0.000159 -0.000539  0.000918 -0.000145 -0.000026
 16N   1py       -0.000123 -0.000073  0.000009 -0.000088 -0.000104 -0.000053
 16N   3s         0.000093 -0.003894 -0.026227  0.002305  0.001466 -0.000255
 16N   2pz        0.002125  0.002151 -0.001708 -0.000979  0.000342  0.000309
 16N   2px        0.000220  0.001999  0.004574  0.001030 -0.000491  0.000297
 16N   2py        0.002393  0.002964 -0.000485 -0.000755  0.000227  0.000431
 16N   1dz2       0.000086  0.000168  0.000027  0.000636  0.000001  0.000016
 16N   1dxz      -0.000093 -0.000225 -0.000018  0.000950 -0.000011  0.000003
 16N   1dyz       0.000205 -0.000008  0.000011 -0.000099 -0.000120 -0.000017
 16N   1dx2y2    -0.000126 -0.000121 -0.000031 -0.001400  0.000034 -0.000020
 16N   1dxy      -0.000120 -0.000355 -0.000039  0.000169 -0.000034 -0.000016
 17O   1s        -0.000414 -0.995179 -0.000010 -0.000003  0.000026 -0.000001
 17O   2s        -0.000509 -0.030711 -0.000455  0.001251  0.000436 -0.000016
 17O   1pz        0.000105  0.001632  0.000103  0.000692  0.000009 -0.000003
 17O   1px       -0.000173 -0.000715  0.000058 -0.000352  0.000024 -0.000011
 17O   1py        0.000062  0.001567  0.000130  0.000650  0.000017 -0.000006
 17O   3s         0.002031  0.025841  0.001290 -0.010129 -0.002548  0.000110
 17O   2pz       -0.000034 -0.005170 -0.000271  0.004127  0.000417  0.000015
 17O   2px        0.001840  0.002191 -0.001791 -0.001064 -0.000224  0.000096
 17O   2py        0.000525 -0.004987 -0.000844  0.004191  0.000388  0.000045
 17O   1dz2      -0.000104  0.000075 -0.000048 -0.000390 -0.000016 -0.000004
 17O   1dxz      -0.000257 -0.000072  0.000293  0.000594  0.000042 -0.000001
 17O   1dyz      -0.000178  0.000184  0.000261 -0.001571  0.000023 -0.000010
 17O   1dx2y2     0.000330 -0.000114 -0.000152  0.000623 -0.000005  0.000009
 17O   1dxy      -0.000154 -0.000096  0.000348  0.000558  0.000056  0.000001
 18H   1s         0.000389  0.000626 -0.000400 -0.000172 -0.000122  0.000049
 18H   2s         0.001022  0.001243  0.002956 -0.001304  0.000699  0.000177
 19H   1s        -0.000515 -0.000296 -0.000171 -0.000211 -0.000026 -0.000082
 19H   2s        -0.000218 -0.000899  0.002980  0.000569 -0.000318 -0.000191
                      6         7         8         9        10        11   
                 -10.18615 -10.18473 -10.18205 -10.18159 -10.17889  -1.09606
                   2.00000   2.00000   2.00000   2.00000   2.00000   2.00000
                  --------  --------  --------  --------  --------  --------
  0C   1s        -0.001463  0.005769 -0.572239  0.810619  0.075653  0.000406
  0C   2s        -0.000605  0.000131 -0.019150  0.030859  0.004927 -0.000607
  0C   1pz        0.000088  0.000220 -0.000521 -0.000838  0.000317 -0.000127
  0C   1px       -0.000135 -0.000096 -0.000278  0.000678  0.001100 -0.000378
  0C   1py        0.000057  0.000213 -0.000655 -0.000718  0.000676 -0.000251
  0C   3s         0.004531 -0.005194  0.006447 -0.034362 -0.016572  0.003250
  0C   2pz       -0.001207  0.001020  0.001545  0.004528  0.001465 -0.001978
  0C   2px        0.002744 -0.002575 -0.000513 -0.007924 -0.007104  0.000889
  0C   2py       -0.000511  0.000355  0.001545  0.002619 -0.000502 -0.001911
  0C   1dz2      -0.000032 -0.000058  0.000265  0.000105 -0.000456  0.000029
  0C   1dxz      -0.000014  0.000027 -0.000122 -0.000005  0.000575 -0.000020
  0C   1dyz       0.000078 -0.000070  0.000528  0.001158  0.000441 -0.000044
  0C   1dx2y2     0.000034  0.000087 -0.000451 -0.000436  0.000250 -0.000021
  0C   1dxy       0.000034  0.000063 -0.000252  0.000124  0.001015 -0.000053
  1C   1s         0.007953  0.075088 -0.810524 -0.572397 -0.005459  0.000192
  1C   2s         0.000012  0.000653 -0.028660 -0.022840 -0.000415 -0.000085
  1C   1pz        0.000114  0.000489  0.000359 -0.000874  0.000072  0.000042
  1C   1px       -0.000411 -0.001086 -0.000708 -0.000369  0.000068 -0.000103
  1C   1py        0.000003  0.000215  0.000184 -0.001070  0.000099  0.000016
  1C   3s        -0.004242  0.011560  0.020697  0.030139  0.007239 -0.002419
  1C   2pz       -0.000794  0.000183  0.000019  0.003837  0.001281 -0.002573
  1C   2px       -0.001696  0.005952  0.003535  0.006238  0.002749 -0.000725
  1C   2py       -0.001376  0.001971  0.001072  0.006071  0.002225 -0.003041
  1C   1dz2       0.000058  0.000283  0.000235 -0.000198  0.000007  0.000004
  1C   1dxz       0.000136  0.000804  0.000247  0.000469  0.000061  0.000020
  1C   1dyz       0.000049 -0.000129  0.000146 -0.001224 -0.000089 -0.000048
  1C   1dx2y2    -0.000167 -0.000802 -0.000507  0.000342 -0.000021 -0.000004
  1C   1dxy       0.000072  0.000399  0.000019  0.000350  0.000028  0.000005
  2C   1s        -0.000804 -0.001062 -0.039193  0.064722 -0.992196  0.003232
  2C   2s        -0.000056 -0.000522 -0.000300  0.000554 -0.036712 -0.005350
  2C   1pz        0.000145  0.000096 -0.000302  0.000226  0.000710 -0.000123
  2C   1px       -0.000127 -0.000006 -0.000677  0.000808 -0.000104 -0.003794
  2C   1py        0.000121  0.000103 -0.000533  0.000488  0.000750 -0.001260
  2C   3s        -0.005360  0.004145 -0.000915  0.012965  0.035355 -0.005333
  2C   2pz        0.002186 -0.002047 -0.000283 -0.004374 -0.006024  0.005177
  2C   2px       -0.000397  0.000019  0.001096 -0.001139  0.001230 -0.003953
  2C   2py        0.002285 -0.002243  0.000014 -0.005145 -0.006255  0.004515
  2C   1dz2      -0.000050 -0.000019 -0.000262  0.000396  0.000404  0.000318
  2C   1dxz       0.000033 -0.000021  0.000319 -0.000382  0.000089  0.000121
  2C   1dyz       0.000044  0.000049  0.000151 -0.000208 -0.000281 -0.000412
  2C   1dx2y2     0.000044  0.000027  0.000175 -0.000322 -0.000564 -0.000425
  2C   1dxy       0.000084  0.000010  0.000553 -0.000745 -0.000361 -0.000278
  3C   1s         0.157609  0.979663  0.064828  0.039206 -0.001069  0.000159
  3C   2s         0.003638  0.036144  0.004151  0.002632  0.000512 -0.000891
  3C   1pz       -0.000316  0.000620  0.000563  0.000211  0.000081  0.000001
  3C   1px       -0.000993  0.000177 -0.001066 -0.000543 -0.000012  0.000037
  3C   1py       -0.000643  0.000734  0.000302  0.000070  0.000086  0.000012
  3C   3s         0.008549 -0.033549 -0.010703 -0.013503 -0.005766  0.013156
  3C   2pz        0.003393 -0.005395 -0.002951 -0.004149 -0.002519  0.002329
  3C   2px        0.001387  0.000481  0.002335  0.002015  0.000433  0.006521
  3C   2py        0.004141 -0.005785 -0.002549 -0.003960 -0.002639  0.004492
  3C   1dz2       0.000459 -0.000408 -0.000322 -0.000254  0.000030 -0.000071
  3C   1dxz      -0.000508  0.000004 -0.000652 -0.000428  0.000025  0.000092
  3C   1dyz      -0.000230  0.000306  0.000049  0.000094 -0.000065  0.000048
  3C   1dx2y2    -0.000342  0.000514  0.000798  0.000571 -0.000040  0.000044
  3C   1dxy      -0.000918  0.000449 -0.000248 -0.000109 -0.000020  0.000156
  4C   1s        -0.019509  0.002879  0.000299 -0.001141  0.012169  0.009308
  4C   2s        -0.002731  0.000491  0.000463  0.000136  0.002498 -0.015644
  4C   1pz        0.000954 -0.000040 -0.000037 -0.000058  0.000499 -0.005898
  4C   1px       -0.000042  0.000147 -0.000319  0.000161 -0.001299 -0.007092
  4C   1py        0.001036 -0.000001 -0.000135 -0.000016  0.000162 -0.008584
  4C   3s         0.012994 -0.008007 -0.001542 -0.006689 -0.014001 -0.017330
  4C   2pz       -0.003866  0.001755  0.001232  0.000922  0.000398 -0.007885
  4C   2px       -0.004163  0.001055  0.002475  0.003629  0.008216 -0.016180
  4C   2py       -0.005487  0.002242  0.002090  0.002091  0.002883 -0.013465
  4C   1dz2      -0.000269  0.000026 -0.000024  0.000056 -0.000321  0.000892
  4C   1dxz       0.000222 -0.000120  0.000014  0.000073 -0.000836 -0.001294
  4C   1dyz      -0.001074  0.000161 -0.000100  0.000013  0.000190 -0.001718
  4C   1dx2y2     0.000539 -0.000015  0.000052 -0.000123  0.000859 -0.000188
  4C   1dxy       0.000234 -0.000097  0.000015  0.000012 -0.000379 -0.002298
  5C   1s         0.982338 -0.157899 -0.004680 -0.000520 -0.000265  0.001347
  5C   2s         0.035821 -0.007965 -0.000071 -0.000539 -0.000078 -0.002567
  5C   1pz        0.000418  0.000316  0.000073 -0.000048  0.000132 -0.001595
  5C   1px       -0.000550  0.001207 -0.000188  0.000036 -0.000114 -0.000732
  5C   1py        0.000296  0.000706  0.000025 -0.000042  0.000112 -0.001973
  5C   3s        -0.031636  0.018725  0.004201  0.007096  0.006235 -0.013967
  5C   2pz       -0.003327  0.001590  0.000703  0.001497  0.001430  0.001877
  5C   2px        0.006052 -0.006778 -0.001746 -0.004240 -0.003474  0.013965
  5C   2py       -0.001856 -0.000268  0.000253  0.000384  0.000537  0.006223
  5C   1dz2      -0.000046  0.000459  0.000038 -0.000016  0.000037  0.000083
  5C   1dxz       0.000062 -0.000567 -0.000027 -0.000020 -0.000037 -0.000009
  5C   1dyz       0.000582 -0.000468 -0.000118  0.000005 -0.000028 -0.000168
  5C   1dx2y2    -0.000110 -0.000252 -0.000012  0.000032 -0.000027 -0.000074
  5C   1dxy       0.000211 -0.001015 -0.000083 -0.000001 -0.000072 -0.000118
  6C   1s         0.000034 -0.000006  0.000014  0.000021 -0.000078  0.050374
  6C   2s        -0.000253 -0.000262  0.000251 -0.000133  0.000382 -0.099116
  6C   1pz        0.000035  0.000022  0.000007  0.000003  0.000048 -0.049460
  6C   1px        0.000073 -0.000011  0.000029  0.000044 -0.000116  0.012841
  6C   1py        0.000061  0.000021  0.000017  0.000016  0.000019 -0.050235
  6C   3s         0.002010  0.000953 -0.002429 -0.000934 -0.002685 -0.005408
  6C   2pz       -0.000430 -0.000408  0.000188  0.000067  0.000526  0.007700
  6C   2px       -0.001102 -0.000259  0.001015  0.000245  0.000971 -0.012793
  6C   2py       -0.000803 -0.000525  0.000509  0.000150  0.000862  0.004613
  6C   1dz2      -0.000032 -0.000015  0.000031 -0.000016  0.000012 -0.002738
  6C   1dxz      -0.000009  0.000039 -0.000014  0.000016  0.000004  0.003002
  6C   1dyz       0.000037  0.000023 -0.000026 -0.000007 -0.000085 -0.009823
  6C   1dx2y2     0.000042 -0.000005 -0.000031  0.000017  0.000002  0.004722
  6C   1dxy       0.000029  0.000052 -0.000046  0.000028 -0.000025  0.003179
  7H   1s        -0.000062  0.000097  0.000219 -0.000126  0.001350 -0.002767
  7H   2s        -0.000643  0.000865 -0.000035  0.001466 -0.002336 -0.007074
  8H   1s         0.000093 -0.000086  0.000875 -0.001025  0.000021 -0.000069
  8H   2s         0.000869 -0.000413 -0.002659  0.001497 -0.001087  0.000460
  9H   1s        -0.000097 -0.000223  0.001172  0.000667  0.000069 -0.000189
  9H   2s        -0.000291  0.001485 -0.002726 -0.000466  0.000606 -0.000957
 10H   1s        -0.001329  0.000058  0.000019  0.000128  0.000096 -0.001341
 10H   2s         0.002572  0.000579  0.000172  0.001066  0.000777 -0.002478
 11H   1s        -0.000324 -0.001320  0.000047 -0.000013 -0.000100 -0.000201
 11H   2s         0.001722  0.002477 -0.000675 -0.000885 -0.000968  0.000339
 12O   1s        -0.000003  0.000002 -0.000002 -0.000000 -0.000004  0.167418
 12O   2s        -0.000066  0.000023 -0.000025 -0.000027  0.000028 -0.363110
 12O   1pz        0.000025 -0.000010 -0.000009  0.000015 -0.000061  0.009051
 12O   1px        0.000019 -0.000004 -0.000020  0.000045 -0.000016 -0.088086
 12O   1py        0.000033 -0.000012 -0.000016  0.000030 -0.000073 -0.016971
 12O   3s         0.000127 -0.000056  0.000268 -0.000016  0.000136 -0.379516
 12O   2pz       -0.000196  0.000085 -0.000032 -0.000116  0.000189  0.010465
 12O   2px       -0.000119  0.000064  0.000111 -0.000237  0.000002 -0.051269
 12O   2py       -0.000250  0.000112 -0.000001 -0.000199  0.000211 -0.004189
 12O   1dz2      -0.000003 -0.000003  0.000009  0.000001  0.000003  0.002508
 12O   1dxz      -0.000009 -0.000010 -0.000002 -0.000008 -0.000013 -0.000994
 12O   1dyz       0.000017 -0.000009 -0.000007  0.000012 -0.000027 -0.010597
 12O   1dx2y2     0.000006  0.000011 -0.000010  0.000001  0.000009 -0.000500
 12O   1dxy      -0.000001 -0.000008 -0.000011 -0.000005 -0.000019 -0.005432
 13H   1s        -0.000076 -0.000047  0.000038 -0.000008  0.000011 -0.017837
 13H   2s         0.000148 -0.000136  0.000068 -0.000018  0.000060 -0.000551
 14H   1s        -0.000077 -0.000048  0.000038 -0.000008  0.000011 -0.017814
 14H   2s         0.000147 -0.000135  0.000067 -0.000016  0.000056 -0.000521
 15C   1s         0.000001  0.000003  0.000004 -0.000008  0.000010  0.114479
 15C   2s        -0.000038 -0.000073  0.000009  0.000020  0.000035 -0.224262
 15C   1pz       -0.000003  0.000009  0.000006 -0.000017  0.000014  0.001184
 15C   1px       -0.000035 -0.000001  0.000029 -0.000032  0.000045  0.058204
 15C   1py       -0.000013  0.000010  0.000015 -0.000029  0.000029  0.019065
 15C   3s         0.000044  0.000014  0.000005  0.000201 -0.000162 -0.028808
 15C   2pz       -0.000121 -0.000149  0.000079 -0.000149  0.000149  0.000178
 15C   2px       -0.000170  0.000126  0.000016  0.000025 -0.000039 -0.015059
 15C   2py       -0.000186 -0.000124  0.000092 -0.000156  0.000151 -0.004423
 15C   1dz2      -0.000008 -0.000003  0.000001 -0.000009  0.000016  0.002395
 15C   1dxz       0.000014  0.000004 -0.000010  0.000007 -0.000006 -0.001845
 15C   1dyz       0.000002 -0.000000 -0.000005  0.000009  0.000006 -0.017872
 15C   1dx2y2     0.000004  0.000002  0.000006  0.000007 -0.000021  0.001887
 15C   1dxy       0.000020  0.000006 -0.000010  0.000016 -0.000019 -0.007537
 16N   1s        -0.000003  0.000000  0.000001  0.000002 -0.000001  0.043299
 16N   2s        -0.000048 -0.000001  0.000011  0.000018 -0.000000 -0.088493
 16N   1pz        0.000009  0.000003 -0.000002 -0.000002 -0.000004 -0.009411
 16N   1px        0.000026  0.000014 -0.000020  0.000004 -0.000021  0.037368
 16N   1py        0.000018  0.000008 -0.000009 -0.000001 -0.000010  0.001042
 16N   3s         0.000101 -0.000132  0.000050 -0.000143  0.000146 -0.079943
 16N   2pz       -0.000004 -0.000016 -0.000012  0.000019  0.000021 -0.000361
 16N   2px       -0.000183 -0.000023  0.000127  0.000058  0.000058  0.015889
 16N   2py       -0.000060 -0.000025  0.000025  0.000038  0.000041  0.004417
 16N   1dz2      -0.000005 -0.000000  0.000004  0.000002  0.000001  0.002602
 16N   1dxz      -0.000008 -0.000003  0.000005  0.000001 -0.000002  0.002901
 16N   1dyz       0.000014  0.000006 -0.000006  0.000002 -0.000007 -0.002969
 16N   1dx2y2     0.000008  0.000000 -0.000007 -0.000004  0.000002 -0.004571
 16N   1dxy       0.000001 -0.000001 -0.000001 -0.000001 -0.000004 -0.000678
 17O   1s        -0.000002 -0.000002  0.000001 -0.000001  0.000003  0.080364
 17O   2s        -0.000032 -0.000030  0.000017 -0.000024  0.000042 -0.173588
 17O   1pz       -0.000000 -0.000002 -0.000000  0.000001 -0.000002  0.056166
 17O   1px       -0.000004  0.000000  0.000001 -0.000001 -0.000004 -0.018941
 17O   1py       -0.000001 -0.000002  0.000000  0.000000 -0.000003  0.055668
 17O   3s         0.000143  0.000178 -0.000093  0.000120 -0.000176 -0.154552
 17O   2pz       -0.000034 -0.000033  0.000018 -0.000021  0.000051  0.021203
 17O   2px        0.000058  0.000005 -0.000016  0.000013 -0.000007 -0.002947
 17O   2py       -0.000019 -0.000035  0.000015 -0.000019  0.000053  0.022300
 17O   1dz2       0.000001  0.000002 -0.000001 -0.000000 -0.000001 -0.002162
 17O   1dxz      -0.000006 -0.000000 -0.000000  0.000001  0.000002  0.001295
 17O   1dyz       0.000008  0.000003 -0.000002  0.000003 -0.000016 -0.006031
 17O   1dx2y2     0.000001 -0.000003  0.000002 -0.000001  0.000005  0.003875
 17O   1dxy      -0.000004 -0.000002  0.000000  0.000002 -0.000000  0.001951
 18H   1s        -0.000015 -0.000010  0.000019  0.000008  0.000012 -0.018517
 18H   2s         0.000077  0.000065 -0.000152  0.000020 -0.000113  0.001899
 19H   1s         0.000018  0.000015 -0.000021 -0.000003 -0.000023 -0.017572
 19H   2s         0.000095  0.000032 -0.000052 -0.000003 -0.000054  0.001487
                     12        13        14        15        16        17   
                  -1.00681  -0.90765  -0.85484  -0.77710  -0.74288  -0.70027
                   2.00000   2.00000   2.00000   2.00000   2.00000   2.00000
                  --------  --------  --------  --------  --------  --------
  0C   1s        -0.000984 -0.001949 -0.082375  0.073150 -0.110269  0.024758
  0C   2s         0.002127  0.004336  0.156027 -0.140158  0.215610 -0.049338
  0C   1pz       -0.000020 -0.000235 -0.020601  0.039291  0.023998  0.057462
  0C   1px        0.000953  0.001846  0.050815 -0.005636  0.040182  0.047438
  0C   1py        0.000261  0.000290 -0.007530  0.041499  0.038308  0.077239
  0C   3s        -0.005661 -0.000425  0.094921 -0.110961  0.158825 -0.039413
  0C   2pz        0.002062  0.000810 -0.003282  0.004047  0.007652  0.009257
  0C   2px       -0.003150 -0.002477  0.004690 -0.003203 -0.003825  0.012759
  0C   2py        0.001329  0.000154 -0.002197  0.003510  0.007300  0.014007
  0C   1dz2      -0.000013 -0.000034 -0.002430 -0.000129 -0.004266 -0.002846
  0C   1dxz      -0.000029 -0.000030 -0.001954  0.003141  0.000119  0.002982
  0C   1dyz       0.000036  0.000070  0.006517 -0.007052  0.005108 -0.004779
  0C   1dx2y2     0.000026  0.000047  0.002944  0.000273  0.004866  0.003737
  0C   1dxy      -0.000006  0.000020  0.001901  0.001438  0.005151  0.004322
  1C   1s        -0.000582 -0.001513 -0.081696  0.104204 -0.000558  0.099790
  1C   2s         0.000808  0.002846  0.154232 -0.201409  0.001117 -0.197604
  1C   1pz        0.000233  0.000475  0.015052 -0.011659  0.069616  0.003746
  1C   1px        0.000242  0.000957  0.043992 -0.028663 -0.064985  0.004222
  1C   1py        0.000328  0.000806  0.029614 -0.021319  0.057178  0.005394
  1C   3s         0.001919  0.002940  0.097968 -0.139618 -0.000787 -0.152170
  1C   2pz        0.002226  0.000557  0.001491  0.000908  0.011563  0.005756
  1C   2px        0.000401  0.000859  0.006677  0.003569 -0.010862  0.014729
  1C   2py        0.002564  0.000867  0.003608  0.002046  0.009456  0.010673
  1C   1dz2       0.000004 -0.000048 -0.002429  0.002306  0.003105  0.001899
  1C   1dxz      -0.000007 -0.000006 -0.001894  0.002339  0.003247  0.001770
  1C   1dyz       0.000120  0.000147  0.006515 -0.007223  0.004898 -0.005395
  1C   1dx2y2    -0.000031  0.000037  0.002908 -0.002786 -0.007424 -0.002346
  1C   1dxy       0.000013  0.000069  0.001951 -0.001592  0.000826 -0.001337
  2C   1s        -0.005167 -0.004707 -0.090308 -0.012164 -0.115036 -0.071780
  2C   2s         0.008169  0.008822  0.170619  0.023875  0.224167  0.140543
  2C   1pz       -0.000468 -0.000904 -0.040792  0.002726 -0.012368 -0.019777
  2C   1px        0.005970  0.003664  0.018682  0.080079 -0.043897  0.037718
  2C   1py        0.001257  0.000093 -0.039257  0.026822 -0.026630 -0.010509
  2C   3s         0.022442  0.007174  0.107891  0.030291  0.169271  0.103041
  2C   2pz       -0.007133 -0.000059 -0.004385 -0.002582  0.006150  0.004914
  2C   2px        0.006690  0.000442 -0.001001  0.006758 -0.009651  0.004387
  2C   2py       -0.005849  0.000064 -0.005132 -0.000839  0.003888  0.006660
  2C   1dz2      -0.000512 -0.000332 -0.002621 -0.000579 -0.003206 -0.000018
  2C   1dxz      -0.000224 -0.000019 -0.002618 -0.004553  0.001217 -0.004785
  2C   1dyz       0.000547  0.000301  0.007115 -0.000718  0.007328  0.004451
  2C   1dx2y2     0.000727  0.000418  0.003418  0.003415  0.002193  0.001441
  2C   1dxy       0.000398  0.000356  0.001625 -0.003515  0.005527 -0.003233
  3C   1s        -0.000788 -0.001708 -0.086170  0.069492  0.111040  0.028725
  3C   2s         0.001274  0.003539  0.163305 -0.133689 -0.217007 -0.056992
  3C   1pz        0.000282  0.000983  0.038585 -0.021260 -0.008459 -0.001575
  3C   1px        0.000392  0.000368 -0.001463  0.055469 -0.054961  0.102935
  3C   1py        0.000426  0.001190  0.041964 -0.006869 -0.025631  0.028874
  3C   3s        -0.006516  0.000727  0.102274 -0.100727 -0.164530 -0.045484
  3C   2pz        0.000439 -0.000292  0.003753 -0.002093  0.006894  0.002154
  3C   2px       -0.005087 -0.000647  0.000857  0.007207 -0.012622  0.020204
  3C   2py       -0.001026 -0.000512  0.004400 -0.000140  0.003805  0.008384
  3C   1dz2      -0.000028 -0.000033 -0.002435  0.001257  0.003045  0.000222
  3C   1dxz      -0.000011  0.000001 -0.001714  0.004996 -0.001355  0.005996
  3C   1dyz       0.000117  0.000129  0.007024 -0.004215 -0.007083 -0.000442
  3C   1dx2y2     0.000017  0.000015  0.002694 -0.003413 -0.001949 -0.003372
  3C   1dxy       0.000040  0.000057  0.002210  0.002287 -0.005445  0.004870
  4C   1s        -0.012980 -0.007965 -0.108456 -0.099092 -0.006539 -0.056106
  4C   2s         0.022828  0.016023  0.207170  0.193477  0.012583  0.111262
  4C   1pz        0.007245  0.002883 -0.015990  0.012868  0.076067 -0.037724
  4C   1px        0.007775  0.001768 -0.030710  0.058599 -0.072703 -0.105725
  4C   1py        0.010268  0.003682 -0.026663  0.031653  0.061973 -0.072938
  4C   3s         0.028522 -0.001392  0.123923  0.138635  0.013999  0.081804
  4C   2pz       -0.002222 -0.004246 -0.002835  0.007892  0.012461 -0.008884
  4C   2px        0.028520 -0.007249 -0.010094  0.027224 -0.010370 -0.029630
  4C   2py        0.006035 -0.006817 -0.006077  0.016794  0.010576 -0.018523
  4C   1dz2      -0.000964 -0.000127 -0.002665 -0.003034 -0.003209  0.002040
  4C   1dxz       0.001256  0.000075 -0.002669  0.000002 -0.003112 -0.006559
  4C   1dyz       0.001828  0.000737  0.007804  0.005147 -0.004479  0.003991
  4C   1dx2y2     0.000285 -0.000034  0.003337  0.003114  0.007396 -0.000482
  4C   1dxy       0.002356  0.000330  0.001763  0.003894 -0.000532 -0.006800
  5C   1s        -0.002719 -0.003138 -0.097137 -0.021041  0.112142 -0.070006
  5C   2s         0.005865  0.006602  0.183425  0.041425 -0.218635  0.136620
  5C   1pz        0.002278  0.001896  0.029238  0.044143  0.027283  0.030286
  5C   1px        0.000286 -0.000794 -0.047107  0.045635  0.035100 -0.005865
  5C   1py        0.002590  0.001848  0.018154  0.062101  0.040377  0.031544
  5C   3s        -0.000755  0.000361  0.117902  0.035408 -0.165376  0.107435
  5C   2pz       -0.004353 -0.002104  0.003923  0.006327  0.007239  0.001981
  5C   2px       -0.009989  0.001207 -0.003035  0.005112 -0.008611  0.011949
  5C   2py       -0.007760 -0.001958  0.003380  0.008445  0.005437  0.005720
  5C   1dz2      -0.000017 -0.000033 -0.002466  0.002172  0.004376  0.000415
  5C   1dxz      -0.000179  0.000030 -0.002224 -0.001653 -0.000223 -0.004241
  5C   1dyz       0.000209  0.000265  0.008206  0.004473 -0.005148  0.005127
  5C   1dx2y2     0.000068 -0.000033  0.002719 -0.003391 -0.004960  0.000367
  5C   1dxy      -0.000097  0.000110  0.002037 -0.002597 -0.005357 -0.003032
  6C   1s        -0.049388 -0.011446 -0.039724 -0.111955 -0.001473  0.114926
  6C   2s         0.094167  0.023460  0.075754  0.223332  0.003541 -0.233570
  6C   1pz        0.041628  0.010797 -0.020637 -0.028125  0.011136 -0.016030
  6C   1px       -0.016318 -0.014572 -0.029565 -0.038132 -0.015668 -0.031019
  6C   1py        0.040603  0.007367 -0.031429 -0.042191  0.007571 -0.026818
  6C   3s         0.025766  0.019620  0.068765  0.168616  0.000253 -0.200315
  6C   2pz        0.005983 -0.005670 -0.008083 -0.013449  0.004303  0.002742
  6C   2px        0.018362 -0.015575 -0.005095  0.011409 -0.003178 -0.028900
  6C   2py        0.012108 -0.010870 -0.010340 -0.011161  0.003789 -0.005792
  6C   1dz2       0.002399  0.000683 -0.002284 -0.002035 -0.000664 -0.002361
[...]
 Operator 0:  Orbitals  -1... -1
-------------------
XC-INTEGRATION GRID
-------------------

General Integration Accuracy     IntAcc      ...  3.670
Radial Grid Type                 RadialGrid  ... Gauss-Chebyshev
Angular Grid (max. acc.)         AngularGrid ... Lebedev-50
Angular grid pruning method      GridPruning ... 3 (G Style)
Weight generation scheme         WeightScheme... Becke
Basis function cutoff            BFCut       ...    1.0000e-11
Integration weight cutoff        WCut        ...    1.0000e-14
Grids for H and He will be reduced by one unit

# of grid points (after initial pruning)     ...  11738 (   0.0 sec)
# of grid points (after weights+screening)   ...  10885 (   0.0 sec)
nearest neighbour list constructed           ...    0.0 sec
Grid point re-assignment to atoms done       ...    0.0 sec
Grid point division into batches done        ...    0.0 sec
Reduced shell lists constructed in    0.1 sec

Total number of grid points                  ...    10885
Total number of batches                      ...      178
Average number of points per batch           ...       61
Average number of grid points per atom       ...      544
Average number of shells per batch           ...    54.19 (64.51%)
Average number of basis functions per batch  ...   112.25 (65.26%)
Average number of large shells per batch     ...    40.72 (75.13%)
Average number of large basis fcns per batch ...    85.49 (76.16%)
Maximum spatial batch extension              ...  16.29, 22.63, 22.63 au
Average spatial batch extension              ...   4.49,  5.12,  5.02 au


---------------
TD-DFT XC SETUP
---------------

DFT calculation                         ... on
Name of the grid file                   ... /Users/lailaal-madhagi/Desktop/Testing_XAS_Analysis_code/BenzylCarbamate//Results_dir_BenzylCarbamate_geom_element_N_2019-11-07_07-11-17//GTE1_BenzylCarbamate_geom_2019-11-07_07-11-29//TDDFT_N-edge.grid_cis.tmp
Exchange functional (SCF)               ... B88
Exchange functional (TD-DFT)            ... B88
   X-Alpha parameter    XAlpha (SCF)    ...  0.666667
   X-Alpha parameter    XAlpha (TD-DFT) ...  0.666667
   Becke's b parameter  XBeta (SCF)     ...  0.004200
   Becke's b parameter  XBeta (TD-DFT)  ...  0.004200
Correlation functional (SCF)            ... LYP
Correlation functional (TD-DFT)         ... LYP
 LDA part of GGA corr.  LDAOpt (SCF)    ... VWN-5
 LDA part of GGA corr.  LDAOpt (TD-DFT) ... VWN-5
Hybrid DFT                              ... on
   Exchange mixing (SCF)                ...  0.200
   Exchange mixing (TD-DFT)             ...  0.200
   GGA exch. scaling(SCF)               ...  0.720
   GGA exch. scaling (TD-DFT)           ...  0.720
   GGA corr. scaling (SCF)              ...  0.810
   GGA corr. scaling (TD-DFT)           ...  0.810

Building densities             ... done
Calculating rho(r) on the grid ... done
Building xc-kernel on the grid ... done
                    *** TD-DFT CALCULATION INITIALIZED ***


------------------------
DAVIDSON-DIAGONALIZATION
------------------------

Dimension of the eigenvalue problem            ...    132
Number of roots to be determined               ...     20
Maximum size of the expansion space            ...    132
Maximum number of iterations                   ...    100
Convergence tolerance for the residual         ...    2.500e-07
Convergence tolerance for the energies         ...    2.500e-07
Orthogonality tolerance                        ...    1.000e-14
Level Shift                                    ...    0.000e+00
Constructing the preconditioner                ... o.k.
Building the initial guess                     ... o.k.
Number of trial vectors determined             ...    132


                       ****Iteration    0****

   Memory handling for direct AO based CIS:
   Memory per vector needed      ...     1 MB
   Memory needed                 ...    54 MB
   Memory available              ...   512 MB
   Number of vectors per batch   ...   512
   Number of batches             ...     1
   Time for densities:     0.015
   Using LibInt in JK Direct
   Time for J+K (Direct):   242.503
   Time for XC-Integration:     4.113
   Time for Sigma-Completion:     0.312
   Size of expansion space: 60
   Lowest Energy          :    14.329261554494
   Maximum Energy change  :    14.662468641703 (vector 19)
   Maximum residual norm  :     0.000271286190

                       ****Iteration    1****
   Time for densities:     0.005
   Using LibInt in JK Direct
   Time for J+K (Direct):    61.798
   Time for XC-Integration:     1.364
   Time for Sigma-Completion:     0.107
   Size of expansion space: 80
   Lowest Energy          :    14.329229327425
   Maximum Energy change  :     0.000204976390 (vector 2)
   Maximum residual norm  :     0.000000281063

                       ****Iteration    2****
   Time for densities:     0.005
   Using LibInt in JK Direct
   Time for J+K (Direct):    61.337
   Time for XC-Integration:     1.373
   Time for Sigma-Completion:     0.112
   Size of expansion space: 100
   Lowest Energy          :    14.329229305275
   Maximum Energy change  :     0.000000145858 (vector 2)

         *** CONVERGENCE OF ENERGIES REACHED ***

Storing the converged CI vectors               ... /Users/lailaal-madhagi/Desktop/Testing_XAS_Analysis_code/BenzylCarbamate//Results_dir_BenzylCarbamate_geom_element_N_2019-11-07_07-11-17//GTE1_BenzylCarbamate_geom_2019-11-07_07-11-29//TDDFT_N-edge.cis1

                 *** DAVIDSON DONE ***

Total time for solving the CIS problem:   373.401sec

------------------------------------
TD-DFT/TDA EXCITED STATES (SINGLETS)
------------------------------------

the weight of the individual excitations are printed if larger than 1.0e-02

STATE  1:  E=  14.329229 au    389.918 eV  3144902.3 cm**-1
     2a ->  40a  :     0.909014 (c=  0.95342228)
     2a ->  42a  :     0.087733 (c= -0.29619832)

STATE  2:  E=  14.339253 au    390.191 eV  3147102.2 cm**-1
     2a ->  41a  :     0.983640 (c= -0.99178615)
     2a ->  42a  :     0.015457 (c=  0.12432738)

STATE  3:  E=  14.348000 au    390.429 eV  3149022.0 cm**-1
     2a ->  40a  :     0.089757 (c=  0.29959538)
     2a ->  41a  :     0.013237 (c=  0.11505017)
     2a ->  42a  :     0.892814 (c=  0.94488849)

STATE  4:  E=  14.360439 au    390.767 eV  3151752.0 cm**-1
     2a ->  43a  :     0.965868 (c= -0.98278586)
     2a ->  46a  :     0.018877 (c= -0.13739268)

STATE  5:  E=  14.392219 au    391.632 eV  3158726.9 cm**-1
     2a ->  44a  :     0.023061 (c= -0.15185948)
     2a ->  45a  :     0.736188 (c=  0.85801400)
     2a ->  48a  :     0.201479 (c=  0.44886413)
     2a ->  49a  :     0.016583 (c= -0.12877450)

STATE  6:  E=  14.430023 au    392.661 eV  3167023.9 cm**-1
     2a ->  43a  :     0.010543 (c=  0.10267979)
     2a ->  44a  :     0.806104 (c=  0.89783271)
     2a ->  46a  :     0.083313 (c= -0.28864003)
     2a ->  48a  :     0.066104 (c=  0.25710790)
     2a ->  49a  :     0.025597 (c= -0.15999044)

STATE  7:  E=  14.438485 au    392.891 eV  3168881.3 cm**-1
     2a ->  43a  :     0.014307 (c=  0.11961006)
     2a ->  44a  :     0.095542 (c= -0.30909841)
     2a ->  46a  :     0.863340 (c= -0.92916079)

STATE  8:  E=  14.451266 au    393.239 eV  3171686.2 cm**-1
     2a ->  44a  :     0.068066 (c=  0.26089421)
     2a ->  45a  :     0.256180 (c=  0.50614198)
     2a ->  48a  :     0.532241 (c= -0.72954840)
     2a ->  49a  :     0.083836 (c=  0.28954520)
     2a ->  50a  :     0.036216 (c=  0.19030494)

STATE  9:  E=  14.462955 au    393.557 eV  3174251.7 cm**-1
     2a ->  47a  :     0.961386 (c=  0.98050300)
     2a ->  52a  :     0.025225 (c=  0.15882378)

STATE 10:  E=  14.486648 au    394.202 eV  3179451.7 cm**-1
     2a ->  46a  :     0.016923 (c= -0.13008724)
     2a ->  48a  :     0.142803 (c=  0.37789235)
     2a ->  49a  :     0.809524 (c=  0.89973557)
     2a ->  50a  :     0.011773 (c=  0.10850302)

STATE 11:  E=  14.499631 au    394.555 eV  3182301.3 cm**-1
     2a ->  48a  :     0.029871 (c=  0.17283118)
     2a ->  49a  :     0.025283 (c= -0.15900685)
     2a ->  50a  :     0.852957 (c=  0.92355684)
     2a ->  51a  :     0.018341 (c= -0.13543074)
     2a ->  54a  :     0.055323 (c=  0.23520930)

STATE 12:  E=  14.514865 au    394.970 eV  3185644.7 cm**-1
     2a ->  49a  :     0.016620 (c=  0.12891936)
     2a ->  50a  :     0.073355 (c= -0.27084169)
     2a ->  51a  :     0.018308 (c= -0.13530843)
     2a ->  53a  :     0.068126 (c=  0.26100975)
     2a ->  54a  :     0.717907 (c=  0.84729416)
     2a ->  55a  :     0.076131 (c=  0.27591797)

STATE 13:  E=  14.521347 au    395.146 eV  3187067.3 cm**-1
     2a ->  47a  :     0.025141 (c=  0.15855782)
     2a ->  52a  :     0.973729 (c= -0.98677727)

STATE 14:  E=  14.529338 au    395.363 eV  3188821.1 cm**-1
     2a ->  50a  :     0.013405 (c= -0.11577907)
     2a ->  51a  :     0.942873 (c= -0.97101658)
     2a ->  53a  :     0.014867 (c= -0.12193216)
     2a ->  54a  :     0.018081 (c= -0.13446575)

STATE 15:  E=  14.544929 au    395.788 eV  3192242.9 cm**-1
     2a ->  53a  :     0.889864 (c=  0.94332608)
     2a ->  54a  :     0.093475 (c= -0.30573675)

STATE 16:  E=  14.583417 au    396.835 eV  3200690.0 cm**-1
     2a ->  54a  :     0.080707 (c= -0.28408915)
     2a ->  55a  :     0.853256 (c=  0.92371836)
     2a ->  58a  :     0.012535 (c= -0.11195848)
     2a ->  59a  :     0.028090 (c= -0.16759975)

STATE 17:  E=  14.620110 au    397.833 eV  3208743.2 cm**-1
     2a ->  54a  :     0.015832 (c=  0.12582460)
     2a ->  56a  :     0.795941 (c=  0.89215546)
     2a ->  57a  :     0.034251 (c=  0.18507056)
     2a ->  59a  :     0.054079 (c= -0.23254965)
     2a ->  60a  :     0.056281 (c=  0.23723676)
     2a ->  61a  :     0.033731 (c= -0.18365893)

STATE 18:  E=  14.639980 au    398.374 eV  3213104.2 cm**-1
     2a ->  56a  :     0.098104 (c=  0.31321555)
     2a ->  57a  :     0.735996 (c= -0.85790185)
     2a ->  59a  :     0.113292 (c=  0.33658903)
     2a ->  60a  :     0.039523 (c= -0.19880453)

STATE 19:  E=  14.655017 au    398.783 eV  3216404.4 cm**-1
     2a ->  56a  :     0.042557 (c= -0.20629403)
     2a ->  57a  :     0.224899 (c= -0.47423500)
     2a ->  59a  :     0.569757 (c= -0.75482251)
     2a ->  60a  :     0.144986 (c=  0.38076994)

STATE 20:  E=  14.662448 au    398.986 eV  3218035.5 cm**-1
     2a ->  55a  :     0.016969 (c=  0.13026675)
     2a ->  58a  :     0.932438 (c=  0.96562817)
     2a ->  60a  :     0.019823 (c=  0.14079339)
     2a ->  61a  :     0.016395 (c= -0.12804116)


-----------------------------
TD-DFT/TDA-EXCITATION SPECTRA
-----------------------------

Center of mass = ( -2.5129,  2.6205,  1.8451)
Calculating the Dipole integrals                  ... done
Transforming integrals                            ... done
Calculating the Linear Momentum integrals         ... done
Transforming integrals                            ... done
Calculating angular momentum integrals            ... done
Transforming integrals                            ... done

-----------------------------------------------------------------------------
         ABSORPTION SPECTRUM VIA TRANSITION ELECTRIC DIPOLE MOMENTS
-----------------------------------------------------------------------------
State   Energy    Wavelength  fosc         T2        TX        TY        TZ  
        (cm-1)      (nm)                 (au**2)    (au)      (au)      (au) 
-----------------------------------------------------------------------------
   1 3144902.3      3.2   0.002826792   0.00030  -0.00345   0.01129  -0.01251
   2 3147102.2      3.2   0.000186707   0.00002   0.00097  -0.00299   0.00311
   3 3149022.0      3.2   0.011411351   0.00119   0.00710  -0.02282   0.02494
   4 3151752.0      3.2   0.008196657   0.00086   0.02139  -0.01123  -0.01650
   5 3158726.9      3.2   0.026925164   0.00281  -0.01992  -0.03892  -0.02991
   6 3167023.9      3.2   0.002431228   0.00025   0.01059  -0.00714  -0.00946
   7 3168881.3      3.2   0.003452642   0.00036   0.01846   0.00394  -0.00159
   8 3171686.2      3.2   0.003593635   0.00037   0.00057   0.01432   0.01295
   9 3174251.7      3.2   0.000178064   0.00002  -0.00093   0.00304  -0.00289
  10 3179451.7      3.1   0.000606871   0.00006  -0.00690   0.00172   0.00349
  11 3182301.3      3.1   0.001428851   0.00015   0.01183   0.00269  -0.00086
  12 3185644.7      3.1   0.012284738   0.00127   0.03455   0.00108  -0.00864
  13 3187067.3      3.1   0.000176634   0.00002   0.00054  -0.00287   0.00312
  14 3188821.1      3.1   0.000186880   0.00002  -0.00228   0.00240   0.00289
  15 3192242.9      3.1   0.000009728   0.00000  -0.00070  -0.00061  -0.00038
  16 3200690.0      3.1   0.007374543   0.00076   0.02682   0.00590  -0.00214
  17 3208743.2      3.1   0.003318276   0.00034  -0.00960   0.01019   0.01202
  18 3213104.2      3.1   0.000534972   0.00005   0.00241  -0.00482  -0.00508
  19 3216404.4      3.1   0.001145778   0.00012  -0.00380   0.00694   0.00739
  20 3218035.5      3.1   0.001413374   0.00014  -0.01175  -0.00224   0.00124

-----------------------------------------------------------------------------
         ABSORPTION SPECTRUM VIA TRANSITION VELOCITY DIPOLE MOMENTS
-----------------------------------------------------------------------------
State   Energy    Wavelength   fosc        P2         PX        PY        PZ  
        (cm-1)      (nm)                 (au**2)     (au)      (au)      (au) 
-----------------------------------------------------------------------------
   1 3144902.3      3.2   0.002695442   0.05794   0.04829  -0.15799   0.17505
   2 3147102.2      3.2   0.000179670   0.00386  -0.01375   0.04201  -0.04371
   3 3149022.0      3.2   0.011003349   0.23681  -0.10015   0.32149  -0.35133
   4 3151752.0      3.2   0.008350663   0.17988  -0.31411   0.15885   0.23661
   5 3158726.9      3.2   0.026608779   0.57444   0.28628   0.55666   0.42733
   6 3167023.9      3.2   0.002390454   0.05174  -0.14975   0.10371   0.13624
   7 3168881.3      3.2   0.003452312   0.07477  -0.26626  -0.05846   0.02138
   8 3171686.2      3.2   0.003714386   0.08052  -0.00596  -0.21017  -0.19055
   9 3174251.7      3.2   0.000150062   0.00326   0.01251  -0.04062   0.03806
  10 3179451.7      3.1   0.000603165   0.01311   0.09848  -0.02677  -0.05188
  11 3182301.3      3.1   0.001291292   0.02808  -0.16245  -0.04025   0.00873
  12 3185644.7      3.1   0.011394957   0.24809  -0.48290  -0.01456   0.12119
  13 3187067.3      3.1   0.000152123   0.00331  -0.00706   0.03871  -0.04202
  14 3188821.1      3.1   0.000188968   0.00412   0.03074  -0.03663  -0.04280
  15 3192242.9      3.1   0.000012863   0.00028   0.01020   0.01104   0.00739
  16 3200690.0      3.1   0.007246731   0.15852  -0.38726  -0.08804   0.02834
  17 3208743.2      3.1   0.003251109   0.07130   0.13588  -0.14936  -0.17472
  18 3213104.2      3.1   0.000514639   0.01130  -0.03396   0.06944   0.07298
  19 3216404.4      3.1   0.001151718   0.02532   0.05621  -0.10183  -0.10858
  20 3218035.5      3.1   0.001471717   0.03237   0.17567   0.03470  -0.01748

-------------------------------------------------------------------
                             CD SPECTRUM
-------------------------------------------------------------------
State  Energy     Wavelength     R         MX        MY        MZ   
       (cm-1)       (nm)     (1e40*cgs)   (au)      (au)      (au)  
-------------------------------------------------------------------
   1 3144902.3      3.2      0.00122  -0.43888   0.41941   0.49960
   2 3147102.2      3.2     -0.00033   0.11178  -0.10327  -0.13443
   3 3149022.0      3.2     -0.00176   0.88451  -0.83894  -1.01982
   4 3151752.0      3.2      0.00270  -0.27423   0.89170  -0.96271
   5 3158726.9      3.2      0.00085  -0.26427   0.87956  -0.96872
   6 3167023.9      3.2      0.00064  -0.14742   0.48681  -0.53262
   7 3168881.3      3.2      0.00011  -0.08717   0.28442  -0.30797
   8 3171686.2      3.2      0.00147   0.15034  -0.49614   0.54251
   9 3174251.7      3.2     -0.00244  -0.10094   0.08952   0.12869
  10 3179451.7      3.1      0.00012   0.06700  -0.22075   0.24106
  11 3182301.3      3.1     -0.00025  -0.04965   0.16223  -0.17589
  12 3185644.7      3.1     -0.00031  -0.22259   0.73247  -0.79899
  13 3187067.3      3.1      0.00036   0.10612  -0.10458  -0.11419
  14 3188821.1      3.1      0.00037   0.04284  -0.13896   0.14972
  15 3192242.9      3.1      0.00002  -0.00331   0.01057  -0.01122
  16 3200690.0      3.1     -0.00104  -0.12453   0.40624  -0.43981
  17 3208743.2      3.1      0.00104   0.17504  -0.57619   0.62869
  18 3213104.2      3.1     -0.00001  -0.06711   0.22127  -0.24175
  19 3216404.4      3.1      0.00002   0.10107  -0.33390   0.36547
  20 3218035.5      3.1      0.00003   0.05999  -0.19631   0.21313

Total run time:      373.837 sec

           *** ORCA-CIS/TD-DFT FINISHED WITHOUT ERROR ***

-----------------------
CIS/TD-DFT TOTAL ENERGY
-----------------------

    E(SCF)  =   -515.170630216 Eh
    DE(CIS) =     14.329229305 Eh (Root  1)
    ----------------------------- ---------
    E(tot)  =   -500.841400911 Eh


-------------------------   --------------------
FINAL SINGLE POINT ENERGY      -500.841400911216
-------------------------   --------------------


                            ***************************************
                            *     ORCA property calculations      *
                            ***************************************

                                    ---------------------
                                    Active property flags
                                    ---------------------
   (+) Dipole Moment


------------------------------------------------------------------------------
                       ORCA ELECTRIC PROPERTIES CALCULATION
------------------------------------------------------------------------------

Dipole Moment Calculation                       ... on
Quadrupole Moment Calculation                   ... off
Polarizability Calculation                      ... off
GBWName                                         ... /Users/lailaal-madhagi/Desktop/Testing_XAS_Analysis_code/BenzylCarbamate//Results_dir_BenzylCarbamate_geom_element_N_2019-11-07_07-11-17//GTE1_BenzylCarbamate_geom_2019-11-07_07-11-29//TDDFT_N-edge.gbw
Electron density file                           ... /Users/lailaal-madhagi/Desktop/Testing_XAS_Analysis_code/BenzylCarbamate//Results_dir_BenzylCarbamate_geom_element_N_2019-11-07_07-11-17//GTE1_BenzylCarbamate_geom_2019-11-07_07-11-29//TDDFT_N-edge.scfp.tmp
The origin for moment calculation is the CENTER OF MASS  = (-2.512944,  2.620497  1.845104)

-------------
DIPOLE MOMENT
-------------
                                X             Y             Z
Electronic contribution:      0.10881       3.68367       3.34560
Nuclear contribution   :      0.97495      -4.65162      -4.53704
                        -----------------------------------------
Total Dipole Moment    :      1.08376      -0.96795      -1.19143
                        -----------------------------------------
Magnitude (a.u.)       :      1.87909
Magnitude (Debye)      :      4.77627



--------------------
Rotational spectrum 
--------------------
 
Rotational constants in cm-1:     0.114033     0.017166     0.014962 
Rotational constants in MHz :  3418.637691   514.623202   448.561175 

 Dipole components along the rotational axes: 
x,y,z [a.u.] :    -0.555117    -1.795199    -0.009092 
x,y,z [Debye]:    -1.410995    -4.563033    -0.023109 

 

Timings for individual modules:

Sum of individual times         ...      437.091 sec (=   7.285 min)
GTO integral calculation        ...        0.330 sec (=   0.005 min)   0.1 %
SCF iterations                  ...       62.270 sec (=   1.038 min)  14.2 %
CIS module                      ...      374.491 sec (=   6.242 min)  85.7 %
                             ****ORCA TERMINATED NORMALLY****
TOTAL RUN TIME: 0 days 0 hours 7 minutes 17 seconds 246 msec
