
                                 *****************
                                 * O   R   C   A *
                                 *****************

           --- An Ab Initio, DFT and Semiempirical electronic structure package ---

                  #######################################################
                  #                        -***-                        #
                  #          Department of theory and spectroscopy      #
                  #               Directorship: Frank Neese             #
                  #        Max Planck Institute fuer Kohlenforschung    #
                  #                Kaiser Wilhelm Platz 1               #
                  #                 D-45470 Muelheim/Ruhr               #
                  #                      Germany                        #
                  #                                                     #
                  #                  All rights reserved                #
                  #                        -***-                        #
                  #######################################################


                         Program Version 4.1.0  - RELEASE  -


 With contributions from (in alphabetic order):
   Daniel Aravena         : Magnetic Properties
   Michael Atanasov       : Ab Initio Ligand Field Theory
   Alexander A. Auer      : GIAO ZORA
   Ute Becker             : Parallelization
   Giovanni Bistoni       : ED, Open-shell LED
   Martin Brehm           : Molecular dynamics
   Dmytro Bykov           : SCF Hessian
   Vijay G. Chilkuri      : MRCI spin determinant printing
   Dipayan Datta          : RHF DLPNO-CCSD density
   Achintya Kumar Dutta   : EOM-CC, STEOM-CC
   Dmitry Ganyushin       : Spin-Orbit,Spin-Spin,Magnetic field MRCI
   Miquel Garcia          : C-PCM Hessian
   Yang Guo               : DLPNO-NEVPT2, CIM, IAO-localization
   Andreas Hansen         : Spin unrestricted coupled pair/coupled cluster methods
   Benjamin Helmich-Paris : CASSCF linear response (MC-RPA)
   Lee Huntington         : MR-EOM, pCC
   Robert Izsak           : Overlap fitted RIJCOSX, COSX-SCS-MP3, EOM
   Christian Kollmar      : KDIIS, OOCD, Brueckner-CCSD(T), CCSD density
   Simone Kossmann        : Meta GGA functionals, TD-DFT gradient, OOMP2, MP2 Hessian
   Martin Krupicka        : AUTO-CI
   Lucas Lang             : DCDCAS
   Dagmar Lenk            : GEPOL surface, SMD
   Dimitrios Liakos       : Extrapolation schemes; parallel MDCI
   Dimitrios Manganas     : ROCIS; embedding schemes
   Dimitrios Pantazis     : SARC Basis sets
   Taras Petrenko         : DFT Hessian,TD-DFT gradient, ASA, ECA, R-Raman, ABS, FL, XAS/XES, NRVS
   Peter Pinski           : DLPNO-MP2, DLPNO-MP2 Gradient
   Christoph Reimann      : Effective Core Potentials
   Marius Retegan         : Local ZFS, SOC
   Christoph Riplinger    : Optimizer, TS searches, QM/MM, DLPNO-CCSD(T), (RO)-DLPNO pert. Triples
   Tobias Risthaus        : Range-separated hybrids, TD-DFT gradient, RPA, STAB
   Michael Roemelt        : Restricted open shell CIS
   Masaaki Saitow         : Open-shell DLPNO
   Barbara Sandhoefer     : DKH picture change effects
   Avijit Sen             : IP-ROCIS
   Kantharuban Sivalingam : CASSCF convergence, NEVPT2, FIC-MRCI
   Bernardo de Souza      : ESD, SOC TD-DFT
   Georgi Stoychev        : AutoAux, RI-MP2 NMR
   Willem Van den Heuvel  : Paramagnetic NMR
   Boris Wezisla          : Elementary symmetry handling
   Frank Wennmohs         : Technical directorship


 We gratefully acknowledge several colleagues who have allowed us to
 interface, adapt or use parts of their codes:
   Stefan Grimme, W. Hujo, H. Kruse,             : VdW corrections, initial TS optimization,
                  C. Bannwarth                     DFT functionals, gCP, sTDA/sTD-DF
   Ed Valeev                                     : LibInt (2-el integral package), F12 methods
   Garnet Chan, S. Sharma, J. Yang, R. Olivares  : DMRG
   Ulf Ekstrom                                   : XCFun DFT Library
   Mihaly Kallay                                 : mrcc  (arbitrary order and MRCC methods)
   Andreas Klamt, Michael Diedenhofen            : otool_cosmo (COSMO solvation model)
   Jiri Pittner, Ondrej Demel                    : Mk-CCSD
   Frank Weinhold                                : gennbo (NPA and NBO analysis)
   Christopher J. Cramer and Donald G. Truhlar   : smd solvation model
   Lars Goerigk                                  : TD-DFT with DH, B97 family of functionals
   V. Asgeirsson, H. Jonsson                     : NEB implementation
   FAccTs GmbH                                   : IRC, NEB, NEB-TS, Multilevel


 Your calculation uses the libint2 library for the computation of 2-el integrals
 For citations please refer to: http://libint.valeyev.net

 This ORCA versions uses:
   CBLAS   interface :  Fast vector & matrix operations
   LAPACKE interface :  Fast linear algebra routines
   SCALAPACK package :  Parallel linear algebra routines




***************************************
The coordinates will be read from file: /Users/lailaal-madhagi/Desktop/Testing_XAS_Analysis_code/Aniline//Results_dir_Aniline_geom_element_N_2019-11-04_20-19-58//GTE1_Aniline_geom_2019-11-04_20-20-15//opt.xyz
***************************************


----- Orbital basis set information -----
Your calculation utilizes the basis: 6-31G*
   H-He, Li-Ne : W. J. Hehre, R. Ditchfield and J.A. Pople, J. Chem. Phys. 56, 2257 (1972).
                 Note: He and Ne are unpublished basis sets taken from the Gaussian program.
                 Note: Li and B from J. D. Dill and J. A. Pople, J. Chem. Phys. 62, 2921 (1975).
   Na - Ar     : M. M. Francl, W. J. Pietro, W. J. Hehre, J. S. Binkley, M. S. Gordon, 
                 D. J. DeFrees and J. A. Pople, J. Chem. Phys. 77, 3654 (1982).
   K - Zn      : V. A. Rassolov, J. A. Pople, M. A. Ratner, and T. L. Windus, J. Chem. Phys. 109, 1223 (1998).

================================================================================
                                        WARNINGS
                       Please study these warnings very carefully!
================================================================================


INFO   : the flag for use of LIBINT has been found!

================================================================================
                                       INPUT FILE
================================================================================
NAME = /Users/lailaal-madhagi/Desktop/Testing_XAS_Analysis_code/Aniline//Results_dir_Aniline_geom_element_N_2019-11-04_20-19-58//GTE1_Aniline_geom_2019-11-04_20-20-15//freq.inp
|  1> ! B3LYP 6-31G* TIGHTSCF Grid3 FinalGrid5 Freq 
|  2> !NormalPrint 
|  3> %output 
|  4> Print[P_Basis] 2 
|  5> Print[P_MOS] 1 
|  6> end 
|  7> *xyzfile 0 1 /Users/lailaal-madhagi/Desktop/Testing_XAS_Analysis_code/Aniline//Results_dir_Aniline_geom_element_N_2019-11-04_20-19-58//GTE1_Aniline_geom_2019-11-04_20-20-15//opt.xyz                           ****END OF INPUT****
================================================================================

                       ****************************
                       * Single Point Calculation *
                       ****************************

---------------------------------
CARTESIAN COORDINATES (ANGSTROEM)
---------------------------------
  C     -2.559171    1.002012    0.054227
  C     -1.167653    1.042633    0.006117
  C     -3.244660   -0.215382    0.022442
  C     -0.420673   -0.148840   -0.075933
  C     -2.506585   -1.399257   -0.058912
  C     -1.114722   -1.374275   -0.107793
  N      0.958174   -0.116433   -0.123859
  H      1.458415    0.756344   -0.103549
  H      1.495968   -0.964610   -0.185453
  H     -3.112791    1.936093    0.117397
  H     -0.647954    1.998522    0.031689
  H     -3.018656   -2.358451   -0.084919
  H     -4.329833   -0.240919    0.060182
  H     -0.553659   -2.304758   -0.171136

----------------------------
CARTESIAN COORDINATES (A.U.)
----------------------------
  NO LB      ZA    FRAG     MASS         X           Y           Z
   0 C     6.0000    0    12.011   -4.836132    1.893529    0.102474
   1 C     6.0000    0    12.011   -2.206545    1.970290    0.011559
   2 C     6.0000    0    12.011   -6.131519   -0.407014    0.042410
   3 C     6.0000    0    12.011   -0.794956   -0.281266   -0.143493
   4 C     6.0000    0    12.011   -4.736759   -2.644213   -0.111328
   5 C     6.0000    0    12.011   -2.106520   -2.597004   -0.203699
   6 N     7.0000    0    14.007    1.810687   -0.220026   -0.234059
   7 H     1.0000    0     1.008    2.756005    1.429283   -0.195680
   8 H     1.0000    0     1.008    2.826970   -1.822849   -0.350455
   9 H     1.0000    0     1.008   -5.882322    3.658686    0.221848
  10 H     1.0000    0     1.008   -1.224456    3.776660    0.059884
  11 H     1.0000    0     1.008   -5.704432   -4.456826   -0.160474
  12 H     1.0000    0     1.008   -8.182198   -0.455270    0.113728
  13 H     1.0000    0     1.008   -1.046264   -4.355361   -0.323399

--------------------------------
INTERNAL COORDINATES (ANGSTROEM)
--------------------------------
 C      0   0   0     0.000000000000     0.00000000     0.00000000
 C      1   0   0     1.392941372596     0.00000000     0.00000000
 C      1   2   0     1.397481895928   120.97297666     0.00000000
 C      2   1   3     1.408658526522   120.46969701     0.00000000
 C      3   1   2     1.397473469101   118.70124067     0.00000000
 C      5   3   1     1.392944966167   120.96996345     0.00000000
 N      4   2   1     1.380060035057   120.79533479   180.00533482
 H      7   4   2     1.006177076440   121.09111918   359.85085971
 H      7   4   2     1.006191104637   121.08747845   180.19704666
 H      1   2   3     1.087654352792   119.04164623   180.00021653
 H      2   1   3     1.088332102946   120.12127484   179.99691055
 H      5   3   1     1.087632658538   119.98979544   179.99736966
 H      3   1   2     1.086129274500   120.64894428   180.00389010
 H      6   5   3     1.088394461760   120.11952292   180.00516812

---------------------------
INTERNAL COORDINATES (A.U.)
---------------------------
 C      0   0   0     0.000000000000     0.00000000     0.00000000
 C      1   0   0     2.632277714815     0.00000000     0.00000000
 C      1   2   0     2.640858060417   120.97297666     0.00000000
 C      2   1   3     2.661978831339   120.46969701     0.00000000
 C      3   1   2     2.640842136022   118.70124067     0.00000000
 C      5   3   1     2.632284505679   120.96996345     0.00000000
 N      4   2   1     2.607935514627   120.79533479   180.00533482
 H      7   4   2     1.901399116701   121.09111918   359.85085971
 H      7   4   2     1.901425626151   121.08747845   180.19704666
 H      1   2   3     2.055368855144   119.04164623   180.00021653
 H      2   1   3     2.056649617322   120.12127484   179.99691055
 H      5   3   1     2.055327858945   119.98979544   179.99736966
 H      3   1   2     2.052486874840   120.64894428   180.00389010
 H      6   5   3     2.056767458402   120.11952292   180.00516812

---------------------
BASIS SET INFORMATION
---------------------
There are 3 groups of distinct atoms

 Group   1 Type C   : 10s4p1d contracted to 3s2p1d pattern {631/31/1}
 Group   2 Type N   : 10s4p1d contracted to 3s2p1d pattern {631/31/1}
 Group   3 Type H   : 4s contracted to 2s pattern {31}

Atom   0C    basis set group =>   1
Atom   1C    basis set group =>   1
Atom   2C    basis set group =>   1
Atom   3C    basis set group =>   1
Atom   4C    basis set group =>   1
Atom   5C    basis set group =>   1
Atom   6N    basis set group =>   2
Atom   7H    basis set group =>   3
Atom   8H    basis set group =>   3
Atom   9H    basis set group =>   3
Atom  10H    basis set group =>   3
Atom  11H    basis set group =>   3
Atom  12H    basis set group =>   3
Atom  13H    basis set group =>   3

-------------------------
BASIS SET IN INPUT FORMAT
-------------------------

 # Basis set for element : H 
 NewGTO H 
 S 3 
   1      18.7311370000      0.0334945995
   2       2.8253937000      0.2347269467
   3       0.6401217000      0.8137573184
 S 1 
   1       0.1612778000      1.0000000000
  end;

 # Basis set for element : C 
 NewGTO C 
 S 6 
   1    3047.5249000000      0.0018347002
   2     457.3695100000      0.0140373012
   3     103.9486900000      0.0688426061
   4      29.2101550000      0.2321844206
   5       9.2866630000      0.4679413416
   6       3.1639270000      0.3623120322
 S 3 
   1       7.8682724000     -0.1193324086
   2       1.8812885000     -0.1608542116
   3       0.5442493000      1.1434564826
 P 3 
   1       7.8682724000      0.0689990956
   2       1.8812885000      0.3164239798
   3       0.5442493000      0.7443082524
 S 1 
   1       0.1687144000      1.0000000000
 P 1 
   1       0.1687144000      1.0000000000
 D 1 
   1       0.8000000000      1.0000000000
  end;

 # Basis set for element : N 
 NewGTO N 
 S 6 
   1    4173.5110000000      0.0018347994
   2     627.4579000000      0.0139949958
   3     142.9021000000      0.0685869792
   4      40.2343300000      0.2322409295
   5      12.8202100000      0.4690698576
   6       4.3904370000      0.3604548906
 S 3 
   1      11.6263580000     -0.1149610229
   2       2.7162800000     -0.1691180337
   3       0.7722180000      1.1458522281
 P 3 
   1      11.6263580000      0.0675800232
   2       2.7162800000      0.3239071114
   3       0.7722180000      0.7408952549
 S 1 
   1       0.2120313000      1.0000000000
 P 1 
   1       0.2120313000      1.0000000000
 D 1 
   1       0.8000000000      1.0000000000
  end;

------------------------------------------------------------------------------
                           ORCA GTO INTEGRAL CALCULATION
------------------------------------------------------------------------------

                         BASIS SET STATISTICS AND STARTUP INFO

 # of primitive gaussian shells          ...  133
 # of primitive gaussian functions       ...  217
 # of contracted shells                  ...   56
 # of contracted basis functions         ...  112
 Highest angular momentum                ...    2
 Maximum contraction depth               ...    6
 Integral package used                   ... LIBINT
 Integral threshhold            Thresh   ...  2.500e-11
 Primitive cut-off              TCut     ...  2.500e-12


------------------------------ INTEGRAL EVALUATION ----------------------------


 * One electron integrals 
 Pre-screening matrix                    ... done
 Shell pair data                         ... done (   0.001 sec)

-------------------------------------------------------------------------------
                                 ORCA SCF
-------------------------------------------------------------------------------

------------
SCF SETTINGS
------------
Hamiltonian:
 Density Functional     Method          .... DFT(GTOs)
 Exchange Functional    Exchange        .... B88
   X-Alpha parameter    XAlpha          ....  0.666667
   Becke's b parameter  XBeta           ....  0.004200
 Correlation Functional Correlation     .... LYP
 LDA part of GGA corr.  LDAOpt          .... VWN-5
 Gradients option       PostSCFGGA      .... off
 Hybrid DFT is turned on
   Fraction HF Exchange ScalHFX         ....  0.200000
   Scaling of DF-GGA-X  ScalDFX         ....  0.720000
   Scaling of DF-GGA-C  ScalDFC         ....  0.810000
   Scaling of DF-LDA-C  ScalLDAC        ....  1.000000
   Perturbative correction              ....  0.000000
   Density functional embedding theory  .... OFF
   NL short-range parameter             ....  4.800000


General Settings:
 Integral files         IntName         .... /Users/lailaal-madhagi/Desktop/Testing_XAS_Analysis_code/Aniline//Results_dir_Aniline_geom_element_N_2019-11-04_20-19-58//GTE1_Aniline_geom_2019-11-04_20-20-15//freq
 Hartree-Fock type      HFTyp           .... RHF
 Total Charge           Charge          ....    0
 Multiplicity           Mult            ....    1
 Number of Electrons    NEL             ....   50
 Basis Dimension        Dim             ....  112
 Nuclear Repulsion      ENuc            ....    271.0168870048 Eh

Convergence Acceleration:
 DIIS                   CNVDIIS         .... on
   Start iteration      DIISMaxIt       ....    12
   Startup error        DIISStart       ....  0.200000
   # of expansion vecs  DIISMaxEq       ....     5
   Bias factor          DIISBfac        ....   1.050
   Max. coefficient     DIISMaxC        ....  10.000
 Newton-Raphson         CNVNR           .... off
 SOSCF                  CNVSOSCF        .... on
   Start iteration      SOSCFMaxIt      ....   150
   Startup grad/error   SOSCFStart      ....  0.003300
 Level Shifting         CNVShift        .... on
   Level shift para.    LevelShift      ....    0.2500
   Turn off err/grad.   ShiftErr        ....    0.0010
 Zerner damping         CNVZerner       .... off
 Static damping         CNVDamp         .... on
   Fraction old density DampFac         ....    0.7000
   Max. Damping (<1)    DampMax         ....    0.9800
   Min. Damping (>=0)   DampMin         ....    0.0000
   Turn off err/grad.   DampErr         ....    0.1000
 Fernandez-Rico         CNVRico         .... off

SCF Procedure:
 Maximum # iterations   MaxIter         ....   125
 SCF integral mode      SCFMode         .... Direct
   Integral package                     .... LIBINT
 Reset frequency        DirectResetFreq ....    20
 Integral Threshold     Thresh          ....  2.500e-11 Eh
 Primitive CutOff       TCut            ....  2.500e-12 Eh

Convergence Tolerance:
 Convergence Check Mode ConvCheckMode   .... Total+1el-Energy
 Convergence forced     ConvForced      .... 0
 Energy Change          TolE            ....  1.000e-08 Eh
 1-El. energy change                    ....  1.000e-05 Eh
 Orbital Gradient       TolG            ....  1.000e-05
 Orbital Rotation angle TolX            ....  1.000e-05
 DIIS Error             TolErr          ....  5.000e-07


Diagonalization of the overlap matrix:
Smallest eigenvalue                        ... 4.874e-04
Time for diagonalization                   ...    0.002 sec
Threshold for overlap eigenvalues          ... 1.000e-08
Number of eigenvalues below threshold      ... 0
Time for construction of square roots      ...    0.002 sec
Total time needed                          ...    0.004 sec

-------------------
DFT GRID GENERATION
-------------------

General Integration Accuracy     IntAcc      ...  4.340
Radial Grid Type                 RadialGrid  ... Gauss-Chebyshev
Angular Grid (max. acc.)         AngularGrid ... Lebedev-194
Angular grid pruning method      GridPruning ... 3 (G Style)
Weight generation scheme         WeightScheme... Becke
Basis function cutoff            BFCut       ...    1.0000e-11
Integration weight cutoff        WCut        ...    1.0000e-14
Grids for H and He will be reduced by one unit

# of grid points (after initial pruning)     ...  33688 (   0.0 sec)
# of grid points (after weights+screening)   ...  31220 (   0.0 sec)
nearest neighbour list constructed           ...    0.0 sec
Grid point re-assignment to atoms done       ...    0.0 sec
Grid point division into batches done        ...    0.0 sec
Reduced shell lists constructed in    0.2 sec

Total number of grid points                  ...    31220
Total number of batches                      ...      495
Average number of points per batch           ...       63
Average number of grid points per atom       ...     2230
Average number of shells per batch           ...    40.84 (72.93%)
Average number of basis functions per batch  ...    84.23 (75.21%)
Average number of large shells per batch     ...    32.67 (79.99%)
Average number of large basis fcns per batch ...    67.67 (80.34%)
Maximum spatial batch extension              ...  20.98, 18.77, 22.17 au
Average spatial batch extension              ...   2.97,  3.01,  3.88 au

Time for grid setup =    0.249 sec

------------------------------
INITIAL GUESS: MODEL POTENTIAL
------------------------------
Loading Hartree-Fock densities                     ... done
Calculating cut-offs                               ... done
Setting up the integral package                    ... done
Initializing the effective Hamiltonian             ... done
Starting the Coulomb interaction                   ... done (   0.0 sec)
Reading the grid                                   ... done
Mapping shells                                     ... done
Starting the XC term evaluation                    ... done (   0.2 sec)
  promolecular density results
     # of electrons  =     49.994848605
     EX              =    -39.500548804
     EC              =     -1.658356958
     EX+EC           =    -41.158905762
Transforming the Hamiltonian                       ... done (   0.0 sec)
Diagonalizing the Hamiltonian                      ... done (   0.0 sec)
Back transforming the eigenvectors                 ... done (   0.0 sec)
Now organizing SCF variables                       ... done
                      ------------------
                      INITIAL GUESS DONE (   0.6 sec)
                      ------------------
--------------
SCF ITERATIONS
--------------
               ***  Starting incremental Fock matrix formation  ***

                         ----------------------------
                         !        ITERATION     0   !
                         ----------------------------
   Total Energy        :    -287.198304833449 Eh
   Energy Change       :    -287.198304833449 Eh
   MAX-DP              :       0.081281128540
   RMS-DP              :       0.002946432220
   Actual Damping      :       0.7000
   Actual Level Shift  :       0.2500 Eh
   Int. Num. El.       :    49.99854707 (UP=   24.99927354 DN=   24.99927354)
   Exchange            :   -32.47913953
   Correlation         :    -1.98847153


                         ----------------------------
                         !        ITERATION     1   !
                         ----------------------------
   Total Energy        :    -287.294109824992 Eh
   Energy Change       :      -0.095804991543 Eh
   MAX-DP              :       0.050310046599
   RMS-DP              :       0.002150517020
   Actual Damping      :       0.7000
   Actual Level Shift  :       0.2500 Eh
   Int. Num. El.       :    49.99835142 (UP=   24.99917571 DN=   24.99917571)
   Exchange            :   -32.23451121
   Correlation         :    -1.97760506

                               ***Turning on DIIS***

                         ----------------------------
                         !        ITERATION     2   !
                         ----------------------------
   Total Energy        :    -287.335204492123 Eh
   Energy Change       :      -0.041094667131 Eh
   MAX-DP              :       0.069378329660
   RMS-DP              :       0.003614513249
   Actual Damping      :       0.0000
   Actual Level Shift  :       0.2500 Eh
   Int. Num. El.       :    49.99822931 (UP=   24.99911465 DN=   24.99911465)
   Exchange            :   -32.06904707
   Correlation         :    -1.96993635
   DIIS-Error          :       0.043057948888


                         ----------------------------
                         !        ITERATION     3   !
                         ----------------------------
   Total Energy        :    -287.393231705940 Eh
   Energy Change       :      -0.058027213817 Eh
   MAX-DP              :       0.035430593994
   RMS-DP              :       0.001473780518
   Actual Damping      :       0.0000
   Actual Level Shift  :       0.2500 Eh
   Int. Num. El.       :    49.99804923 (UP=   24.99902462 DN=   24.99902462)
   Exchange            :   -31.81473210
   Correlation         :    -1.95775922
   DIIS-Error          :       0.058646722240
   DIIS coefficients:
      0.57821   0.42179


                         ----------------------------
                         !        ITERATION     4   !
                         ----------------------------
   Total Energy        :    -287.408599498617 Eh
   Energy Change       :      -0.015367792677 Eh
   MAX-DP              :       0.011757085824
   RMS-DP              :       0.000486674801
   Actual Damping      :       0.0000
   Actual Level Shift  :       0.2500 Eh
   Int. Num. El.       :    49.99812106 (UP=   24.99906053 DN=   24.99906053)
   Exchange            :   -31.91608034
   Correlation         :    -1.96287906
   DIIS-Error          :       0.009458316945
   DIIS coefficients:
      0.16569  -0.05016   0.88447


                         ----------------------------
                         !        ITERATION     5   !
                         ----------------------------
   Total Energy        :    -287.409435792108 Eh
   Energy Change       :      -0.000836293490 Eh
   MAX-DP              :       0.003822742578
   RMS-DP              :       0.000148397987
   Actual Damping      :       0.0000
   Actual Level Shift  :       0.2500 Eh
   Int. Num. El.       :    49.99813177 (UP=   24.99906589 DN=   24.99906589)
   Exchange            :   -31.94069763
   Correlation         :    -1.96414169
   DIIS-Error          :       0.004720355407
   DIIS coefficients:
      0.05279  -0.02802   0.19127   0.78395

                      *** Initiating the SOSCF procedure ***
                           *** Shutting down DIIS ***
                      *** Re-Reading the Fockian *** 
                      *** Removing any level shift *** 

                         ----------------------------
                         !        ITERATION     6   !
                         ----------------------------
   Total Energy        :    -287.409484300349 Eh
   Energy Change       :      -0.000048508241 Eh
   MAX-DP              :       0.001521888230
   RMS-DP              :       0.000063711635
   Orbital gradient    :       0.000209109835
   Orbital Rotation    :       0.000209109835
   Actual Damping      :       0.0000
   Int. Num. El.       :    49.99813229 (UP=   24.99906615 DN=   24.99906615)
   Exchange            :   -31.94669875
   Correlation         :    -1.96441095

               *** Restarting incremental Fock matrix formation ***

                         ----------------------------
                         !        ITERATION     7   !
                         ----------------------------
   Total Energy        :    -287.409487675896 Eh
   Energy Change       :      -0.000003375548 Eh
   MAX-DP              :       0.000201413359
   RMS-DP              :       0.000011969099
   Orbital gradient    :       0.000075867087
   Orbital Rotation    :       0.000300353312
   Actual Damping      :       0.0000
   Int. Num. El.       :    49.99813098 (UP=   24.99906549 DN=   24.99906549)
   Exchange            :   -31.94750005
   Correlation         :    -1.96445922


                         ----------------------------
                         !        ITERATION     8   !
                         ----------------------------
   Total Energy        :    -287.409487597571 Eh
   Energy Change       :       0.000000078325 Eh
   MAX-DP              :       0.000160252624
   RMS-DP              :       0.000006524810
   Orbital gradient    :       0.000118397236
   Orbital Rotation    :       0.000219153203
   Actual Damping      :       0.0000
   Int. Num. El.       :    49.99813068 (UP=   24.99906534 DN=   24.99906534)
   Exchange            :   -31.94712020
   Correlation         :    -1.96443828


                         ----------------------------
                         !        ITERATION     9   !
                         ----------------------------
   Total Energy        :    -287.409487791520 Eh
   Energy Change       :      -0.000000193949 Eh
   MAX-DP              :       0.000068130770
   RMS-DP              :       0.000002662833
   Orbital gradient    :       0.000017433607
   Orbital Rotation    :       0.000057388758
   Actual Damping      :       0.0000
   Int. Num. El.       :    49.99813066 (UP=   24.99906533 DN=   24.99906533)
   Exchange            :   -31.94724076
   Correlation         :    -1.96444591


                         ----------------------------
                         !        ITERATION    10   !
                         ----------------------------
   Total Energy        :    -287.409487784370 Eh
   Energy Change       :       0.000000007150 Eh
   MAX-DP              :       0.000036902992
   RMS-DP              :       0.000001624461
   Orbital gradient    :       0.000027143843
   Orbital Rotation    :       0.000041413046
   Actual Damping      :       0.0000
   Int. Num. El.       :    49.99813079 (UP=   24.99906539 DN=   24.99906539)
   Exchange            :   -31.94737997
   Correlation         :    -1.96445282


                         ----------------------------
                         !        ITERATION    11   !
                         ----------------------------
   Total Energy        :    -287.409487797287 Eh
   Energy Change       :      -0.000000012917 Eh
   MAX-DP              :       0.000012837869
   RMS-DP              :       0.000000420083
   Orbital gradient    :       0.000003384683
   Orbital Rotation    :       0.000011176116
   Actual Damping      :       0.0000
   Int. Num. El.       :    49.99813072 (UP=   24.99906536 DN=   24.99906536)
   Exchange            :   -31.94730361
   Correlation         :    -1.96444892


                         ----------------------------
                         !        ITERATION    12   !
                         ----------------------------
   Total Energy        :    -287.409487796947 Eh
   Energy Change       :       0.000000000340 Eh
   MAX-DP              :       0.000008488768
   RMS-DP              :       0.000000243241
   Orbital gradient    :       0.000003986719
   Orbital Rotation    :       0.000005795258
   Actual Damping      :       0.0000
   Int. Num. El.       :    49.99813070 (UP=   24.99906535 DN=   24.99906535)
   Exchange            :   -31.94728525
   Correlation         :    -1.96444806

                 **** Energy Check signals convergence ****
              ***Rediagonalizing the Fockian in SOSCF/NRSCF***

               *****************************************************
               *                     SUCCESS                       *
               *           SCF CONVERGED AFTER  13 CYCLES          *
               *****************************************************

Setting up the final grid:

General Integration Accuracy     IntAcc      ...  5.010
Radial Grid Type                 RadialGrid  ... Gauss-Chebyshev
Angular Grid (max. acc.)         AngularGrid ... Lebedev-434
Angular grid pruning method      GridPruning ... 3 (G Style)
Weight generation scheme         WeightScheme... Becke
Basis function cutoff            BFCut       ...    1.0000e-11
Integration weight cutoff        WCut        ...    1.0000e-14
Grids for H and He will be reduced by one unit

# of grid points (after initial pruning)     ... 121622 (   0.1 sec)
# of grid points (after weights+screening)   ... 111818 (   0.2 sec)
nearest neighbour list constructed           ...    0.0 sec
Grid point re-assignment to atoms done       ...    0.0 sec
Grid point division into batches done        ...    0.6 sec
Reduced shell lists constructed in    1.1 sec

Total number of grid points                  ...   111818
Total number of batches                      ...     1753
Average number of points per batch           ...       63
Average number of grid points per atom       ...     7987
Average number of shells per batch           ...    37.68 (67.29%)
Average number of basis functions per batch  ...    77.38 (69.09%)
Average number of large shells per batch     ...    29.60 (78.57%)
Average number of large basis fcns per batch ...    61.18 (79.06%)
Maximum spatial batch extension              ...  17.84, 15.22, 23.90 au
Average spatial batch extension              ...   2.02,  2.06,  2.32 au

Final grid set up in    1.3 sec
Final integration                            ... done (   0.9 sec)
Change in XC energy                          ...    -0.000326490
Integrated number of electrons               ...    49.999989296
Previous integrated no of electrons          ...    49.998130715

----------------
TOTAL SCF ENERGY
----------------

Total Energy       :         -287.40981429 Eh           -7820.81865 eV

Components:
Nuclear Repulsion  :          271.01688700 Eh            7374.74442 eV
Electronic Energy  :         -558.42670129 Eh          -15195.56307 eV
One Electron Energy:         -924.14589660 Eh          -25147.28831 eV
Two Electron Energy:          365.71919531 Eh            9951.72524 eV

Virial components:
Potential Energy   :         -573.10881938 Eh          -15595.08381 eV
Kinetic Energy     :          285.69900510 Eh            7774.26516 eV
Virial Ratio       :            2.00598815


DFT components:
N(Alpha)           :       24.999994648092 electrons
N(Beta)            :       24.999994648092 electrons
N(Total)           :       49.999989296185 electrons
E(X)               :      -31.947609103151 Eh       
E(C)               :       -1.964463234950 Eh       
E(XC)              :      -33.912072338100 Eh       
DFET-embed. en.    :        0.000000000000 Eh       

---------------
SCF CONVERGENCE
---------------

  Last Energy change         ...   -4.3383e-10  Tolerance :   1.0000e-08
  Last MAX-Density change    ...    7.7076e-07  Tolerance :   1.0000e-07
  Last RMS-Density change    ...    2.5292e-08  Tolerance :   5.0000e-09
  Last Orbital Gradient      ...    1.7570e-07  Tolerance :   1.0000e-05
  Last Orbital Rotation      ...    4.3622e-07  Tolerance :   1.0000e-05

             **** THE GBW FILE WAS UPDATED (/Users/lailaal-madhagi/Desktop/Testing_XAS_Analysis_code/Aniline//Results_dir_Aniline_geom_element_N_2019-11-04_20-19-58//GTE1_Aniline_geom_2019-11-04_20-20-15//freq.gbw) ****
             **** DENSITY FILE WAS UPDATED (/Users/lailaal-madhagi/Desktop/Testing_XAS_Analysis_code/Aniline//Results_dir_Aniline_geom_element_N_2019-11-04_20-19-58//GTE1_Aniline_geom_2019-11-04_20-20-15//freq.scfp.tmp) ****
             **** ENERGY FILE WAS UPDATED (/Users/lailaal-madhagi/Desktop/Testing_XAS_Analysis_code/Aniline//Results_dir_Aniline_geom_element_N_2019-11-04_20-19-58//GTE1_Aniline_geom_2019-11-04_20-20-15//freq.en.tmp) ****
----------------
ORBITAL ENERGIES
----------------

  NO   OCC          E(Eh)            E(eV) 
   0   2.0000     -14.326402      -389.8412 
   1   2.0000     -10.215014      -277.9647 
   2   2.0000     -10.167888      -276.6823 
   3   2.0000     -10.167879      -276.6821 
   4   2.0000     -10.162605      -276.5385 
   5   2.0000     -10.162569      -276.5376 
   6   2.0000     -10.156394      -276.3695 
   7   2.0000      -0.908666       -24.7261 
   8   2.0000      -0.818654       -22.2767 
   9   2.0000      -0.727295       -19.7907 
  10   2.0000      -0.710526       -19.3344 
  11   2.0000      -0.597971       -16.2716 
  12   2.0000      -0.587303       -15.9813 
  13   2.0000      -0.514022       -13.9873 
  14   2.0000      -0.508297       -13.8315 
  15   2.0000      -0.467644       -12.7252 
  16   2.0000      -0.418173       -11.3791 
  17   2.0000      -0.413797       -11.2600 
  18   2.0000      -0.403100       -10.9689 
  19   2.0000      -0.367973       -10.0131 
  20   2.0000      -0.343820        -9.3558 
  21   2.0000      -0.326531        -8.8854 
  22   2.0000      -0.294988        -8.0270 
  23   2.0000      -0.233185        -6.3453 
  24   2.0000      -0.184652        -5.0246 
  25   0.0000       0.017261         0.4697 
  26   0.0000       0.035795         0.9740 
  27   0.0000       0.083993         2.2856 
  28   0.0000       0.109111         2.9691 
  29   0.0000       0.125973         3.4279 
  30   0.0000       0.169694         4.6176 
  31   0.0000       0.172264         4.6875 
  32   0.0000       0.184150         5.0110 
  33   0.0000       0.200272         5.4497 
  34   0.0000       0.201491         5.4829 
  35   0.0000       0.274862         7.4794 
  36   0.0000       0.319445         8.6925 
  37   0.0000       0.333056         9.0629 
  38   0.0000       0.354438         9.6447 
  39   0.0000       0.369238        10.0475 
  40   0.0000       0.483163        13.1475 
  41   0.0000       0.540269        14.7015 
  42   0.0000       0.542868        14.7722 
  43   0.0000       0.565328        15.3834 
  44   0.0000       0.578695        15.7471 
  45   0.0000       0.605356        16.4726 
  46   0.0000       0.613063        16.6823 
  47   0.0000       0.614770        16.7287 
  48   0.0000       0.617889        16.8136 
  49   0.0000       0.629588        17.1320 
  50   0.0000       0.639828        17.4106 
  51   0.0000       0.649297        17.6683 
  52   0.0000       0.678661        18.4673 
  53   0.0000       0.686977        18.6936 
  54   0.0000       0.689568        18.7641 
  55   0.0000       0.762749        20.7555 
  56   0.0000       0.783315        21.3151 
  57   0.0000       0.849311        23.1109 
  58   0.0000       0.850468        23.1424 
  59   0.0000       0.864514        23.5246 
  60   0.0000       0.874450        23.7950 
  61   0.0000       0.889114        24.1940 
  62   0.0000       0.906718        24.6730 
  63   0.0000       0.941498        25.6195 
  64   0.0000       0.964095        26.2343 
  65   0.0000       0.996177        27.1074 
  66   0.0000       1.011641        27.5282 
  67   0.0000       1.052305        28.6347 
  68   0.0000       1.115458        30.3532 
  69   0.0000       1.129244        30.7283 
  70   0.0000       1.190805        32.4035 
  71   0.0000       1.197195        32.5773 
  72   0.0000       1.267391        34.4875 
  73   0.0000       1.347447        36.6659 
  74   0.0000       1.370157        37.2839 
  75   0.0000       1.443019        39.2665 
  76   0.0000       1.457784        39.6683 
  77   0.0000       1.484731        40.4016 
  78   0.0000       1.509325        41.0708 
  79   0.0000       1.532205        41.6934 
  80   0.0000       1.553165        42.2638 
  81   0.0000       1.591710        43.3126 
  82   0.0000       1.673045        45.5259 
  83   0.0000       1.788918        48.6789 
  84   0.0000       1.794033        48.8181 
  85   0.0000       1.859027        50.5867 
  86   0.0000       1.905177        51.8425 
  87   0.0000       1.968833        53.5747 
  88   0.0000       1.973941        53.7137 
  89   0.0000       1.990723        54.1703 
  90   0.0000       2.037880        55.4535 
  91   0.0000       2.073408        56.4203 
  92   0.0000       2.117494        57.6199 
  93   0.0000       2.160722        58.7962 
  94   0.0000       2.187766        59.5322 
  95   0.0000       2.257787        61.4375 
  96   0.0000       2.259468        61.4833 
  97   0.0000       2.315374        63.0045 
  98   0.0000       2.330275        63.4100 
  99   0.0000       2.393772        65.1378 
 100   0.0000       2.472064        67.2683 
 101   0.0000       2.503019        68.1106 
 102   0.0000       2.603443        70.8433 
 103   0.0000       2.609316        71.0031 
 104   0.0000       2.668791        72.6215 
 105   0.0000       2.735018        74.4236 
 106   0.0000       2.752016        74.8862 
 107   0.0000       2.757572        75.0373 
 108   0.0000       2.866014        77.9882 
 109   0.0000       2.895420        78.7884 
 110   0.0000       3.132976        85.2526 
 111   0.0000       3.426997        93.2533 
------------------
MOLECULAR ORBITALS
------------------
                      0         1         2         3         4         5   
                 -14.32640 -10.21501 -10.16789 -10.16788 -10.16260 -10.16257
                   2.00000   2.00000   2.00000   2.00000   2.00000   2.00000
                  --------  --------  --------  --------  --------  --------
  0C   1s         0.000001 -0.000001  0.908628 -0.403225  0.002249  0.042005
  0C   2s         0.000092  0.000014  0.033152 -0.014809 -0.000421  0.003718
  0C   1pz       -0.000012 -0.000018 -0.000038  0.000029  0.000007 -0.000051
  0C   1px        0.000204  0.000338  0.000429 -0.000135 -0.000064  0.001365
  0C   1py       -0.000096 -0.000125 -0.000499  0.000518  0.000102 -0.000045
  0C   3s         0.004915  0.008725 -0.030866  0.008525  0.004790 -0.014902
  0C   2pz       -0.000104 -0.000256  0.000414 -0.000039 -0.000184  0.000388
  0C   2px        0.001273  0.002325 -0.003601  0.000246  0.001665 -0.005204
  0C   2py       -0.001267 -0.003731  0.006156 -0.000644 -0.002680  0.004344
  0C   1dz2       0.000044  0.000062 -0.000552  0.000189 -0.000109 -0.000635
  0C   1dxz       0.000002  0.000000 -0.000026  0.000003 -0.000006 -0.000072
  0C   1dyz      -0.000002 -0.000007  0.000023 -0.000007  0.000007 -0.000009
  0C   1dx2y2    -0.000009  0.000059  0.000201 -0.000020  0.000019  0.001147
  0C   1dxy      -0.000024 -0.000028  0.000347 -0.000209  0.000025  0.000189
  1C   1s         0.000071 -0.003563  0.037639 -0.018428 -0.017534 -0.994093
  1C   2s         0.000654  0.002180 -0.000819 -0.000232 -0.000695 -0.036610
  1C   1pz       -0.000002 -0.000067 -0.000041  0.000024  0.000012  0.000021
  1C   1px        0.000027  0.000531  0.001267 -0.000496 -0.000016  0.000398
  1C   1py       -0.000023 -0.001038  0.000102  0.000128  0.000236  0.000779
  1C   3s        -0.006992 -0.017491  0.012407 -0.002043 -0.004404  0.033937
  1C   2pz        0.000101  0.000366 -0.000037 -0.000020  0.000048 -0.000198
  1C   2px        0.003883  0.002888 -0.004370  0.000239  0.001619 -0.003352
  1C   2py        0.005227  0.010141 -0.004180 -0.000240  0.002283 -0.006874
  1C   1dz2       0.000190 -0.000466  0.000505 -0.000313 -0.000053  0.000615
  1C   1dxz      -0.000009 -0.000066  0.000069 -0.000037 -0.000004  0.000067
  1C   1dyz      -0.000022  0.000086  0.000006  0.000003  0.000001 -0.000047
  1C   1dx2y2     0.000310 -0.000270 -0.001022  0.000477  0.000056 -0.000339
  1C   1dxy      -0.000214 -0.000996  0.000015 -0.000008  0.000025  0.000358
  2C   1s         0.000038  0.000255  0.024512  0.009454 -0.001474  0.001525
  2C   2s         0.000327  0.000757 -0.001881 -0.000725  0.000069 -0.000071
  2C   1pz       -0.000004 -0.000006  0.000005  0.000081  0.000010 -0.000002
  2C   1px        0.000104  0.000186 -0.000905 -0.000386 -0.000163  0.000165
  2C   1py        0.000002  0.000004 -0.000584  0.001452  0.000086  0.000091
  2C   3s        -0.002887 -0.007240  0.015940  0.006142 -0.006066  0.006281
  2C   2pz        0.000069  0.000164 -0.000198 -0.000247  0.000127 -0.000106
  2C   2px       -0.001998 -0.004708  0.007301  0.002892 -0.003287  0.003392
  2C   2py       -0.000047 -0.000111  0.001385 -0.003081  0.000201  0.000348
  2C   1dz2       0.000069  0.000145  0.000792  0.000301 -0.000068  0.000070
  2C   1dxz       0.000003  0.000007 -0.000002  0.000068 -0.000001  0.000004
  2C   1dyz      -0.000007 -0.000014 -0.000088 -0.000082  0.000007 -0.000009
  2C   1dx2y2     0.000034  0.000055  0.000872  0.000271 -0.000054  0.000054
  2C   1dxy       0.000001  0.000002 -0.000443  0.001258  0.000023  0.000027
  3C   1s        -0.000139 -0.995123 -0.000146 -0.000057 -0.003690  0.003821
  3C   2s         0.000144 -0.036753 -0.000141 -0.000055 -0.002212  0.002292
  3C   1pz       -0.000033  0.000010 -0.000012  0.000004  0.000031  0.000075
  3C   1px        0.000943 -0.000288  0.000269  0.000100  0.000617 -0.000689
  3C   1py        0.000022 -0.000007 -0.000056  0.000165  0.001150  0.001080
  3C   3s        -0.004118  0.030840 -0.006786 -0.002612  0.012973 -0.013441
  3C   2pz        0.000614  0.000631 -0.000089  0.000050  0.000061 -0.000369
  3C   2px       -0.017528 -0.018143  0.001748  0.000633 -0.006061  0.006421
  3C   2py       -0.000412 -0.000426 -0.000559  0.001573 -0.003389 -0.002982
  3C   1dz2      -0.000302  0.000996  0.000023  0.000010  0.000636 -0.000653
  3C   1dxz      -0.000041  0.000081  0.000007 -0.000006 -0.000028 -0.000063
  3C   1dyz      -0.000009 -0.000053  0.000000  0.000007 -0.000049  0.000116
  3C   1dx2y2     0.000685 -0.000562 -0.000090 -0.000026  0.000675 -0.000612
  3C   1dxy       0.000032 -0.000028  0.000060 -0.000170 -0.000938 -0.000959
  4C   1s         0.000001 -0.000001  0.403027  0.908701 -0.042386 -0.000746
  4C   2s         0.000092  0.000014  0.014639  0.033226 -0.003713  0.000552
  4C   1pz       -0.000002 -0.000005 -0.000007  0.000021  0.000044  0.000001
  4C   1px        0.000199  0.000332  0.000227  0.000356 -0.001359  0.000108
  4C   1py        0.000106  0.000141  0.000033  0.000737 -0.000105  0.000108
  4C   3s         0.004915  0.008725 -0.017162 -0.027029  0.014732 -0.005314
  4C   2pz        0.000018  0.000100 -0.000113 -0.000133  0.000030 -0.000073
  4C   2px        0.001216  0.002159 -0.002321 -0.002393  0.004951 -0.001722
  4C   2py        0.001326  0.003837 -0.004247 -0.004725  0.004486 -0.002915
  4C   1dz2       0.000044  0.000062 -0.000282 -0.000508  0.000638  0.000087
  4C   1dxz       0.000004  0.000003 -0.000028 -0.000055  0.000085  0.000006
  4C   1dyz      -0.000004 -0.000009  0.000020  0.000046 -0.000001 -0.000009
  4C   1dx2y2    -0.000011  0.000057  0.000146  0.000183 -0.001159  0.000020
  4C   1dxy       0.000022  0.000033 -0.000102 -0.000369  0.000081  0.000020
  5C   1s         0.000071 -0.003565  0.015662  0.039225  0.994077 -0.017663
  5C   2s         0.000654  0.002180 -0.000758 -0.000367  0.036611 -0.000601
  5C   1pz        0.000000  0.000032 -0.000028 -0.000040  0.000051  0.000009
  5C   1px        0.000026  0.000485  0.000613  0.001216 -0.000432  0.000021
  5C   1py        0.000024  0.001062 -0.000132  0.000084  0.000767  0.000210
  5C   3s        -0.006991 -0.017489  0.007825  0.009831 -0.033761  0.005601
  5C   2pz       -0.000383 -0.000583  0.000260  0.000230 -0.000436  0.000179
  5C   2px        0.004108  0.003329 -0.003219 -0.003220  0.003587 -0.001845
  5C   2py       -0.005038 -0.009994  0.003112  0.002476 -0.006626  0.002439
  5C   1dz2       0.000189 -0.000472  0.000164  0.000572 -0.000615  0.000075
  5C   1dxz       0.000013  0.000029  0.000024  0.000068 -0.000031  0.000007
  5C   1dyz      -0.000037  0.000020  0.000009  0.000006  0.000021 -0.000003
  5C   1dx2y2     0.000289 -0.000360 -0.000435 -0.001034  0.000303 -0.000069
  5C   1dxy       0.000241  0.000970 -0.000046 -0.000114  0.000392  0.000006
  6N   1s        -0.995276 -0.000157 -0.000027 -0.000010 -0.000019  0.000019
  6N   2s        -0.032782 -0.000625 -0.000271 -0.000105 -0.000304  0.000315
  6N   1pz       -0.000006  0.000033 -0.000002  0.000002 -0.000002  0.000006
  6N   1px        0.000415 -0.000966  0.000032  0.000011  0.000112 -0.000118
  6N   1py        0.000009 -0.000023 -0.000017  0.000046  0.000050  0.000043
  6N   3s         0.030107  0.007704  0.000969  0.000374  0.001399 -0.001450
  6N   2pz        0.000213  0.000177  0.000042 -0.000017  0.000021 -0.000010
  6N   2px       -0.006477 -0.005035 -0.000892 -0.000329 -0.000432  0.000443
  6N   2py       -0.000152 -0.000119  0.000213 -0.000616  0.000114  0.000130
  6N   1dz2      -0.000088 -0.001131 -0.000076 -0.000029 -0.000113  0.000117
  6N   1dxz      -0.000012 -0.000129 -0.000008 -0.000003 -0.000007  0.000001
  6N   1dyz      -0.000003  0.000007  0.000001  0.000001  0.000016 -0.000012
  6N   1dx2y2     0.000215  0.001738  0.000096  0.000037 -0.000087  0.000096
  6N   1dxy       0.000010  0.000082  0.000004  0.000004 -0.000066 -0.000056
  7H   1s         0.000189 -0.000034 -0.000088  0.000084 -0.000045  0.000107
  7H   2s        -0.002821  0.000603  0.000137  0.000176  0.000184 -0.000019
  8H   1s         0.000189 -0.000034 -0.000009 -0.000122 -0.000105  0.000049
  8H   2s        -0.002821  0.000603  0.000219 -0.000039  0.000013 -0.000185
  9H   1s        -0.000002  0.000099 -0.001245  0.000505  0.000090  0.000064
  9H   2s         0.000050  0.000619  0.002455 -0.001363  0.000879 -0.001156
 10H   1s        -0.000225 -0.000012 -0.000160  0.000177 -0.000061  0.001319
 10H   2s        -0.001923 -0.002905  0.001304  0.000182 -0.000525 -0.002687
 11H   1s        -0.000002  0.000099 -0.000584 -0.001210 -0.000067 -0.000087
 11H   2s         0.000050  0.000619  0.000904  0.002658  0.001123 -0.000920
 12H   1s        -0.000057 -0.000132 -0.000212 -0.000082 -0.000062  0.000064
 12H   2s        -0.000578 -0.001300  0.001632  0.000629 -0.000556  0.000576
 13H   1s        -0.000225 -0.000012  0.000000 -0.000239 -0.001316  0.000107
 13H   2s        -0.001923 -0.002905  0.001089  0.000741  0.002704  0.000429
                      6         7         8         9        10        11   
                 -10.15639  -0.90867  -0.81865  -0.72730  -0.71053  -0.59797
                   2.00000   2.00000   2.00000   2.00000   2.00000   2.00000
                  --------  --------  --------  --------  --------  --------
  0C   1s         0.018786  0.017630  0.098720 -0.108898 -0.055774  0.088178
  0C   2s         0.002834 -0.032955 -0.187367  0.212634  0.108802 -0.179660
  0C   1pz       -0.000032  0.000948  0.003381 -0.001397  0.000509 -0.003381
  0C   1px       -0.000617 -0.014522 -0.025726  0.059881 -0.088674  0.084058
  0C   1py       -0.001173  0.009181  0.052978  0.016348 -0.057758 -0.007749
  0C   3s        -0.015010 -0.045494 -0.120224  0.161468  0.089356 -0.122295
  0C   2pz        0.000362  0.000539  0.000431  0.000366  0.000287 -0.002819
  0C   2px       -0.001324 -0.012300 -0.001703  0.007769 -0.015650  0.049651
  0C   2py        0.006779  0.002114  0.008044  0.013811 -0.005820 -0.022768
  0C   1dz2      -0.000628  0.002011  0.009322 -0.008285 -0.004180  0.004137
  0C   1dxz       0.000027  0.000176  0.000541 -0.000768  0.000222  0.000192
  0C   1dyz       0.000037 -0.000127 -0.000777  0.000504  0.000534 -0.000642
  0C   1dx2y2    -0.000507 -0.000995  0.000806  0.004786 -0.007705  0.004859
  0C   1dxy       0.001036  0.000320 -0.000284 -0.001655  0.004451  0.002298
  1C   1s        -0.000787  0.042324  0.080762 -0.114656  0.070729 -0.070463
  1C   2s        -0.000148 -0.081197 -0.151984  0.223043 -0.137530  0.142326
  1C   1pz        0.000001  0.002352  0.000132  0.002264  0.004980 -0.005240
  1C   1px       -0.000158 -0.021996  0.047213 -0.051402 -0.066682  0.134227
  1C   1py       -0.000103  0.033606  0.039362  0.009192  0.055805 -0.008972
  1C   3s         0.006818 -0.020153 -0.098201  0.166090 -0.107908  0.108798
  1C   2pz       -0.000080  0.000571 -0.000260  0.000356  0.000449 -0.001902
  1C   2px       -0.002148 -0.030051  0.008442  0.004313 -0.012703  0.070223
  1C   2py       -0.003389 -0.010904  0.001246  0.010760 -0.000082  0.013900
  1C   1dz2       0.000045  0.004614  0.007533 -0.008719  0.005049 -0.003653
  1C   1dxz       0.000006  0.000447  0.000402 -0.000607  0.000230 -0.000016
  1C   1dyz      -0.000006 -0.000515 -0.000497  0.000419 -0.000860  0.000549
  1C   1dx2y2     0.000004  0.000272 -0.000747  0.004443  0.006998 -0.005672
  1C   1dxy       0.000065  0.003624 -0.002031  0.002088  0.003607  0.000193
  2C   1s        -0.994797  0.012915  0.100461  0.000002 -0.124121  0.000001
  2C   2s        -0.036631 -0.025253 -0.189611 -0.000016  0.242174  0.000004
  2C   1pz        0.000032  0.000431  0.002182  0.004944 -0.000554 -0.008192
  2C   1px       -0.000924 -0.012379 -0.062597 -0.002297  0.015788  0.003809
  2C   1py       -0.000022 -0.000293 -0.001472  0.104950  0.000372 -0.173939
  2C   3s         0.034016 -0.008152 -0.119685  0.000111  0.180309 -0.000025
  2C   2pz       -0.000281 -0.000276  0.000233  0.000908  0.000536 -0.001726
  2C   2px        0.008085  0.007927 -0.006925 -0.000353 -0.015198  0.000821
  2C   2py        0.000191  0.000202 -0.000201  0.019382 -0.000313 -0.036447
  2C   1dz2       0.000614  0.001285  0.009572 -0.000029 -0.009022  0.000025
  2C   1dxz       0.000024  0.000089  0.000601  0.000462 -0.000544 -0.000410
  2C   1dyz      -0.000070 -0.000090 -0.000760 -0.000325  0.000749  0.000288
  2C   1dx2y2     0.000431 -0.000270 -0.000178 -0.000439 -0.000489  0.000390
  2C   1dxy       0.000018 -0.000016 -0.000037  0.009651  0.000005 -0.008561
  3C   1s        -0.000102  0.112904  0.044056 -0.000008  0.107904 -0.000006
  3C   2s         0.000618 -0.221303 -0.083895  0.000025 -0.218330  0.000009
  3C   1pz        0.000005  0.003266 -0.003963  0.006142 -0.003001  0.010714
  3C   1px       -0.000150 -0.093031  0.113210 -0.002857  0.085015 -0.004974
  3C   1py       -0.000004 -0.002186  0.002663  0.130267  0.002003  0.227089
  3C   3s        -0.005143 -0.076046 -0.062067 -0.000037 -0.155466  0.000114
  3C   2pz       -0.000177 -0.002106 -0.000768  0.000827 -0.000551  0.001388
  3C   2px        0.005091  0.060764  0.022571 -0.000304  0.016549 -0.000613
  3C   2py        0.000119  0.001358  0.000579  0.017795  0.000393  0.029254
  3C   1dz2       0.000061  0.012205  0.003227  0.000026  0.006292  0.000001
  3C   1dxz       0.000002  0.001124 -0.000040 -0.000436  0.000095 -0.000063
  3C   1dyz      -0.000008 -0.000480 -0.000593  0.000307 -0.000916  0.000044
  3C   1dx2y2     0.000065 -0.010461  0.006964  0.000414  0.008508  0.000061
  3C   1dxy       0.000003 -0.000511  0.000307 -0.009112  0.000370 -0.001352
  4C   1s         0.018796  0.017631  0.098721  0.108904 -0.055764 -0.088179
  4C   2s         0.002835 -0.032949 -0.187365 -0.212633  0.108787  0.179681
  4C   1pz        0.000077  0.000050 -0.001671  0.002797  0.005756  0.002469
  4C   1px       -0.000667 -0.014106 -0.023381 -0.060533 -0.091115 -0.083621
  4C   1py        0.001143 -0.009854 -0.054128  0.013516  0.053526 -0.011705
  4C   3s        -0.015010 -0.045575 -0.120238 -0.161687  0.089351  0.122118
  4C   2pz       -0.000280  0.000320 -0.000316  0.000934  0.000808  0.000582
  4C   2px       -0.001025 -0.012265 -0.001292 -0.008414 -0.015961 -0.048741
  4C   2py       -0.006835 -0.002692 -0.008156  0.013300  0.005089 -0.025085
  4C   1dz2      -0.000622  0.002014  0.009318  0.008298 -0.004151 -0.004145
  4C   1dxz      -0.000074  0.000141  0.000568  0.000585 -0.000235  0.000010
  4C   1dyz       0.000108 -0.000102 -0.000796 -0.000376  0.000856  0.000500
  4C   1dx2y2    -0.000411 -0.000963  0.000779 -0.004612 -0.007273 -0.005055
  4C   1dxy      -0.001074 -0.000420  0.000308 -0.002127 -0.005112  0.001869
  5C   1s        -0.000783  0.042327  0.080763  0.114648  0.070734  0.070460
  5C   2s        -0.000148 -0.081199 -0.151989 -0.223028 -0.137540 -0.142301
  5C   1pz        0.000010 -0.000864 -0.003479 -0.001293 -0.000426  0.004106
  5C   1px       -0.000163 -0.020496  0.048896  0.050964 -0.064158 -0.133691
  5C   1py        0.000096 -0.034613 -0.037103  0.011608 -0.058888 -0.015277
  5C   3s         0.006817 -0.020187 -0.098183 -0.165943 -0.107868 -0.108724
  5C   2pz        0.000235  0.001542 -0.000341  0.000687  0.000429  0.003050
  5C   2px       -0.002294 -0.030631  0.008547 -0.004883 -0.012737 -0.070970
  5C   2py        0.003283  0.009457 -0.000805  0.010663 -0.000520  0.010552
  5C   1dz2       0.000046  0.004636  0.007524  0.008707  0.005068  0.003650
  5C   1dxz      -0.000001  0.000101  0.000593  0.000788 -0.000083  0.000060
  5C   1dyz      -0.000002 -0.000271 -0.000633 -0.000546 -0.000641 -0.000581
  5C   1dx2y2     0.000010  0.000605 -0.000925 -0.004612  0.007300  0.005640
  5C   1dxy      -0.000065 -0.003611  0.001916  0.001626 -0.002984  0.000685
  6N   1s         0.000022  0.177899 -0.073724  0.000001 -0.064208 -0.000004
  6N   2s         0.000225 -0.364978  0.156810  0.000004  0.138722  0.000016
  6N   1pz        0.000000 -0.001091 -0.001195  0.001731 -0.004516  0.007975
  6N   1px        0.000000  0.043007  0.027797 -0.000805  0.120156 -0.003666
  6N   1py       -0.000000  0.000992  0.000665  0.036576  0.002847  0.168127
  6N   3s        -0.002230 -0.407798  0.159911 -0.000042  0.162607 -0.000022
  6N   2pz       -0.000030 -0.000997 -0.000737  0.000746 -0.002090  0.004231
  6N   2px        0.000865  0.034439  0.017832 -0.000323  0.055371 -0.001932
  6N   2py        0.000020  0.000822  0.000413  0.015763  0.001306  0.089377
  6N   1dz2       0.000021  0.018581 -0.006328  0.000004 -0.004892 -0.000005
  6N   1dxz       0.000002  0.001203 -0.000292 -0.000076 -0.000101 -0.000001
  6N   1dyz      -0.000000 -0.001515  0.000707  0.000041  0.000768 -0.000063
  6N   1dx2y2    -0.000026  0.000148 -0.004003  0.000072 -0.007674  0.000001
  6N   1dxy      -0.000001 -0.000049 -0.000161 -0.001602 -0.000330 -0.000097
  7H   1s         0.000047 -0.102935  0.056451  0.013635  0.077216  0.072645
  7H   2s        -0.000096 -0.005891  0.004333  0.004020  0.014623  0.027394
  8H   1s         0.000047 -0.102927  0.056447 -0.013637  0.077207 -0.072633
  8H   2s        -0.000096 -0.005888  0.004326 -0.004037  0.014613 -0.027407
  9H   1s         0.000106 -0.004874 -0.039483  0.065784  0.036022 -0.092153
  9H   2s        -0.001229  0.000231 -0.006577  0.013422  0.008725 -0.031029
 10H   1s         0.000107 -0.016463 -0.029349  0.070405 -0.041204  0.082230
 10H   2s         0.000769  0.004497 -0.001774  0.014927 -0.005420  0.030521
 11H   1s         0.000106 -0.004875 -0.039487 -0.065794  0.036014  0.092160
 11H   2s        -0.001229  0.000222 -0.006573 -0.013453  0.008706  0.030997
 12H   1s         0.001369 -0.003067 -0.039184 -0.000001  0.077470  0.000001
 12H   2s        -0.002502  0.003259 -0.005848  0.000022  0.015580  0.000004
 13H   1s         0.000107 -0.016456 -0.029344 -0.070387 -0.041202 -0.082221
 13H   2s         0.000768  0.004510 -0.001780 -0.014892 -0.005431 -0.030519
                     12        13        14        15        16        17   
                  -0.58730  -0.51402  -0.50830  -0.46764  -0.41817  -0.41380
                   2.00000   2.00000   2.00000   2.00000   2.00000   2.00000
                  --------  --------  --------  --------  --------  --------
  0C   1s         0.042484  0.027602 -0.027084 -0.056900 -0.010647 -0.001488
  0C   2s        -0.085347 -0.059200  0.055273  0.115962  0.019775  0.004921
  0C   1pz       -0.000746 -0.010447  0.003660 -0.000623  0.012911 -0.000965
  0C   1px       -0.124701  0.070029 -0.128770  0.034414 -0.093296 -0.189910
  0C   1py       -0.112876 -0.170957 -0.020921  0.012698  0.207274 -0.167600
  0C   3s        -0.067597 -0.063972  0.054723  0.144108  0.008772  0.006611
  0C   2pz       -0.000905 -0.004075  0.001464 -0.000440  0.004260  0.000382
  0C   2px       -0.028714  0.024044 -0.033713  0.021325 -0.063924 -0.062558
  0C   2py       -0.041683 -0.069757  0.005509  0.006894  0.043009 -0.039816
  0C   1dz2       0.002137  0.001806 -0.001301 -0.001599 -0.002095  0.000789
  0C   1dxz       0.000561  0.000116 -0.000000 -0.000354 -0.000820  0.000194
  0C   1dyz      -0.000125 -0.000176  0.000363  0.000762  0.000586 -0.000090
  0C   1dx2y2    -0.005089  0.000365 -0.004314 -0.005890  0.001597 -0.001147
  0C   1dxy       0.005246  0.000350 -0.001611 -0.010032 -0.013571  0.002246
  1C   1s         0.051525  0.000406  0.047176  0.049894  0.015479 -0.010688
  1C   2s        -0.103842 -0.002913 -0.095498 -0.098383 -0.030270  0.017425
  1C   1pz       -0.009105 -0.006893 -0.003550  0.000981 -0.009302 -0.014337
  1C   1px        0.118336 -0.033941  0.035396 -0.144858  0.023196  0.206107
  1C   1py       -0.105230 -0.174512 -0.049557 -0.092448 -0.180977 -0.148801
  1C   3s        -0.075638 -0.006553 -0.097860 -0.160201 -0.012395  0.095167
  1C   2pz       -0.002574 -0.001907 -0.001936  0.000614 -0.000848 -0.007545
  1C   2px        0.020554 -0.023413  0.014307 -0.027627 -0.038831  0.106604
  1C   2py       -0.039833 -0.058504 -0.030255 -0.009125 -0.046981 -0.079581
  1C   1dz2       0.002470  0.000878  0.001811  0.003052  0.001566 -0.001055
  1C   1dxz      -0.000001  0.000279 -0.000122 -0.000507 -0.000428 -0.000168
  1C   1dyz       0.000191  0.000105 -0.000088 -0.000483  0.000603  0.000264
  1C   1dx2y2    -0.003635 -0.004658  0.001693  0.010490 -0.004224 -0.001312
  1C   1dxy      -0.006180  0.001274 -0.003765 -0.006992 -0.014543 -0.003182
  2C   1s        -0.095418 -0.011169  0.000014  0.059007  0.037107 -0.000006
  2C   2s         0.193052  0.021939 -0.000028 -0.118981 -0.076727  0.000020
  2C   1pz        0.001920 -0.004165  0.006433 -0.008076  0.007245  0.012479
  2C   1px       -0.055297  0.119700 -0.003032  0.232714 -0.209056 -0.005752
  2C   1py       -0.001311  0.002880  0.136535  0.005466 -0.004869  0.265350
  2C   3s         0.144592 -0.006719 -0.000037 -0.135797 -0.131120 -0.000091
  2C   2pz        0.001663 -0.001059  0.002215 -0.002689  0.002341  0.004584
  2C   2px       -0.047651  0.029913 -0.001041  0.077185 -0.067359 -0.002172
  2C   2py       -0.001144  0.000661  0.046817  0.001781 -0.001488  0.097153
  2C   1dz2      -0.004452  0.000420 -0.000008  0.003227 -0.000687 -0.000016
  2C   1dxz      -0.000440 -0.000144  0.000149  0.000606  0.000039  0.000301
  2C   1dyz       0.000125 -0.000272 -0.000104  0.000318  0.000171 -0.000212
  2C   1dx2y2     0.004872  0.004976 -0.000143 -0.012024 -0.002429 -0.000286
  2C   1dxy       0.000234  0.000223  0.003089 -0.000559 -0.000105  0.006304
  3C   1s        -0.094272 -0.000964 -0.000010 -0.021022 -0.053032  0.000008
  3C   2s         0.201963 -0.002575  0.000006  0.043369  0.112820 -0.000028
  3C   1pz       -0.002729  0.008917  0.002181 -0.005268  0.007672  0.013046
  3C   1px        0.080730 -0.259635 -0.000852  0.155710 -0.226335 -0.006068
  3C   1py        0.001892 -0.006096  0.045263  0.003626 -0.005275  0.278981
  3C   3s         0.120556  0.022014  0.000154  0.050453  0.199726  0.000098
  3C   2pz       -0.001071  0.001613  0.000182  0.001507  0.000320 -0.000247
  3C   2px        0.030441 -0.046219 -0.000144 -0.041895 -0.011172  0.000069
  3C   2py        0.000806 -0.001029  0.003135 -0.000901 -0.000236 -0.004441
  3C   1dz2      -0.003488  0.001859 -0.000055 -0.002171  0.001224  0.000030
  3C   1dxz      -0.000333  0.000219  0.000861 -0.000779  0.000231 -0.000530
  3C   1dyz       0.000096  0.000022 -0.000606 -0.000764  0.000144  0.000370
  3C   1dx2y2     0.003874 -0.003582 -0.000811  0.019536 -0.005035  0.000498
  3C   1dxy       0.000183 -0.000161  0.017845  0.000888 -0.000236 -0.010915
  4C   1s         0.042478  0.027633  0.027051 -0.056899 -0.010655  0.001490
  4C   2s        -0.085342 -0.059259 -0.055196  0.115975  0.019786 -0.004927
  4C   1pz        0.009608  0.005801 -0.005346 -0.001740 -0.006813 -0.014443
  4C   1px       -0.129522  0.062580  0.129506  0.034906 -0.083993  0.197083
  4C   1py        0.106901  0.174079 -0.015012 -0.011071 -0.211482 -0.158394
  4C   3s        -0.067522 -0.064149 -0.054690  0.143980  0.008810 -0.006539
  4C   2pz        0.002960  0.002533 -0.000881 -0.001030  0.000065 -0.004028
  4C   2px       -0.030435  0.021024  0.033387  0.021541 -0.062036  0.064251
  4C   2py        0.040210  0.070662  0.007057 -0.005963 -0.045893 -0.036649
  4C   1dz2       0.002168  0.001814  0.001308 -0.001651 -0.002175 -0.000803
  4C   1dxz       0.000036  0.000083 -0.000134  0.000582  0.000484  0.000024
  4C   1dyz       0.000244 -0.000152 -0.000267  0.000107 -0.000338 -0.000065
  4C   1dx2y2    -0.004588  0.000405  0.004442 -0.006779  0.000354  0.000935
  4C   1dxy      -0.005699 -0.000328 -0.001216  0.009462  0.013670  0.002339
  5C   1s         0.051523  0.000353 -0.047166  0.049894  0.015475  0.010687
  5C   2s        -0.103837 -0.002810  0.095504 -0.098389 -0.030270 -0.017420
  5C   1pz        0.001064  0.009471 -0.001170  0.009376  0.007807 -0.000221
  5C   1px        0.113601 -0.041571 -0.033176 -0.148728  0.015128 -0.199381
  5C   1py        0.110686  0.172694 -0.051300  0.085543  0.181860 -0.158416
  5C   3s        -0.075605 -0.006365  0.097710 -0.160022 -0.012302 -0.095249
  5C   2pz        0.001240  0.003558 -0.000957  0.001399  0.003523 -0.000252
  5C   2px        0.018903 -0.025982 -0.013046 -0.028041 -0.040984 -0.103025
  5C   2py        0.040869  0.057489 -0.031079  0.007966  0.045148 -0.084681
  5C   1dz2       0.002436  0.000878 -0.001787  0.003006  0.001481  0.001074
  5C   1dxz       0.000575  0.000138 -0.000244  0.000208  0.000943 -0.000134
  5C   1dyz      -0.000210  0.000195  0.000347 -0.000980 -0.000379 -0.000053
  5C   1dx2y2    -0.004183 -0.004526 -0.001333  0.009815 -0.005521  0.001601
  5C   1dxy       0.005813 -0.001704 -0.003892  0.007901  0.014093 -0.003062
  6N   1s         0.024497 -0.002497 -0.000002 -0.016018  0.011179 -0.000004
  6N   2s        -0.053158  0.004025  0.000007  0.034045 -0.022380  0.000003
  6N   1pz        0.008806 -0.009671  0.019969  0.008059 -0.005920 -0.008474
  6N   1px       -0.240235  0.263975 -0.009298 -0.219356  0.157523  0.003796
  6N   1py       -0.005670  0.006417  0.419289 -0.005226  0.003658 -0.175479
  6N   3s        -0.075690  0.004910  0.000022  0.101979 -0.080257  0.000038
  6N   2pz        0.004071 -0.004992  0.010358  0.004588 -0.004203 -0.002822
  6N   2px       -0.111049  0.136161 -0.004870 -0.125974  0.112793  0.001253
  6N   2py       -0.002617  0.003290  0.217840 -0.002984  0.002631 -0.057576
  6N   1dz2       0.002927 -0.002690 -0.000060  0.001697 -0.001136  0.000058
  6N   1dxz      -0.000056 -0.000049  0.000813 -0.000033 -0.000057 -0.000896
  6N   1dyz      -0.000682  0.000488 -0.000735 -0.000404  0.000163  0.000697
  6N   1dx2y2     0.009204 -0.005607 -0.000762  0.005536 -0.001458  0.000848
  6N   1dxy       0.000406 -0.000233  0.016768  0.000244 -0.000064 -0.018660
  7H   1s        -0.088065  0.079814  0.207674 -0.059053  0.039261 -0.109021
  7H   2s        -0.035678  0.037626  0.107580 -0.043994  0.020814 -0.087306
  8H   1s        -0.088058  0.079619 -0.207755 -0.058999  0.039330  0.109004
  8H   2s        -0.035661  0.037503 -0.107601 -0.043943  0.020858  0.087269
  9H   1s        -0.048997 -0.116725  0.049765  0.055881  0.150894 -0.027711
  9H   2s        -0.019082 -0.065708  0.027082  0.031356  0.129468 -0.028895
 10H   1s        -0.059782 -0.084386 -0.053855 -0.138183 -0.110193 -0.013702
 10H   2s        -0.027212 -0.050218 -0.017847 -0.106629 -0.090277 -0.021651
 11H   1s        -0.049004 -0.116783 -0.049640  0.055892  0.150881  0.027657
 11H   2s        -0.019097 -0.065776 -0.027002  0.031326  0.129458  0.028889
 12H   1s         0.101550 -0.048185  0.000010 -0.186990  0.083979 -0.000026
 12H   2s         0.035278 -0.032810  0.000008 -0.127898  0.083443 -0.000040
 13H   1s        -0.059778 -0.084323  0.053899 -0.138183 -0.110212  0.013739
 13H   2s        -0.027199 -0.050154  0.017858 -0.106597 -0.090279  0.021636
                     18        19        20        21        22        23   
                  -0.40310  -0.36797  -0.34382  -0.32653  -0.29499  -0.23318
                   2.00000   2.00000   2.00000   2.00000   2.00000   2.00000
                  --------  --------  --------  --------  --------  --------
  0C   1s         0.021379  0.000034  0.008372 -0.006977 -0.000011 -0.000003
  0C   2s        -0.047278 -0.000107 -0.013812  0.020981  0.000016 -0.000035
  0C   1pz        0.015093  0.146726 -0.007572 -0.011155  0.219300  0.290377
  0C   1px       -0.201487  0.005399  0.257194 -0.009364  0.008060  0.010394
  0C   1py        0.169902 -0.006716  0.041969 -0.246336 -0.010183 -0.013452
  0C   3s        -0.078182 -0.000046 -0.046145 -0.009560  0.000137  0.000117
  0C   2pz        0.004280  0.076471 -0.001720 -0.001939  0.146947  0.205318
  0C   2px       -0.039274  0.002801  0.077396 -0.028151  0.005456  0.007340
  0C   2py        0.062761 -0.003634  0.025924 -0.062841 -0.006852 -0.009609
  0C   1dz2      -0.001850 -0.000703  0.001429  0.002829 -0.000619 -0.000502
  0C   1dxz       0.000120  0.005101 -0.000299  0.000898 -0.001560  0.010343
  0C   1dyz       0.000679 -0.004747 -0.001028 -0.001154 -0.008906  0.001828
  0C   1dx2y2    -0.009584 -0.000016  0.016427  0.004944 -0.000460  0.000453
  0C   1dxy      -0.002323 -0.000406  0.004443  0.019389 -0.000239 -0.000413
  1C   1s         0.018499 -0.000046 -0.015702  0.003691  0.000015 -0.000000
  1C   2s        -0.040950  0.000075  0.037621 -0.013275 -0.000055 -0.000053
  1C   1pz        0.002364  0.197837  0.007731  0.011129  0.062842  0.296375
  1C   1px        0.194076  0.007013 -0.245524 -0.032541  0.002055  0.010681
  1C   1py        0.202341 -0.009277 -0.017877  0.216572 -0.002801 -0.013714
  1C   3s        -0.078962  0.000113  0.013803  0.009065 -0.000087  0.000132
  1C   2pz        0.001516  0.119029  0.004751  0.003490  0.031802  0.217283
  1C   2px        0.047151  0.004185 -0.087061 -0.035853  0.001212  0.007787
  1C   2py        0.069822 -0.005476  0.038304  0.048376 -0.001332 -0.010002
  1C   1dz2      -0.002169 -0.000834  0.001977 -0.002301  0.000919  0.000629
  1C   1dxz       0.000370  0.000686 -0.000316  0.000961 -0.011974 -0.009439
  1C   1dyz       0.000499 -0.009809 -0.000468 -0.000276  0.002130  0.000554
  1C   1dx2y2    -0.009677 -0.000436  0.008972 -0.005331 -0.000315 -0.000312
  1C   1dxy       0.003446 -0.000387 -0.002680  0.019647  0.000629  0.000458
  2C   1s        -0.000004  0.000011  0.003330  0.000001  0.000000  0.000005
  2C   2s         0.000007 -0.000025 -0.015646  0.000005  0.000011 -0.000000
  2C   1pz       -0.001741  0.126710  0.010027  0.012712  0.273162 -0.000004
  2C   1px        0.000817  0.004047 -0.296257 -0.005934  0.009704  0.000002
  2C   1py       -0.036477 -0.005786 -0.006945  0.271230 -0.012634  0.000020
  2C   3s         0.000122 -0.000169  0.018029 -0.000092 -0.000137 -0.000134
  2C   2pz        0.001686  0.073088  0.001937  0.004735  0.169158 -0.000015
  2C   2px       -0.000748  0.002417 -0.059820 -0.002261  0.005946 -0.000057
  2C   2py        0.035810 -0.003345 -0.001363  0.101447 -0.007740 -0.000054
  2C   1dz2       0.000033 -0.000402 -0.003902 -0.000031 -0.000511  0.001469
  2C   1dxz      -0.000550  0.006580 -0.001092  0.000567  0.008435 -0.000363
  2C   1dyz       0.000388  0.000164 -0.000879 -0.000403  0.000211  0.017925
  2C   1dx2y2     0.000522  0.000273  0.024848 -0.000542  0.000324  0.000817
  2C   1dxy      -0.011475 -0.000298  0.001144  0.011903 -0.000380  0.000662
  3C   1s         0.000008  0.000041  0.015899  0.000002 -0.000036  0.000002
  3C   2s        -0.000017 -0.000054 -0.039320  0.000006  0.000045  0.000004
  3C   1pz       -0.003083  0.313514 -0.003896 -0.012802 -0.151507  0.000015
  3C   1px        0.001451  0.010973  0.104222  0.005937 -0.005090  0.000004
  3C   1py       -0.064237 -0.014523  0.002444 -0.270950  0.006952 -0.000009
  3C   3s        -0.000064  0.000211  0.003792 -0.000047  0.000051 -0.000093
  3C   2pz        0.001096  0.154933  0.001940 -0.004326 -0.074957  0.000034
  3C   2px       -0.000529  0.005549 -0.059959  0.002013 -0.003039 -0.000039
  3C   2py        0.023703 -0.007179 -0.001400 -0.091428  0.003215 -0.000055
  3C   1dz2      -0.000030 -0.000157 -0.002548 -0.000031  0.001175  0.001615
  3C   1dxz       0.000494  0.002540 -0.000760  0.000528 -0.019491 -0.000400
  3C   1dyz      -0.000350  0.000065 -0.000671 -0.000370 -0.000492  0.019690
  3C   1dx2y2    -0.000472  0.000104  0.018245 -0.000499 -0.000712  0.000895
  3C   1dxy       0.010348 -0.000121  0.000833  0.010913  0.000906  0.000731
  4C   1s        -0.021371  0.000021  0.008377  0.006978 -0.000006  0.000001
  4C   2s         0.047266 -0.000030 -0.013824 -0.020986  0.000030 -0.000060
  4C   1pz        0.001314  0.146711 -0.010965 -0.012144  0.219310 -0.290385
  4C   1px        0.193863  0.005605  0.258742  0.020103  0.008048 -0.010465
  4C   1py        0.179276 -0.006971 -0.029827 -0.245663 -0.010191  0.013441
  4C   3s         0.078060  0.000018 -0.046185  0.009590  0.000200  0.000104
  4C   2pz        0.001657  0.076456 -0.004035 -0.003983  0.146953 -0.205286
  4C   2px        0.036472  0.002874  0.078395  0.030840  0.005372 -0.007333
  4C   2py        0.064392 -0.003496 -0.022272 -0.061346 -0.006658  0.009492
  4C   1dz2       0.001864  0.000095  0.001448 -0.002938  0.000829  0.000753
  4C   1dxz      -0.000302  0.004903 -0.000653  0.000933 -0.001919 -0.010406
  4C   1dyz      -0.000551  0.004996 -0.000798 -0.000137  0.008816  0.001307
  4C   1dx2y2     0.009759  0.000431  0.016760 -0.006691  0.000348 -0.000314
  4C   1dxy      -0.001457 -0.000042 -0.002940  0.018873  0.000406  0.000533
  5C   1s        -0.018509 -0.000031 -0.015704 -0.003692 -0.000001 -0.000001
  5C   2s         0.040986  0.000118  0.037631  0.013282  0.000066 -0.000054
  5C   1pz        0.016216  0.197855  0.008874  0.009245  0.062841 -0.296359
  5C   1px       -0.202748  0.006790 -0.246022  0.023068  0.002121 -0.010624
  5C   1py        0.192918 -0.009008  0.006326  0.217852 -0.002911  0.013750
  5C   3s         0.078978 -0.000086  0.013839 -0.009053 -0.000389  0.000046
  5C   2pz        0.004907  0.119051  0.000941  0.001092  0.031786 -0.217325
  5C   2px       -0.050244  0.004208 -0.085392  0.033674  0.001144 -0.007790
  5C   2py        0.067639 -0.005569 -0.042295  0.050067 -0.001790  0.010093
  5C   1dz2       0.002146  0.000779  0.001956  0.002187  0.000530 -0.000506
  5C   1dxz      -0.000000  0.000288 -0.000021  0.000943 -0.011875  0.009407
  5C   1dyz      -0.000765  0.009834 -0.000697 -0.001066 -0.002732  0.001028
  5C   1dx2y2     0.009330  0.000465  0.008693  0.003525 -0.000538  0.000385
  5C   1dxy       0.004293  0.000350  0.003474  0.020039  0.000461 -0.000399
  6N   1s        -0.000005 -0.000162 -0.021610  0.000001  0.000175 -0.000000
  6N   2s         0.000011  0.000403  0.047630  0.000006 -0.000449 -0.000010
  6N   1pz       -0.002547  0.269408  0.004312  0.001838 -0.367628 -0.000012
  6N   1px        0.001116  0.010187 -0.122655 -0.000820 -0.013888  0.000002
  6N   1py       -0.052462 -0.012680 -0.002903  0.037746  0.017208  0.000034
  6N   3s         0.000041  0.000412  0.138392 -0.000023 -0.000315  0.000053
  6N   2pz       -0.001544  0.192353  0.002882  0.000462 -0.298700 -0.000020
  6N   2px        0.000673  0.007436 -0.083341 -0.000206 -0.011510 -0.000052
  6N   2py       -0.031656 -0.008995 -0.001939  0.009330  0.014005  0.000124
  6N   1dz2       0.000007  0.000475  0.001343 -0.000032 -0.000163  0.000198
  6N   1dxz      -0.000097 -0.009073  0.000063  0.000518  0.004292 -0.000049
  6N   1dyz       0.000089 -0.000220 -0.000181 -0.000382  0.000098  0.002437
  6N   1dx2y2     0.000094 -0.000345  0.001539 -0.000488  0.000168  0.000114
  6N   1dxy      -0.002028  0.000406  0.000066  0.010759 -0.000191  0.000094
  7H   1s        -0.025437 -0.000111 -0.027892  0.038195  0.000163  0.000001
  7H   2s        -0.008661 -0.000104 -0.036536  0.052511  0.000099 -0.000083
  8H   1s         0.025425  0.000002 -0.027868 -0.038192  0.000126  0.000003
  8H   2s         0.008642  0.000056 -0.036495 -0.052489  0.000002  0.000106
  9H   1s         0.133364 -0.000049 -0.083500 -0.152821 -0.000084  0.000005
  9H   2s         0.129647 -0.000008 -0.087680 -0.176097 -0.000081 -0.000027
 10H   1s         0.152352 -0.000050 -0.080869  0.139464 -0.000039  0.000006
 10H   2s         0.147884 -0.000087 -0.104873  0.170269 -0.000109 -0.000039
 11H   1s        -0.133414 -0.000026 -0.083470  0.152844 -0.000028  0.000008
 11H   2s        -0.129747  0.000022 -0.087670  0.176144  0.000003 -0.000009
 12H   1s        -0.000005  0.000329  0.215226 -0.000005  0.000087 -0.000009
 12H   2s        -0.000006  0.000331  0.235896 -0.000013  0.000100  0.000000
 13H   1s        -0.152303 -0.000163 -0.080862 -0.139433 -0.000067 -0.000007
 13H   2s        -0.147800 -0.000151 -0.104837 -0.170210 -0.000201 -0.000080
                     24        25        26        27        28        29   
                  -0.18465   0.01726   0.03579   0.08399   0.10911   0.12597
                   2.00000   0.00000   0.00000   0.00000   0.00000   0.00000
                  --------  --------  --------  --------  --------  --------
  0C   1s         0.000016  0.000003 -0.000004 -0.004638  0.046897  0.014201
  0C   2s        -0.000006  0.000021  0.000095  0.027399 -0.071663 -0.015245
  0C   1pz        0.090133  0.318353 -0.201827 -0.002344 -0.008261 -0.005596
  0C   1px        0.003174  0.011421 -0.007120  0.062084  0.063059  0.037700
  0C   1py       -0.004167 -0.014752  0.009313 -0.014252 -0.125705 -0.087670
  0C   3s        -0.000384 -0.000149 -0.000288 -0.138816 -0.766953 -0.354718
  0C   2pz        0.063489  0.425470 -0.269887  0.007315 -0.016684 -0.011374
  0C   2px        0.002166  0.015114 -0.009443  0.013556  0.091670  0.099141
  0C   2py       -0.002992 -0.020048  0.012709  0.150954 -0.282133 -0.161585
  0C   1dz2       0.000223  0.001131 -0.000413  0.002135 -0.001470  0.000907
  0C   1dxz      -0.015404 -0.017272 -0.017178  0.000061 -0.000416 -0.000467
  0C   1dyz      -0.009203  0.000681 -0.018551  0.000151  0.001115  0.000278
  0C   1dx2y2    -0.000981 -0.000593 -0.001475 -0.002845 -0.010061  0.001046
  0C   1dxy       0.000381  0.000827  0.000127 -0.004200 -0.014896 -0.011044
  1C   1s        -0.000017 -0.000003  0.000040  0.030975  0.033385  0.013049
  1C   2s         0.000019  0.000007 -0.000018 -0.067897 -0.058485  0.000584
  1C   1pz       -0.226125 -0.308364 -0.131510 -0.000763 -0.002514 -0.007230
  1C   1px       -0.008066 -0.011074 -0.004833 -0.055400 -0.045217 -0.033829
  1C   1py        0.010438  0.014253  0.006059 -0.059248 -0.091990 -0.190590
  1C   3s         0.000157 -0.000210 -0.000505 -0.135670 -0.355929 -0.521911
  1C   2pz       -0.180388 -0.421777 -0.192667 -0.016135 -0.000156 -0.009783
  1C   2px       -0.006782 -0.015538 -0.006859 -0.094282 -0.281807 -0.249867
  1C   2py        0.008182  0.019702  0.008550 -0.419937 -0.224823 -0.411344
  1C   1dz2       0.001020  0.001097 -0.002849 -0.001683 -0.003962  0.004707
  1C   1dxz      -0.006603 -0.018701  0.020753 -0.000506  0.000953  0.000704
  1C   1dyz       0.007527 -0.000963 -0.019299 -0.000269  0.000409 -0.000659
  1C   1dx2y2     0.000099 -0.000717 -0.000126  0.009511 -0.013683 -0.000519
  1C   1dxy       0.000586  0.000842 -0.001669 -0.000439  0.015039  0.008561
  2C   1s         0.000002  0.000006  0.000006  0.014923  0.035880 -0.000001
  2C   2s        -0.000008  0.000016 -0.000043 -0.036458 -0.060201  0.000009
  2C   1pz        0.290028 -0.000068  0.351843 -0.001246 -0.004810 -0.002176
  2C   1px        0.010416  0.000029  0.012654  0.015745  0.142557  0.001053
  2C   1py       -0.013437 -0.000007 -0.016311  0.000388  0.003345 -0.046232
  2C   3s         0.000029 -0.000333  0.000376  0.074238 -0.498341 -0.000169
  2C   2pz        0.235830 -0.000062  0.494623 -0.007449 -0.012136  0.000840
  2C   2px        0.008451 -0.000092  0.017848  0.182540  0.359378 -0.000332
  2C   2py       -0.010916 -0.000152 -0.022719  0.004252  0.008320  0.014696
  2C   1dz2      -0.000109  0.002403  0.000687 -0.002596 -0.002783 -0.000019
  2C   1dxz       0.001784 -0.000592 -0.011481 -0.000384 -0.000778  0.000294
  2C   1dyz       0.000046  0.029338 -0.000283 -0.000144 -0.000625 -0.000226
  2C   1dx2y2     0.000061  0.001340 -0.000421  0.007406  0.017648 -0.000278
  2C   1dxy      -0.000080  0.001084  0.000527  0.000343  0.000807  0.006156
  3C   1s         0.000041 -0.000003 -0.000024 -0.006819  0.021676  0.000006
  3C   2s        -0.000109 -0.000020  0.000160  0.031919 -0.044892  0.000021
  3C   1pz       -0.212114 -0.000095  0.405909 -0.003155  0.003322 -0.002532
  3C   1px       -0.007838 -0.000001  0.014807  0.080562 -0.094732  0.001034
  3C   1py        0.009832 -0.000029 -0.018813  0.001942 -0.002209 -0.052505
  3C   3s         0.000104  0.000286 -0.001016 -0.434067 -0.109711  0.000426
  3C   2pz       -0.155723 -0.000105  0.490832 -0.011605  0.000061  0.009424
  3C   2px       -0.005016  0.000127  0.017280  0.309125 -0.000405 -0.004823
  3C   2py        0.007557  0.000617 -0.022657  0.007744 -0.000144  0.200116
  3C   1dz2      -0.001579 -0.002552  0.000146  0.004281 -0.005952  0.000067
  3C   1dxz       0.026137  0.000629 -0.002284  0.000236 -0.001220 -0.001274
  3C   1dyz       0.000658 -0.031145 -0.000065 -0.000435 -0.000705  0.000896
  3C   1dx2y2     0.000977 -0.001418 -0.000100  0.001990  0.024710  0.001213
  3C   1dxy      -0.001204 -0.001167  0.000108  0.000065  0.001153 -0.026495
[...]
     27      -0.000508  -0.022093  -0.019845  -0.031188   0.177506  -0.306415
     28       0.000740   0.028355   0.025567  -0.125888   0.042563  -0.376608
     29      -0.016746  -0.611679  -0.551752  -0.003463  -0.004451  -0.006721
     30      -0.019642   0.012054   0.009535   0.001906  -0.073176  -0.389065
     31       0.025256  -0.015216  -0.012167   0.450599  -0.067610   0.202643
     32      -0.545538   0.331631   0.263289   0.020184  -0.000235   0.023574
     33      -0.000487   0.022024  -0.019800  -0.036692  -0.179472  -0.322693
     34       0.000769  -0.028387   0.025526   0.124278   0.034488   0.361849
     35      -0.016257   0.611957  -0.551593   0.006596   0.008094   0.028473
     36       0.021255  -0.000145   0.017144  -0.343249  -0.005163   0.195367
     37      -0.027478  -0.000041  -0.022291  -0.008110   0.238802   0.004495
     38       0.592898  -0.000111   0.480070   0.011496   0.011257  -0.006719
     39      -0.019677  -0.011920   0.009563   0.021628   0.075696  -0.379218
     40       0.025263   0.015242  -0.012211  -0.449999  -0.064339  -0.220362
     41      -0.544825  -0.331614   0.263066  -0.021306  -0.006061   0.003459
                 24         25         26         27         28         29    
      0      -0.034351  -0.038089  -0.039045  -0.063287  -0.192505   0.002734
      1       0.043223  -0.020410  -0.032459   0.078408  -0.137019  -0.007043
      2       0.003227   0.000418  -0.000110   0.005922   0.000583  -0.000417
      3       0.085546   0.005997   0.049210   0.095029   0.148368  -0.096515
      4       0.012921  -0.005369  -0.018009  -0.041546  -0.097545   0.045382
      5      -0.002470  -0.000459  -0.002594  -0.005344  -0.009850   0.005571
      6       0.001739  -0.001226  -0.012423  -0.004957  -0.004375   0.002461
      7      -0.076659   0.056766  -0.000294  -0.000027   0.200527  -0.111810
      8      -0.003618   0.002669   0.000434   0.000175   0.009432  -0.005273
      9       0.000179   0.000086  -0.012096   0.313650  -0.007133  -0.000704
     10      -0.009760  -0.004880  -0.000269   0.007450   0.322834   0.035442
     11      -0.000491  -0.000230   0.000425  -0.011052   0.015247   0.001682
     12       0.032399   0.038935  -0.040473  -0.059741   0.198385  -0.002445
     13       0.044938  -0.018527   0.030572  -0.081327  -0.127716  -0.007193
     14       0.000924  -0.002252   0.002874  -0.001629  -0.013049  -0.000238
     15      -0.086047  -0.005752   0.048446   0.092983  -0.144060   0.094443
     16       0.008868  -0.005648   0.020301   0.045899  -0.104487   0.049889
     17       0.003515  -0.000059  -0.000793  -0.001192   0.000327  -0.001104
     18      -0.001319  -0.000044   0.002762  -0.171495   0.001460   0.000548
     19       0.062009   0.002694   0.000044  -0.004052  -0.065382  -0.026666
     20       0.002942   0.000125  -0.000109   0.006055  -0.003115  -0.001262
     21       0.256285   0.007995   0.010495  -0.329293  -0.310830  -0.086686
     22      -0.086109  -0.001298  -0.004247   0.071840   0.121331   0.024756
     23      -0.012661  -0.000350  -0.000531   0.015279   0.016113   0.004144
     24      -0.252187  -0.007880   0.010483  -0.325616   0.305375   0.085384
     25      -0.097984  -0.001658   0.004802  -0.087119   0.135782   0.028757
     26       0.003902   0.000210  -0.000094   0.007604  -0.003842  -0.001596
     27      -0.158209  -0.427011  -0.419284  -0.355625   0.360333   0.329345
     28      -0.024932  -0.251331  -0.258030  -0.082440   0.188251   0.185858
     29       0.004569   0.003711   0.003156   0.008905  -0.004287  -0.003221
     30       0.461754   0.188227   0.444771  -0.347991   0.194209   0.435321
     31      -0.185367  -0.103100  -0.230088   0.215390  -0.123381  -0.239677
     32      -0.025199  -0.011538  -0.026696   0.022537  -0.012593  -0.026793
     33       0.158598   0.437208  -0.430630  -0.358434  -0.368011  -0.337214
     34      -0.017014  -0.230660   0.238193   0.065361   0.171085   0.170119
     35      -0.006490  -0.026406   0.026519   0.015905   0.021176   0.019973
     36       0.011540  -0.013983  -0.012758  -0.014418   0.002800  -0.008863
     37      -0.523783   0.639351  -0.000312  -0.000695  -0.126611   0.405189
     38      -0.024697   0.030146   0.000431   0.000530  -0.005895   0.019090
     39      -0.453071  -0.183347   0.434577  -0.338176  -0.188427  -0.424599
     40      -0.206860  -0.111757   0.250952  -0.231574  -0.132274  -0.260075
     41       0.006732   0.001444  -0.004084   0.001443   0.000565   0.003314
                 30         31         32         33         34         35    
      0      -0.150489   0.124503  -0.080593   0.121421  -0.100529  -0.012443
      1       0.015196   0.106741  -0.207689   0.034026  -0.033090   0.023194
      2       0.006115   0.000454  -0.006727  -0.002780   0.002080   0.001522
      3       0.128887   0.059622  -0.087996  -0.126707   0.120349  -0.017063
      4       0.035453  -0.089977   0.191174   0.029204  -0.027414  -0.033853
      5      -0.002984  -0.006303   0.012021   0.005912  -0.005583  -0.000953
      6       0.002838  -0.112675  -0.007593  -0.061223   0.047215   0.013890
      7      -0.132459  -0.002486   0.352449  -0.001334   0.001073   0.000356
      8      -0.006255   0.003936   0.016608   0.002137  -0.001644  -0.000482
      9       0.003263  -0.187567   0.007335   0.069464  -0.142829  -0.003435
     10      -0.153930  -0.004337  -0.337068   0.001505  -0.003282  -0.000546
     11      -0.007273   0.006596  -0.015903  -0.002556   0.004878   0.000099
     12       0.149821   0.128848   0.089147   0.122835  -0.101902  -0.014998
     13       0.022099  -0.100891  -0.203492  -0.028403   0.028372  -0.031532
     14      -0.004348  -0.009291  -0.012634  -0.005725   0.004980  -0.000920
     15      -0.130186   0.055859   0.079861  -0.125249   0.119011  -0.029441
     16       0.029513   0.092703   0.195147  -0.034990   0.032977   0.051351
     17       0.006062   0.002265   0.006176   0.002895  -0.002747   0.003441
     18      -0.001056   0.049548  -0.001211   0.076827   0.123183   0.000275
     19       0.049446   0.001140   0.053241   0.001829   0.002884   0.000064
     20       0.002343  -0.001766   0.002528  -0.002772  -0.004457  -0.000007
     21       0.160327   0.142626   0.186727  -0.534463  -0.526651   0.003428
     22      -0.046814  -0.048842  -0.061398   0.344496   0.365755  -0.003281
     23      -0.007670  -0.007448  -0.009220   0.036633   0.037665  -0.000274
     24      -0.158029   0.140484  -0.183362  -0.518971  -0.510033   0.004109
     25      -0.054241   0.055522  -0.069706  -0.369360  -0.390196   0.003388
     26       0.002848  -0.002432   0.002939   0.002658   0.001735   0.000002
     27       0.232886  -0.422541   0.268391  -0.105804   0.096532   0.161196
     28       0.264753  -0.208683  -0.018773  -0.104780   0.086579  -0.274351
     29       0.003859   0.005564  -0.010560  -0.001047   0.000531  -0.018510
     30      -0.206220  -0.403073   0.275605   0.134160  -0.114902   0.209528
     31       0.234786   0.138300   0.005308  -0.107841   0.103150   0.393485
     32       0.018289   0.020895  -0.009679  -0.009831   0.008882   0.010683
     33      -0.245076  -0.431149  -0.266698  -0.110466   0.100314   0.197378
     34       0.253817   0.188195  -0.031797   0.099653  -0.081936   0.373634
     35       0.020550   0.024176   0.008095   0.008567  -0.007407   0.010202
     36      -0.013452  -0.135171   0.009838  -0.067587   0.052484  -0.176626
     37       0.610685  -0.003715  -0.442627  -0.001744   0.001289  -0.004146
     38       0.028814   0.004662  -0.020851   0.002340  -0.001806   0.006145
     39       0.194966  -0.396978  -0.275608   0.129121  -0.110201   0.353694
     40       0.243928  -0.157509  -0.007888   0.114057  -0.108475  -0.596478
     41       0.004235   0.007050   0.009628   0.000600  -0.001072  -0.040392
                 36         37         38         39         40         41    
      0      -0.014268  -0.021982   0.029761   0.015574   0.000251  -0.000005
      1       0.026985   0.033061  -0.047646  -0.030478  -0.000184  -0.000027
      2       0.001763   0.002323  -0.003278  -0.001972  -0.000016   0.000000
      3      -0.029494   0.016833  -0.014664  -0.006453  -0.000684  -0.000101
      4      -0.055579   0.030172  -0.022879  -0.008733   0.000502   0.000523
      5      -0.001512   0.000792  -0.000532  -0.000173   0.000048   0.000028
      6       0.003083   0.043543   0.000080   0.074037  -0.000302   0.000001
      7      -0.000219   0.001034   0.003774   0.001736  -0.000007  -0.000012
      8      -0.000121  -0.001514   0.000173  -0.002575   0.000011  -0.000001
      9      -0.000684   0.002890  -0.000077  -0.001012  -0.001481   0.000028
     10       0.002285   0.000046   0.002163  -0.000024  -0.000037  -0.001269
     11       0.000131  -0.000102   0.000103   0.000035   0.000040  -0.000060
     12       0.007395  -0.020826  -0.027720   0.014354   0.000242   0.000006
     13       0.015948  -0.034710  -0.049191   0.031429   0.000195  -0.000027
     14       0.000472  -0.000859  -0.001282   0.000939   0.000002  -0.000002
     15       0.022968   0.017556   0.015222  -0.006785  -0.000662   0.000079
     16      -0.038362  -0.028357  -0.021431   0.008332  -0.000533   0.000527
     17      -0.002606  -0.001947  -0.001542   0.000631  -0.000002   0.000021
     18       0.000054  -0.000434   0.000010   0.000156   0.053397   0.001845
     19      -0.000280  -0.000008  -0.000337   0.000003   0.001213  -0.086133
     20      -0.000016   0.000014  -0.000016  -0.000005  -0.002095  -0.004099
     21       0.002797  -0.003520   0.000559   0.000748  -0.342938   0.353865
     22      -0.000385   0.000700   0.000179  -0.000439  -0.616548   0.609509
     23      -0.000127   0.000166  -0.000016  -0.000048  -0.014867   0.013986
     24      -0.001429  -0.003440  -0.000503   0.000723  -0.369935  -0.379600
     25       0.000799  -0.000872   0.000206   0.000474   0.600389   0.591333
     26       0.000098   0.000094   0.000033  -0.000005   0.043079   0.043161
     27       0.186221   0.235708  -0.326703  -0.185687  -0.000070   0.000192
     28      -0.317744  -0.392646   0.547629   0.319424   0.000881   0.000077
     29      -0.021418  -0.026671   0.037120   0.021476   0.000046  -0.000002
     30       0.346960  -0.184055   0.143623   0.056050   0.000829  -0.001874
     31       0.646715  -0.341433   0.261833   0.099529  -0.000938  -0.000399
     32       0.017468  -0.009191   0.006960   0.002593  -0.000088   0.000055
     33      -0.098874   0.222256   0.303605  -0.173011  -0.000031  -0.000195
     34      -0.187888   0.410948   0.564883  -0.330717  -0.000882   0.000069
     35      -0.005145   0.011038   0.015242  -0.009095  -0.000042   0.000008
     36      -0.038963  -0.521925  -0.001819  -0.829754   0.000756  -0.000001
     37      -0.000781  -0.012298  -0.005238  -0.019524   0.000018   0.000009
     38       0.001362   0.018152  -0.000181   0.028858  -0.000032  -0.000000
     39      -0.266387  -0.191946  -0.149893   0.059741   0.000798   0.001888
     40       0.446355   0.320866   0.246305  -0.095749   0.000972  -0.000305
     41       0.030286   0.021789   0.016817  -0.006590   0.000009  -0.000090


-----------
IR SPECTRUM
-----------

 Mode    freq (cm**-1)   T**2         TX         TY         TZ
-------------------------------------------------------------------
   7:       223.50    3.458418  (  0.075128  -0.085320   1.856204)
   8:       365.46    0.003279  (  0.009292  -0.056351  -0.004180)
   9:       379.10    2.174495  (  0.032735  -1.472659  -0.068550)
  10:       419.73    0.000068  (  0.003632  -0.005881  -0.004454)
  11:       517.90   11.993733  (  0.130356  -0.158225   3.457124)
  12:       538.01    0.035638  ( -0.188723  -0.004000   0.002369)
  13:       634.89    0.305980  ( -0.013306   0.552454   0.024450)
  14:       704.78   12.198843  ( -0.128656   0.158914  -3.486694)
  15:       760.23   43.800789  ( -0.235649   0.304042  -6.607028)
  16:       821.57    0.000040  ( -0.002713   0.005275  -0.002297)
  17:       838.60    7.046792  ( -2.652155  -0.062864   0.094404)
  18:       867.90    7.187019  ( -0.098305   0.123026  -2.676232)
  19:       944.53    0.000035  ( -0.004840   0.003408  -0.000035)
  20:       970.82    0.262931  (  0.017538  -0.023846   0.511913)
  21:      1006.62    4.124295  (  2.028916   0.049137  -0.073348)
  22:      1032.11    0.036440  (  0.004845  -0.190607  -0.009249)
  23:      1055.87    1.816525  ( -1.346635  -0.029600   0.047152)
  24:      1130.16    6.683007  (  0.052431  -2.581702  -0.122771)
  25:      1188.17    2.747804  (  0.031738  -1.655535  -0.077461)
  26:      1210.77   11.895260  ( -3.445865  -0.081834   0.120731)
  27:      1342.97   75.424348  (  8.677117   0.201815  -0.302096)
  28:      1361.40   10.092143  (  0.069291  -3.172570  -0.148811)
  29:      1374.04    1.502264  ( -0.028330   1.223988   0.057564)
  30:      1516.13    0.379606  ( -0.019367   0.615144   0.028803)
  31:      1553.65   70.569034  ( -8.393103  -0.199504   0.291651)
  32:      1637.61    7.207592  (  0.057220  -2.681135  -0.125825)
  33:      1662.43    0.066261  (  0.257273   0.002281   0.008139)
  34:      1682.72  250.057320  (-15.798509  -0.371495   0.571331)
  35:      3166.96   22.991087  ( -4.773796   0.407515   0.189440)
  36:      3168.09    6.570518  ( -0.858646  -2.413837  -0.081454)
  37:      3184.65    3.978236  (  1.992340   0.063240  -0.069409)
  38:      3189.68   51.543559  (  0.126605  -7.170403  -0.335932)
  39:      3209.08   19.409770  (  4.401589   0.110865  -0.153284)
  40:      3632.02   56.495880  ( -7.509023  -0.174050   0.283115)
  41:      3747.15   24.179402  ( -0.103607   4.910581   0.234234)

The first frequency considered to be a vibration is 7
The total number of vibrations considered is 35


--------------------------
THERMOCHEMISTRY AT 298.15K
--------------------------

Temperature         ... 298.15 K
Pressure            ... 1.00 atm
Total Mass          ... 93.13 AMU

Throughout the following assumptions are being made:
  (1) The electronic state is orbitally nondegenerate
  (2) There are no thermally accessible electronically excited states
  (3) Hindered rotations indicated by low frequency modes are not
      treated as such but are treated as vibrations and this may
      cause some error
  (4) All equations used are the standard statistical mechanics
      equations for an ideal gas
  (5) All vibrations are strictly harmonic

freq.     223.50  E(vib)   ...       0.33 
freq.     365.46  E(vib)   ...       0.22 
freq.     379.10  E(vib)   ...       0.21 
freq.     419.73  E(vib)   ...       0.18 
freq.     517.90  E(vib)   ...       0.13 
freq.     538.01  E(vib)   ...       0.12 
freq.     634.89  E(vib)   ...       0.09 
freq.     704.78  E(vib)   ...       0.07 
freq.     760.23  E(vib)   ...       0.06 
freq.     821.57  E(vib)   ...       0.05 
freq.     838.60  E(vib)   ...       0.04 
freq.     867.90  E(vib)   ...       0.04 
freq.     944.53  E(vib)   ...       0.03 
freq.     970.82  E(vib)   ...       0.03 
freq.    1006.62  E(vib)   ...       0.02 
freq.    1032.11  E(vib)   ...       0.02 
freq.    1055.87  E(vib)   ...       0.02 
freq.    1130.16  E(vib)   ...       0.01 
freq.    1188.17  E(vib)   ...       0.01 
freq.    1210.77  E(vib)   ...       0.01 
freq.    1342.97  E(vib)   ...       0.01 
freq.    1361.40  E(vib)   ...       0.01 
freq.    1374.04  E(vib)   ...       0.01 
freq.    1516.13  E(vib)   ...       0.00 
freq.    1553.65  E(vib)   ...       0.00 
freq.    1637.61  E(vib)   ...       0.00 
freq.    1662.43  E(vib)   ...       0.00 
freq.    1682.72  E(vib)   ...       0.00 
freq.    3166.96  E(vib)   ...       0.00 
freq.    3168.09  E(vib)   ...       0.00 
freq.    3184.65  E(vib)   ...       0.00 
freq.    3189.68  E(vib)   ...       0.00 
freq.    3209.08  E(vib)   ...       0.00 
freq.    3632.02  E(vib)   ...       0.00 
freq.    3747.15  E(vib)   ...       0.00 

------------
INNER ENERGY
------------

The inner energy is: U= E(el) + E(ZPE) + E(vib) + E(rot) + E(trans)
    E(el)   - is the total energy from the electronic structure calculation
              = E(kin-el) + E(nuc-el) + E(el-el) + E(nuc-nuc)
    E(ZPE)  - the the zero temperature vibrational energy from the frequency calculation
    E(vib)  - the the finite temperature correction to E(ZPE) due to population
              of excited vibrational states
    E(rot)  - is the rotational thermal energy
    E(trans)- is the translational thermal energy

Summary of contributions to the inner energy U:
Electronic energy                ...   -287.40981429 Eh
Zero point energy                ...      0.11627610 Eh      72.96 kcal/mol
Thermal vibrational correction   ...      0.00272666 Eh       1.71 kcal/mol
Thermal rotational correction    ...      0.00141627 Eh       0.89 kcal/mol
Thermal translational correction ...      0.00141627 Eh       0.89 kcal/mol
-----------------------------------------------------------------------
Total thermal energy                   -287.28797898 Eh


Summary of corrections to the electronic energy:
(perhaps to be used in another calculation)
Total thermal correction                  0.00555921 Eh       3.49 kcal/mol
Non-thermal (ZPE) correction              0.11627610 Eh      72.96 kcal/mol
-----------------------------------------------------------------------
Total correction                          0.12183531 Eh      76.45 kcal/mol


--------
ENTHALPY
--------

The enthalpy is H = U + kB*T
                kB is Boltzmann's constant
Total free energy                 ...   -287.28797898 Eh 
Thermal Enthalpy correction       ...      0.00094421 Eh       0.59 kcal/mol
-----------------------------------------------------------------------
Total Enthalpy                    ...   -287.28703477 Eh


Note: Rotational entropy computed according to Herzberg 
Infrared and Raman Spectra, Chapter V,1, Van Nostrand Reinhold, 1945 
Point Group:  C1, Symmetry Number:   1  
Rotational constants in cm-1:     0.187156     0.086357     0.059091 

Vibrational entropy computed according to the QRRHO of S. Grimme
Chem.Eur.J. 2012 18 9955


-------
ENTROPY
-------

The entropy contributions are T*S = T*(S(el)+S(vib)+S(rot)+S(trans))
     S(el)   - electronic entropy
     S(vib)  - vibrational entropy
     S(rot)  - rotational entropy
     S(trans)- translational entropy
The entropies will be listed as mutliplied by the temperature to get
units of energy

Electronic entropy                ...      0.00000000 Eh      0.00 kcal/mol
Vibrational entropy               ...      0.00396153 Eh      2.49 kcal/mol
Rotational entropy                ...      0.01279361 Eh      8.03 kcal/mol
Translational entropy             ...      0.01877043 Eh     11.78 kcal/mol
-----------------------------------------------------------------------
Final entropy term                ...      0.03552557 Eh     22.29 kcal/mol


-------------------
GIBBS FREE ENTHALPY
-------------------

The Gibbs free enthalpy is G = H - T*S

Total enthalpy                    ...   -287.28703477 Eh 
Total entropy correction          ...     -0.03552557 Eh    -22.29 kcal/mol
-----------------------------------------------------------------------
Final Gibbs free enthalpy         ...   -287.32256035 Eh

For completeness - the Gibbs free enthalpy minus the electronic energy
G-E(el)                           ...      0.08725394 Eh     54.75 kcal/mol


Timings for individual modules:

Sum of individual times         ...      543.491 sec (=   9.058 min)
GTO integral calculation        ...        0.357 sec (=   0.006 min)   0.1 %
SCF iterations                  ...       29.589 sec (=   0.493 min)   5.4 %
Analytical frequency calculation...      513.545 sec (=   8.559 min)  94.5 %
                             ****ORCA TERMINATED NORMALLY****
TOTAL RUN TIME: 0 days 0 hours 9 minutes 4 seconds 1 msec
