
                                 *****************
                                 * O   R   C   A *
                                 *****************

           --- An Ab Initio, DFT and Semiempirical electronic structure package ---

                  #######################################################
                  #                        -***-                        #
                  #          Department of theory and spectroscopy      #
                  #               Directorship: Frank Neese             #
                  #        Max Planck Institute fuer Kohlenforschung    #
                  #                Kaiser Wilhelm Platz 1               #
                  #                 D-45470 Muelheim/Ruhr               #
                  #                      Germany                        #
                  #                                                     #
                  #                  All rights reserved                #
                  #                        -***-                        #
                  #######################################################


                         Program Version 4.1.0  - RELEASE  -


 With contributions from (in alphabetic order):
   Daniel Aravena         : Magnetic Properties
   Michael Atanasov       : Ab Initio Ligand Field Theory
   Alexander A. Auer      : GIAO ZORA
   Ute Becker             : Parallelization
   Giovanni Bistoni       : ED, Open-shell LED
   Martin Brehm           : Molecular dynamics
   Dmytro Bykov           : SCF Hessian
   Vijay G. Chilkuri      : MRCI spin determinant printing
   Dipayan Datta          : RHF DLPNO-CCSD density
   Achintya Kumar Dutta   : EOM-CC, STEOM-CC
   Dmitry Ganyushin       : Spin-Orbit,Spin-Spin,Magnetic field MRCI
   Miquel Garcia          : C-PCM Hessian
   Yang Guo               : DLPNO-NEVPT2, CIM, IAO-localization
   Andreas Hansen         : Spin unrestricted coupled pair/coupled cluster methods
   Benjamin Helmich-Paris : CASSCF linear response (MC-RPA)
   Lee Huntington         : MR-EOM, pCC
   Robert Izsak           : Overlap fitted RIJCOSX, COSX-SCS-MP3, EOM
   Christian Kollmar      : KDIIS, OOCD, Brueckner-CCSD(T), CCSD density
   Simone Kossmann        : Meta GGA functionals, TD-DFT gradient, OOMP2, MP2 Hessian
   Martin Krupicka        : AUTO-CI
   Lucas Lang             : DCDCAS
   Dagmar Lenk            : GEPOL surface, SMD
   Dimitrios Liakos       : Extrapolation schemes; parallel MDCI
   Dimitrios Manganas     : ROCIS; embedding schemes
   Dimitrios Pantazis     : SARC Basis sets
   Taras Petrenko         : DFT Hessian,TD-DFT gradient, ASA, ECA, R-Raman, ABS, FL, XAS/XES, NRVS
   Peter Pinski           : DLPNO-MP2, DLPNO-MP2 Gradient
   Christoph Reimann      : Effective Core Potentials
   Marius Retegan         : Local ZFS, SOC
   Christoph Riplinger    : Optimizer, TS searches, QM/MM, DLPNO-CCSD(T), (RO)-DLPNO pert. Triples
   Tobias Risthaus        : Range-separated hybrids, TD-DFT gradient, RPA, STAB
   Michael Roemelt        : Restricted open shell CIS
   Masaaki Saitow         : Open-shell DLPNO
   Barbara Sandhoefer     : DKH picture change effects
   Avijit Sen             : IP-ROCIS
   Kantharuban Sivalingam : CASSCF convergence, NEVPT2, FIC-MRCI
   Bernardo de Souza      : ESD, SOC TD-DFT
   Georgi Stoychev        : AutoAux, RI-MP2 NMR
   Willem Van den Heuvel  : Paramagnetic NMR
   Boris Wezisla          : Elementary symmetry handling
   Frank Wennmohs         : Technical directorship


 We gratefully acknowledge several colleagues who have allowed us to
 interface, adapt or use parts of their codes:
   Stefan Grimme, W. Hujo, H. Kruse,             : VdW corrections, initial TS optimization,
                  C. Bannwarth                     DFT functionals, gCP, sTDA/sTD-DF
   Ed Valeev                                     : LibInt (2-el integral package), F12 methods
   Garnet Chan, S. Sharma, J. Yang, R. Olivares  : DMRG
   Ulf Ekstrom                                   : XCFun DFT Library
   Mihaly Kallay                                 : mrcc  (arbitrary order and MRCC methods)
   Andreas Klamt, Michael Diedenhofen            : otool_cosmo (COSMO solvation model)
   Jiri Pittner, Ondrej Demel                    : Mk-CCSD
   Frank Weinhold                                : gennbo (NPA and NBO analysis)
   Christopher J. Cramer and Donald G. Truhlar   : smd solvation model
   Lars Goerigk                                  : TD-DFT with DH, B97 family of functionals
   V. Asgeirsson, H. Jonsson                     : NEB implementation
   FAccTs GmbH                                   : IRC, NEB, NEB-TS, Multilevel


 Your calculation uses the libint2 library for the computation of 2-el integrals
 For citations please refer to: http://libint.valeyev.net

 This ORCA versions uses:
   CBLAS   interface :  Fast vector & matrix operations
   LAPACKE interface :  Fast linear algebra routines
   SCALAPACK package :  Parallel linear algebra routines




***************************************
The coordinates will be read from file: /Users/lailaal-madhagi/Desktop/Testing_XAS_Analysis_code/Acetone/Acetone_geom.xyz
***************************************


----- Orbital basis set information -----
Your calculation utilizes the basis: 6-31G*
   H-He, Li-Ne : W. J. Hehre, R. Ditchfield and J.A. Pople, J. Chem. Phys. 56, 2257 (1972).
                 Note: He and Ne are unpublished basis sets taken from the Gaussian program.
                 Note: Li and B from J. D. Dill and J. A. Pople, J. Chem. Phys. 62, 2921 (1975).
   Na - Ar     : M. M. Francl, W. J. Pietro, W. J. Hehre, J. S. Binkley, M. S. Gordon, 
                 D. J. DeFrees and J. A. Pople, J. Chem. Phys. 77, 3654 (1982).
   K - Zn      : V. A. Rassolov, J. A. Pople, M. A. Ratner, and T. L. Windus, J. Chem. Phys. 109, 1223 (1998).

================================================================================
                                        WARNINGS
                       Please study these warnings very carefully!
================================================================================


WARNING: Geometry Optimization
  ===> : Switching off AutoStart
         For restart on a previous wavefunction, please use MOREAD

INFO   : the flag for use of LIBINT has been found!

================================================================================
                                       INPUT FILE
================================================================================
NAME = /Users/lailaal-madhagi/Desktop/Testing_XAS_Analysis_code/Acetone//Results_dir_Acetone_geom_element_C_2019-11-03_20-21-49//GTE1_Acetone_geom_2019-11-03_20-22-08//opt.inp
|  1> ! B3LYP 6-31G* TIGHTSCF Grid3 FinalGrid5 Opt 
|  2> !NormalPrint 
|  3> %output 
|  4> Print[P_Basis] 2 
|  5> Print[P_MOS] 1 
|  6> end 
|  7> *xyzfile 0 1 /Users/lailaal-madhagi/Desktop/Testing_XAS_Analysis_code/Acetone/Acetone_geom.xyz                           ****END OF INPUT****
================================================================================

                       *****************************
                       * Geometry Optimization Run *
                       *****************************

Geometry optimization settings:
Update method            Update   .... BFGS
Choice of coordinates    CoordSys .... Z-matrix Internals
Initial Hessian          InHess   .... Almoef's Model

Convergence Tolerances:
Energy Change            TolE     ....  5.0000e-06 Eh
Max. Gradient            TolMAXG  ....  3.0000e-04 Eh/bohr
RMS Gradient             TolRMSG  ....  1.0000e-04 Eh/bohr
Max. Displacement        TolMAXD  ....  4.0000e-03 bohr
RMS Displacement         TolRMSD  ....  2.0000e-03 bohr

------------------------------------------------------------------------------
                        ORCA OPTIMIZATION COORDINATE SETUP
------------------------------------------------------------------------------

The optimization will be done in new redundant internal coordinates
Making redundant internal coordinates   ...  (new redundants) done
Evaluating the initial hessian          ...  (Almloef) done
Evaluating the coordinates              ...  done
Calculating the B-matrix                .... done
Calculating the G-matrix                .... done
Diagonalizing the G-matrix              .... done
The first mode is                       ....   12
The number of degrees of freedom        ....   24

    -----------------------------------------------------------------
                    Redundant Internal Coordinates


    -----------------------------------------------------------------
         Definition                    Initial Value    Approx d2E/dq
    -----------------------------------------------------------------
      1. B(C   1,C   0)                  1.4978         0.420448   
      2. B(H   2,C   0)                  1.1101         0.334520   
      3. B(H   3,C   0)                  1.1110         0.333346   
      4. B(H   4,C   0)                  1.1101         0.334511   
      5. B(C   5,C   1)                  1.4978         0.420432   
      6. B(H   6,C   5)                  1.1101         0.334519   
      7. B(H   7,C   5)                  1.1101         0.334518   
      8. B(H   8,C   5)                  1.1110         0.333345   
      9. B(O   9,C   1)                  1.2217         1.038632   
     10. A(C   1,C   0,H   3)          110.7220         0.326513   
     11. A(C   1,C   0,H   4)          109.6457         0.326700   
     12. A(C   1,C   0,H   2)          109.6461         0.326702   
     13. A(H   2,C   0,H   4)          109.2122         0.284217   
     14. A(H   3,C   0,H   4)          108.7928         0.284062   
     15. A(H   2,C   0,H   3)          108.7938         0.284063   
     16. A(C   0,C   1,C   5)          120.0643         0.378429   
     17. A(C   5,C   1,O   9)          119.9676         0.441247   
     18. A(C   0,C   1,O   9)          119.9680         0.441250   
     19. A(H   7,C   5,H   8)          108.7936         0.284062   
     20. A(H   6,C   5,H   8)          108.7937         0.284063   
     21. A(C   1,C   5,H   8)          110.7219         0.326511   
     22. A(H   6,C   5,H   7)          109.2126         0.284218   
     23. A(C   1,C   5,H   7)          109.6456         0.326699   
     24. A(C   1,C   5,H   6)          109.6452         0.326700   
     25. D(O   9,C   1,C   0,H   3)     -0.0004         0.013071   
     26. D(O   9,C   1,C   0,H   2)    120.0519         0.013071   
     27. D(C   5,C   1,C   0,H   2)    -59.9477         0.013071   
     28. D(O   9,C   1,C   0,H   4)   -120.0511         0.013071   
     29. D(C   5,C   1,C   0,H   4)     59.9494         0.013071   
     30. D(C   5,C   1,C   0,H   3)   -179.9999         0.013071   
     31. D(H   6,C   5,C   1,C   0)     59.9486         0.013070   
     32. D(H   8,C   5,C   1,O   9)      0.0005         0.013070   
     33. D(H   8,C   5,C   1,C   0)   -179.9999         0.013070   
     34. D(H   7,C   5,C   1,O   9)    120.0521         0.013070   
     35. D(H   7,C   5,C   1,C   0)    -59.9483         0.013070   
     36. D(H   6,C   5,C   1,O   9)   -120.0509         0.013070   
    -----------------------------------------------------------------

Number of atoms                         .... 10
Number of degrees of freedom            .... 36

         *************************************************************
         *                GEOMETRY OPTIMIZATION CYCLE   1            *
         *************************************************************
---------------------------------
CARTESIAN COORDINATES (ANGSTROEM)
---------------------------------
  C     -2.533630   -0.064520   -0.019760
  C     -1.182500    0.581120    0.013010
  H     -2.631570   -0.678710   -0.939220
  H     -3.336500    0.703420   -0.015090
  H     -2.657330   -0.716620    0.870020
  C      0.053580   -0.264820    0.012870
  H      0.078850   -0.888530   -0.905050
  H      0.053100   -0.926470    0.904190
  H      0.964690    0.370430    0.039160
  O     -1.088560    1.798860    0.039870

----------------------------
CARTESIAN COORDINATES (A.U.)
----------------------------
  NO LB      ZA    FRAG     MASS         X           Y           Z
   0 C     6.0000    0    12.011   -4.787867   -0.121925   -0.037341
   1 C     6.0000    0    12.011   -2.234601    1.098158    0.024585
   2 H     1.0000    0     1.008   -4.972947   -1.282576   -1.774869
   3 H     1.0000    0     1.008   -6.305071    1.329271   -0.028516
   4 H     1.0000    0     1.008   -5.021626   -1.354216    1.644100
   5 C     6.0000    0    12.011    0.101252   -0.500437    0.024321
   6 H     1.0000    0     1.008    0.149005   -1.679078   -1.710297
   7 H     1.0000    0     1.008    0.100344   -1.750775    1.708671
   8 H     1.0000    0     1.008    1.823000    0.700011    0.074002
   9 O     8.0000    0    15.999   -2.057080    3.399353    0.075343

--------------------------------
INTERNAL COORDINATES (ANGSTROEM)
--------------------------------
 C      0   0   0     0.000000000000     0.00000000     0.00000000
 C      1   0   0     1.497824141680     0.00000000     0.00000000
 H      1   2   0     1.110057787370   109.64610760     0.00000000
 H      1   2   3     1.111014801612   110.72196564   239.94775362
 H      1   2   3     1.110065109982   109.64569922   119.89705558
 C      2   1   3     1.497834526775   120.06434111   300.05232885
 H      6   2   1     1.110058495486   109.64520191    59.94861631
 H      6   2   1     1.110059590878   109.64564312   300.05167174
 H      6   2   1     1.111015372846   110.72187260   180.00008870
 O      2   1   3     1.221653343138   119.96804567   120.05188468

---------------------------
INTERNAL COORDINATES (A.U.)
---------------------------
 C      0   0   0     0.000000000000     0.00000000     0.00000000
 C      1   0   0     2.830477424551     0.00000000     0.00000000
 H      1   2   0     2.097705210955   109.64610760     0.00000000
 H      1   2   3     2.099513705779   110.72196564   239.94775362
 H      1   2   3     2.097719048688   109.64569922   119.89705558
 C      2   1   3     2.830497049537   120.06434111   300.05232885
 H      6   2   1     2.097706549101   109.64520191    59.94861631
 H      6   2   1     2.097708619092   109.64564312   300.05167174
 H      6   2   1     2.099514785255   110.72187260   180.00008870
 O      2   1   3     2.308590249120   119.96804567   120.05188468

---------------------
BASIS SET INFORMATION
---------------------
There are 3 groups of distinct atoms

 Group   1 Type C   : 10s4p1d contracted to 3s2p1d pattern {631/31/1}
 Group   2 Type H   : 4s contracted to 2s pattern {31}
 Group   3 Type O   : 10s4p1d contracted to 3s2p1d pattern {631/31/1}

Atom   0C    basis set group =>   1
Atom   1C    basis set group =>   1
Atom   2H    basis set group =>   2
Atom   3H    basis set group =>   2
Atom   4H    basis set group =>   2
Atom   5C    basis set group =>   1
Atom   6H    basis set group =>   2
Atom   7H    basis set group =>   2
Atom   8H    basis set group =>   2
Atom   9O    basis set group =>   3

-------------------------
BASIS SET IN INPUT FORMAT
-------------------------

 # Basis set for element : H 
 NewGTO H 
 S 3 
   1      18.7311370000      0.0334945995
   2       2.8253937000      0.2347269467
   3       0.6401217000      0.8137573184
 S 1 
   1       0.1612778000      1.0000000000
  end;

 # Basis set for element : C 
 NewGTO C 
 S 6 
   1    3047.5249000000      0.0018347002
   2     457.3695100000      0.0140373012
   3     103.9486900000      0.0688426061
   4      29.2101550000      0.2321844206
   5       9.2866630000      0.4679413416
   6       3.1639270000      0.3623120322
 S 3 
   1       7.8682724000     -0.1193324086
   2       1.8812885000     -0.1608542116
   3       0.5442493000      1.1434564826
 P 3 
   1       7.8682724000      0.0689990956
   2       1.8812885000      0.3164239798
   3       0.5442493000      0.7443082524
 S 1 
   1       0.1687144000      1.0000000000
 P 1 
   1       0.1687144000      1.0000000000
 D 1 
   1       0.8000000000      1.0000000000
  end;

 # Basis set for element : O 
 NewGTO O 
 S 6 
   1    5484.6717000000      0.0018310998
   2     825.2349500000      0.0139500985
   3     188.0469600000      0.0684450927
   4      52.9645000000      0.2327142753
   5      16.8975700000      0.4701929501
   6       5.7996353000      0.3585208619
 S 3 
   1      15.5396160000     -0.1107775038
   2       3.5999336000     -0.1480263051
   3       1.0137618000      1.1307670390
 P 3 
   1      15.5396160000      0.0708742995
   2       3.5999336000      0.3397527978
   3       1.0137618000      0.7271585953
 S 1 
   1       0.2700058000      1.0000000000
 P 1 
   1       0.2700058000      1.0000000000
 D 1 
   1       0.8000000000      1.0000000000
  end;

------------------------------------------------------------------------------
                           ORCA GTO INTEGRAL CALCULATION
------------------------------------------------------------------------------

                         BASIS SET STATISTICS AND STARTUP INFO

 # of primitive gaussian shells          ...   84
 # of primitive gaussian functions       ...  132
 # of contracted shells                  ...   36
 # of contracted basis functions         ...   68
 Highest angular momentum                ...    2
 Maximum contraction depth               ...    6
 Integral package used                   ... LIBINT
 Integral threshhold            Thresh   ...  2.500e-11
 Primitive cut-off              TCut     ...  2.500e-12


------------------------------ INTEGRAL EVALUATION ----------------------------


 * One electron integrals 
 Pre-screening matrix                    ... done
 Shell pair data                         ... done (   0.001 sec)

-------------------------------------------------------------------------------
                                 ORCA SCF
-------------------------------------------------------------------------------

------------
SCF SETTINGS
------------
Hamiltonian:
 Density Functional     Method          .... DFT(GTOs)
 Exchange Functional    Exchange        .... B88
   X-Alpha parameter    XAlpha          ....  0.666667
   Becke's b parameter  XBeta           ....  0.004200
 Correlation Functional Correlation     .... LYP
 LDA part of GGA corr.  LDAOpt          .... VWN-5
 Gradients option       PostSCFGGA      .... off
 Hybrid DFT is turned on
   Fraction HF Exchange ScalHFX         ....  0.200000
   Scaling of DF-GGA-X  ScalDFX         ....  0.720000
   Scaling of DF-GGA-C  ScalDFC         ....  0.810000
   Scaling of DF-LDA-C  ScalLDAC        ....  1.000000
   Perturbative correction              ....  0.000000
   Density functional embedding theory  .... OFF
   NL short-range parameter             ....  4.800000


General Settings:
 Integral files         IntName         .... /Users/lailaal-madhagi/Desktop/Testing_XAS_Analysis_code/Acetone//Results_dir_Acetone_geom_element_C_2019-11-03_20-21-49//GTE1_Acetone_geom_2019-11-03_20-22-08//opt
 Hartree-Fock type      HFTyp           .... RHF
 Total Charge           Charge          ....    0
 Multiplicity           Mult            ....    1
 Number of Electrons    NEL             ....   32
 Basis Dimension        Dim             ....   68
 Nuclear Repulsion      ENuc            ....    119.3696700387 Eh

Convergence Acceleration:
 DIIS                   CNVDIIS         .... on
   Start iteration      DIISMaxIt       ....    12
   Startup error        DIISStart       ....  0.200000
   # of expansion vecs  DIISMaxEq       ....     5
   Bias factor          DIISBfac        ....   1.050
   Max. coefficient     DIISMaxC        ....  10.000
 Newton-Raphson         CNVNR           .... off
 SOSCF                  CNVSOSCF        .... on
   Start iteration      SOSCFMaxIt      ....   150
   Startup grad/error   SOSCFStart      ....  0.003300
 Level Shifting         CNVShift        .... on
   Level shift para.    LevelShift      ....    0.2500
   Turn off err/grad.   ShiftErr        ....    0.0010
 Zerner damping         CNVZerner       .... off
 Static damping         CNVDamp         .... on
   Fraction old density DampFac         ....    0.7000
   Max. Damping (<1)    DampMax         ....    0.9800
   Min. Damping (>=0)   DampMin         ....    0.0000
   Turn off err/grad.   DampErr         ....    0.1000
 Fernandez-Rico         CNVRico         .... off

SCF Procedure:
 Maximum # iterations   MaxIter         ....   125
 SCF integral mode      SCFMode         .... Direct
   Integral package                     .... LIBINT
 Reset frequency        DirectResetFreq ....    20
 Integral Threshold     Thresh          ....  2.500e-11 Eh
 Primitive CutOff       TCut            ....  2.500e-12 Eh

Convergence Tolerance:
 Convergence Check Mode ConvCheckMode   .... Total+1el-Energy
 Convergence forced     ConvForced      .... 0
 Energy Change          TolE            ....  1.000e-08 Eh
 1-El. energy change                    ....  1.000e-05 Eh
 Orbital Gradient       TolG            ....  1.000e-05
 Orbital Rotation angle TolX            ....  1.000e-05
 DIIS Error             TolErr          ....  5.000e-07


Diagonalization of the overlap matrix:
Smallest eigenvalue                        ... 5.502e-03
Time for diagonalization                   ...    0.001 sec
Threshold for overlap eigenvalues          ... 1.000e-08
Number of eigenvalues below threshold      ... 0
Time for construction of square roots      ...    0.001 sec
Total time needed                          ...    0.003 sec

-------------------
DFT GRID GENERATION
-------------------

General Integration Accuracy     IntAcc      ...  4.340
Radial Grid Type                 RadialGrid  ... Gauss-Chebyshev
Angular Grid (max. acc.)         AngularGrid ... Lebedev-194
Angular grid pruning method      GridPruning ... 3 (G Style)
Weight generation scheme         WeightScheme... Becke
Basis function cutoff            BFCut       ...    1.0000e-11
Integration weight cutoff        WCut        ...    1.0000e-14
Grids for H and He will be reduced by one unit

# of grid points (after initial pruning)     ...  22360 (   0.0 sec)
# of grid points (after weights+screening)   ...  21207 (   0.0 sec)
nearest neighbour list constructed           ...    0.0 sec
Grid point re-assignment to atoms done       ...    0.0 sec
Grid point division into batches done        ...    0.0 sec
Reduced shell lists constructed in    0.1 sec

Total number of grid points                  ...    21207
Total number of batches                      ...      335
Average number of points per batch           ...       63
Average number of grid points per atom       ...     2121
Average number of shells per batch           ...    28.72 (79.77%)
Average number of basis functions per batch  ...    56.00 (82.36%)
Average number of large shells per batch     ...    24.15 (84.09%)
Average number of large basis fcns per batch ...    46.96 (83.86%)
Maximum spatial batch extension              ...  20.53, 19.00, 22.63 au
Average spatial batch extension              ...   3.38,  3.52,  3.48 au

Time for grid setup =    0.151 sec

------------------------------
INITIAL GUESS: MODEL POTENTIAL
------------------------------
Loading Hartree-Fock densities                     ... done
Calculating cut-offs                               ... done
Setting up the integral package                    ... done
Initializing the effective Hamiltonian             ... done
Starting the Coulomb interaction                   ... done (   0.0 sec)
Reading the grid                                   ... done
Mapping shells                                     ... done
Starting the XC term evaluation                    ... done (   0.1 sec)
  promolecular density results
     # of electrons  =     31.997553438
     EX              =    -25.357319449
     EC              =     -1.048698799
     EX+EC           =    -26.406018248
Transforming the Hamiltonian                       ... done (   0.0 sec)
Diagonalizing the Hamiltonian                      ... done (   0.0 sec)
Back transforming the eigenvectors                 ... done (   0.0 sec)
Now organizing SCF variables                       ... done
                      ------------------
                      INITIAL GUESS DONE (   0.3 sec)
                      ------------------
--------------
SCF ITERATIONS
--------------
               ***  Starting incremental Fock matrix formation  ***

                         ----------------------------
                         !        ITERATION     0   !
                         ----------------------------
   Total Energy        :    -192.858611827795 Eh
   Energy Change       :    -192.858611827795 Eh
   MAX-DP              :       0.103498077342
   RMS-DP              :       0.005151546481
   Actual Damping      :       0.7000
   Actual Level Shift  :       0.2500 Eh
   Int. Num. El.       :    32.00034085 (UP=   16.00017042 DN=   16.00017042)
   Exchange            :   -20.95911488
   Correlation         :    -1.26327739


                         ----------------------------
                         !        ITERATION     1   !
                         ----------------------------
   Total Energy        :    -192.942127552586 Eh
   Energy Change       :      -0.083515724792 Eh
   MAX-DP              :       0.062993012231
   RMS-DP              :       0.003403369803
   Actual Damping      :       0.7000
   Actual Level Shift  :       0.2500 Eh
   Int. Num. El.       :    32.00037365 (UP=   16.00018683 DN=   16.00018683)
   Exchange            :   -20.74944429
   Correlation         :    -1.25544066

                               ***Turning on DIIS***

                         ----------------------------
                         !        ITERATION     2   !
                         ----------------------------
   Total Energy        :    -192.972227088902 Eh
   Energy Change       :      -0.030099536315 Eh
   MAX-DP              :       0.071554558024
   RMS-DP              :       0.004834723498
   Actual Damping      :       0.0000
   Actual Level Shift  :       0.2500 Eh
   Int. Num. El.       :    32.00038535 (UP=   16.00019268 DN=   16.00019268)
   Exchange            :   -20.62197016
   Correlation         :    -1.25014475
   DIIS-Error          :       0.040938548118


                         ----------------------------
                         !        ITERATION     3   !
                         ----------------------------
   Total Energy        :    -193.019931710267 Eh
   Energy Change       :      -0.047704621365 Eh
   MAX-DP              :       0.041159223968
   RMS-DP              :       0.002534394615
   Actual Damping      :       0.0000
   Actual Level Shift  :       0.2500 Eh
   Int. Num. El.       :    32.00037441 (UP=   16.00018720 DN=   16.00018720)
   Exchange            :   -20.45737318
   Correlation         :    -1.24225717
   DIIS-Error          :       0.052567559107
   DIIS coefficients:
      0.60307   0.39693


                         ----------------------------
                         !        ITERATION     4   !
                         ----------------------------
   Total Energy        :    -193.030813544339 Eh
   Energy Change       :      -0.010881834071 Eh
   MAX-DP              :       0.008717818197
   RMS-DP              :       0.000737023138
   Actual Damping      :       0.0000
   Actual Level Shift  :       0.2500 Eh
   Int. Num. El.       :    32.00035924 (UP=   16.00017962 DN=   16.00017962)
   Exchange            :   -20.53711971
   Correlation         :    -1.24580340
   DIIS-Error          :       0.017044035037
   DIIS coefficients:
      0.33499   0.11515   0.54987

                      *** Initiating the SOSCF procedure ***
                           *** Shutting down DIIS ***
                      *** Re-Reading the Fockian *** 
                      *** Removing any level shift *** 

                         ----------------------------
                         !        ITERATION     5   !
                         ----------------------------
   Total Energy        :    -193.031914883373 Eh
   Energy Change       :      -0.001101339034 Eh
   MAX-DP              :       0.002987344729
   RMS-DP              :       0.000217763989
   Orbital gradient    :       0.000895844320
   Orbital Rotation    :       0.000895844320
   Actual Damping      :       0.0000
   Int. Num. El.       :    32.00036270 (UP=   16.00018135 DN=   16.00018135)
   Exchange            :   -20.54647294
   Correlation         :    -1.24663393

               *** Restarting incremental Fock matrix formation ***

                         ----------------------------
                         !        ITERATION     6   !
                         ----------------------------
   Total Energy        :    -193.031948742890 Eh
   Energy Change       :      -0.000033859517 Eh
   MAX-DP              :       0.001804223724
   RMS-DP              :       0.000119900283
   Orbital gradient    :       0.000368442938
   Orbital Rotation    :       0.000857549145
   Actual Damping      :       0.0000
   Int. Num. El.       :    32.00036368 (UP=   16.00018184 DN=   16.00018184)
   Exchange            :   -20.55104827
   Correlation         :    -1.24684821


                         ----------------------------
                         !        ITERATION     7   !
                         ----------------------------
   Total Energy        :    -193.031949998243 Eh
   Energy Change       :      -0.000001255353 Eh
   MAX-DP              :       0.000439713279
   RMS-DP              :       0.000023250568
   Orbital gradient    :       0.000251150767
   Orbital Rotation    :       0.000191043763
   Actual Damping      :       0.0000
   Int. Num. El.       :    32.00036491 (UP=   16.00018245 DN=   16.00018245)
   Exchange            :   -20.55233422
   Correlation         :    -1.24692946


                         ----------------------------
                         !        ITERATION     8   !
                         ----------------------------
   Total Energy        :    -193.031951268929 Eh
   Energy Change       :      -0.000001270686 Eh
   MAX-DP              :       0.000170485554
   RMS-DP              :       0.000010811180
   Orbital gradient    :       0.000046106277
   Orbital Rotation    :       0.000061279626
   Actual Damping      :       0.0000
   Int. Num. El.       :    32.00036482 (UP=   16.00018241 DN=   16.00018241)
   Exchange            :   -20.55158922
   Correlation         :    -1.24688960


                         ----------------------------
                         !        ITERATION     9   !
                         ----------------------------
   Total Energy        :    -193.031951282565 Eh
   Energy Change       :      -0.000000013636 Eh
   MAX-DP              :       0.000074694806
   RMS-DP              :       0.000003759503
   Orbital gradient    :       0.000033707453
   Orbital Rotation    :       0.000066018146
   Actual Damping      :       0.0000
   Int. Num. El.       :    32.00036474 (UP=   16.00018237 DN=   16.00018237)
   Exchange            :   -20.55166400
   Correlation         :    -1.24689066


                         ----------------------------
                         !        ITERATION    10   !
                         ----------------------------
   Total Energy        :    -193.031951285007 Eh
   Energy Change       :      -0.000000002441 Eh
   MAX-DP              :       0.000088824948
   RMS-DP              :       0.000005048998
   Orbital gradient    :       0.000034167537
   Orbital Rotation    :       0.000048258251
   Actual Damping      :       0.0000
   Int. Num. El.       :    32.00036474 (UP=   16.00018237 DN=   16.00018237)
   Exchange            :   -20.55163488
   Correlation         :    -1.24689103


                         ----------------------------
                         !        ITERATION    11   !
                         ----------------------------
   Total Energy        :    -193.031951290812 Eh
   Energy Change       :      -0.000000005805 Eh
   MAX-DP              :       0.000021105526
   RMS-DP              :       0.000001232377
   Orbital gradient    :       0.000003233019
   Orbital Rotation    :       0.000006226126
   Actual Damping      :       0.0000
   Int. Num. El.       :    32.00036475 (UP=   16.00018237 DN=   16.00018237)
   Exchange            :   -20.55164347
   Correlation         :    -1.24689114

                  ***Gradient check signals convergence***
              ***Rediagonalizing the Fockian in SOSCF/NRSCF***

               *****************************************************
               *                     SUCCESS                       *
               *           SCF CONVERGED AFTER  12 CYCLES          *
               *****************************************************

Setting up the final grid:

General Integration Accuracy     IntAcc      ...  5.010
Radial Grid Type                 RadialGrid  ... Gauss-Chebyshev
Angular Grid (max. acc.)         AngularGrid ... Lebedev-434
Angular grid pruning method      GridPruning ... 3 (G Style)
Weight generation scheme         WeightScheme... Becke
Basis function cutoff            BFCut       ...    1.0000e-11
Integration weight cutoff        WCut        ...    1.0000e-14
Grids for H and He will be reduced by one unit

# of grid points (after initial pruning)     ...  83088 (   0.0 sec)
# of grid points (after weights+screening)   ...  78182 (   0.1 sec)
nearest neighbour list constructed           ...    0.0 sec
Grid point re-assignment to atoms done       ...    0.0 sec
Grid point division into batches done        ...    0.4 sec
Reduced shell lists constructed in    0.6 sec

Total number of grid points                  ...    78182
Total number of batches                      ...     1226
Average number of points per batch           ...       63
Average number of grid points per atom       ...     7818
Average number of shells per batch           ...    26.80 (74.46%)
Average number of basis functions per batch  ...    52.15 (76.69%)
Average number of large shells per batch     ...    22.11 (82.50%)
Average number of large basis fcns per batch ...    42.69 (81.87%)
Maximum spatial batch extension              ...  18.82, 21.36, 21.64 au
Average spatial batch extension              ...   2.26,  2.27,  2.30 au

Final grid set up in    0.7 sec
Final integration                            ... done (   0.4 sec)
Change in XC energy                          ...    -0.000011819
Integrated number of electrons               ...    31.999994368
Previous integrated no of electrons          ...    32.000364753

----------------
TOTAL SCF ENERGY
----------------

Total Energy       :         -193.03196311 Eh           -5252.66676 eV

Components:
Nuclear Repulsion  :          119.36967004 Eh            3248.21386 eV
Electronic Energy  :         -312.40163315 Eh           -8500.88061 eV
One Electron Energy:         -497.44179607 Eh          -13536.07943 eV
Two Electron Energy:          185.04016292 Eh            5035.19882 eV

Virial components:
Potential Energy   :         -384.86993453 Eh          -10472.84335 eV
Kinetic Energy     :          191.83797142 Eh            5220.17659 eV
Virial Ratio       :            2.00622396


DFT components:
N(Alpha)           :       15.999997184001 electrons
N(Beta)            :       15.999997184001 electrons
N(Total)           :       31.999994368001 electrons
E(X)               :      -20.551654564208 Eh       
E(C)               :       -1.246887623708 Eh       
E(XC)              :      -21.798542187915 Eh       
DFET-embed. en.    :        0.000000000000 Eh       

---------------
SCF CONVERGENCE
---------------

  Last Energy change         ...   -2.4380e-10  Tolerance :   1.0000e-08
  Last MAX-Density change    ...    3.2959e-06  Tolerance :   1.0000e-07
  Last RMS-Density change    ...    2.1308e-07  Tolerance :   5.0000e-09
  Last Orbital Gradient      ...    1.9203e-06  Tolerance :   1.0000e-05
  Last Orbital Rotation      ...    2.2385e-06  Tolerance :   1.0000e-05

             **** THE GBW FILE WAS UPDATED (/Users/lailaal-madhagi/Desktop/Testing_XAS_Analysis_code/Acetone//Results_dir_Acetone_geom_element_C_2019-11-03_20-21-49//GTE1_Acetone_geom_2019-11-03_20-22-08//opt.gbw) ****
             **** DENSITY FILE WAS UPDATED (/Users/lailaal-madhagi/Desktop/Testing_XAS_Analysis_code/Acetone//Results_dir_Acetone_geom_element_C_2019-11-03_20-21-49//GTE1_Acetone_geom_2019-11-03_20-22-08//opt.scfp.tmp) ****
             **** ENERGY FILE WAS UPDATED (/Users/lailaal-madhagi/Desktop/Testing_XAS_Analysis_code/Acetone//Results_dir_Acetone_geom_element_C_2019-11-03_20-21-49//GTE1_Acetone_geom_2019-11-03_20-22-08//opt.en.tmp) ****
----------------
ORBITAL ENERGIES
----------------

  NO   OCC          E(Eh)            E(eV) 
   0   2.0000     -19.122822      -520.3584 
   1   2.0000     -10.265409      -279.3360 
   2   2.0000     -10.182885      -277.0904 
   3   2.0000     -10.182844      -277.0893 
   4   2.0000      -1.026454       -27.9312 
   5   2.0000      -0.764045       -20.7907 
   6   2.0000      -0.707050       -19.2398 
   7   2.0000      -0.524808       -14.2808 
   8   2.0000      -0.458019       -12.4633 
   9   2.0000      -0.452167       -12.3041 
  10   2.0000      -0.440822       -11.9954 
  11   2.0000      -0.403565       -10.9816 
  12   2.0000      -0.380227       -10.3465 
  13   2.0000      -0.375114       -10.2074 
  14   2.0000      -0.337871        -9.1939 
  15   2.0000      -0.237047        -6.4504 
  16   0.0000      -0.006859        -0.1866 
  17   0.0000       0.088206         2.4002 
  18   0.0000       0.132053         3.5934 
  19   0.0000       0.146288         3.9807 
  20   0.0000       0.162086         4.4106 
  21   0.0000       0.169787         4.6201 
  22   0.0000       0.177281         4.8241 
  23   0.0000       0.210731         5.7343 
  24   0.0000       0.297096         8.0844 
  25   0.0000       0.335872         9.1395 
  26   0.0000       0.493654        13.4330 
  27   0.0000       0.548106        14.9147 
  28   0.0000       0.572288        15.5728 
  29   0.0000       0.576277        15.6813 
  30   0.0000       0.590915        16.0796 
  31   0.0000       0.692913        18.8551 
  32   0.0000       0.704703        19.1760 
  33   0.0000       0.716648        19.5010 
  34   0.0000       0.772552        21.0222 
  35   0.0000       0.792984        21.5782 
  36   0.0000       0.834720        22.7139 
  37   0.0000       0.880171        23.9507 
  38   0.0000       0.891169        24.2499 
  39   0.0000       0.898246        24.4425 
  40   0.0000       0.917678        24.9713 
  41   0.0000       0.931715        25.3533 
  42   0.0000       0.950437        25.8627 
  43   0.0000       1.021613        27.7995 
  44   0.0000       1.107155        30.1272 
  45   0.0000       1.196794        32.5664 
  46   0.0000       1.401916        38.1481 
  47   0.0000       1.425825        38.7987 
  48   0.0000       1.431535        38.9541 
  49   0.0000       1.686183        45.8834 
  50   0.0000       1.776442        48.3394 
  51   0.0000       1.783459        48.5304 
  52   0.0000       1.804678        49.1078 
  53   0.0000       1.842342        50.1327 
  54   0.0000       1.933972        52.6260 
  55   0.0000       1.947067        52.9824 
  56   0.0000       2.047302        55.7099 
  57   0.0000       2.077187        56.5231 
  58   0.0000       2.099495        57.1302 
  59   0.0000       2.181510        59.3619 
  60   0.0000       2.188009        59.5388 
  61   0.0000       2.361137        64.2498 
  62   0.0000       2.418477        65.8101 
  63   0.0000       2.492280        67.8184 
  64   0.0000       2.598121        70.6985 
  65   0.0000       2.729962        74.2861 
  66   0.0000       2.964153        80.6587 
  67   0.0000       2.986966        81.2795 
------------------
MOLECULAR ORBITALS
------------------
                      0         1         2         3         4         5   
                 -19.12282 -10.26541 -10.18289 -10.18284  -1.02645  -0.76405
                   2.00000   2.00000   2.00000   2.00000   2.00000   2.00000
                  --------  --------  --------  --------  --------  --------
  0C   1s         0.000011 -0.001118  0.525691  0.845148  0.021125  0.123691
  0C   2s         0.000378  0.000941  0.020716  0.031357 -0.040435 -0.236432
  0C   1pz        0.000005  0.000022  0.000002  0.000004 -0.000720 -0.000721
  0C   1px        0.000175  0.000773  0.000413  0.000179 -0.022966 -0.053176
  0C   1py        0.000138  0.000502 -0.000201  0.000069 -0.018736  0.001917
  0C   3s        -0.001750 -0.006094 -0.021443 -0.026702 -0.015254 -0.205828
  0C   2pz        0.000017 -0.000061 -0.000052 -0.000033 -0.000115  0.000003
  0C   2px       -0.001836 -0.003870 -0.002653 -0.000859  0.005867 -0.007786
  0C   2py        0.002074 -0.000300 -0.000693 -0.000989 -0.009609  0.004804
  0C   1dz2      -0.000031 -0.000687  0.000057 -0.000046  0.002662 -0.000143
  0C   1dxz       0.000004  0.000042 -0.000001  0.000003 -0.000171 -0.000035
  0C   1dyz       0.000013  0.000029 -0.000006  0.000001 -0.000139  0.000074
  0C   1dx2y2    -0.000315  0.000412  0.000144  0.000060 -0.000968 -0.003110
  0C   1dxy       0.000362  0.000895 -0.000064  0.000051 -0.004372  0.000276
  1C   1s        -0.000247 -0.995173  0.000342 -0.001467  0.119979  0.087692
  1C   2s        -0.000550 -0.036580  0.000347 -0.001486 -0.227745 -0.175253
  1C   1pz        0.000002 -0.000040  0.000011  0.000010 -0.003874  0.004128
  1C   1px        0.000005 -0.000139  0.000962  0.000249 -0.013544  0.014450
  1C   1py        0.000068 -0.001797 -0.000146  0.000289 -0.175579  0.187185
  1C   3s        -0.008748  0.018232 -0.002070  0.008882 -0.084922 -0.120159
  1C   2pz       -0.000246 -0.000202 -0.000105 -0.000058  0.000714  0.001055
  1C   2px       -0.000860 -0.000704 -0.008890 -0.002189  0.002494  0.003556
  1C   2py       -0.011144 -0.009134  0.001023 -0.001266  0.032379  0.047761
  1C   1dz2      -0.000154  0.001263 -0.000167  0.000714  0.014673  0.004400
  1C   1dxz      -0.000005 -0.000017 -0.000021 -0.000032 -0.000109 -0.000283
  1C   1dyz       0.000024 -0.000077 -0.000011 -0.000012 -0.001066  0.000209
  1C   1dx2y2    -0.000793  0.001327 -0.000016 -0.000766  0.023019 -0.015882
  1C   1dxy       0.000123 -0.000206 -0.001210 -0.000163 -0.003569  0.002477
  2H   1s         0.000046  0.000440 -0.000042 -0.000484 -0.006648 -0.075899
  2H   2s         0.000564 -0.000544  0.003429  0.004498 -0.000260 -0.016367
  3H   1s         0.000002  0.000212 -0.000109 -0.000385 -0.008881 -0.060979
  3H   2s        -0.001054 -0.000651  0.002422  0.004986  0.002582 -0.008492
  4H   1s         0.000046  0.000440 -0.000042 -0.000484 -0.006649 -0.075901
  4H   2s         0.000564 -0.000544  0.003429  0.004498 -0.000263 -0.016388
  5C   1s         0.000011 -0.001119 -0.845249  0.525529  0.021124  0.123677
  5C   2s         0.000378  0.000941 -0.032447  0.018963 -0.040438 -0.236423
  5C   1pz        0.000001  0.000003  0.000008  0.000004 -0.000181  0.000616
  5C   1px       -0.000152 -0.000687  0.000468  0.000045  0.019820  0.052856
  5C   1py        0.000164  0.000615  0.000080  0.000145 -0.022048 -0.006295
  5C   3s        -0.001750 -0.006095  0.031041 -0.014466 -0.015240 -0.205646
  5C   2pz        0.000067  0.000035 -0.000006 -0.000018 -0.000278  0.000213
  5C   2px        0.002133  0.003778 -0.002565 -0.000487 -0.007278  0.008277
  5C   2py        0.001767 -0.000892  0.001470 -0.000511 -0.008593  0.003613
  5C   1dz2      -0.000031 -0.000688 -0.000031 -0.000067  0.002666 -0.000148
  5C   1dxz      -0.000010 -0.000002 -0.000001 -0.000000  0.000033 -0.000026
  5C   1dyz       0.000006  0.000009  0.000005  0.000002 -0.000042  0.000077
  5C   1dx2y2    -0.000410  0.000121 -0.000159 -0.000032  0.000406 -0.003049
  5C   1dxy      -0.000250 -0.000978  0.000013 -0.000067  0.004461  0.000672
  6H   1s         0.000046  0.000440  0.000251 -0.000416 -0.006648 -0.075892
  6H   2s         0.000564 -0.000544 -0.005065  0.002518 -0.000263 -0.016377
  7H   1s         0.000046  0.000440  0.000252 -0.000416 -0.006649 -0.075896
  7H   2s         0.000564 -0.000544 -0.005065  0.002518 -0.000269 -0.016405
  8H   1s         0.000002  0.000212  0.000268 -0.000298 -0.008882 -0.060970
  8H   2s        -0.001054 -0.000651 -0.004378  0.003401  0.002590 -0.008421
  9O   1s        -0.995157  0.000000  0.000003 -0.000011  0.191166 -0.069314
  9O   2s        -0.030091 -0.000956  0.000103 -0.000440 -0.418295  0.160157
  9O   1pz        0.000049 -0.000023 -0.000001  0.000005  0.003516 -0.000060
  9O   1px        0.000170 -0.000079  0.000017  0.000021  0.012289 -0.000209
  9O   1py        0.002207 -0.001022 -0.000051  0.000212  0.159401 -0.002753
  9O   3s         0.022894  0.007691  0.000025 -0.000108 -0.383884  0.152109
  9O   2pz       -0.000151 -0.000110  0.000016 -0.000003  0.001159  0.000227
  9O   2px       -0.000528 -0.000387  0.001194  0.000255  0.004056  0.000827
  9O   2py       -0.006852 -0.005009 -0.000025 -0.000310  0.052679  0.010335
  9O   1dz2      -0.000142 -0.001192  0.000071 -0.000307  0.003448  0.002001
  9O   1dxz       0.000000  0.000011 -0.000008  0.000007  0.000039 -0.000036
  9O   1dyz       0.000012  0.000082 -0.000005  0.000010 -0.000388 -0.000100
  9O   1dx2y2    -0.000311 -0.001650 -0.000050  0.000030  0.011369  0.001204
  9O   1dxy       0.000048  0.000256 -0.000259 -0.000067 -0.001758 -0.000191
                      6         7         8         9        10        11   
                  -0.70705  -0.52481  -0.45802  -0.45217  -0.44082  -0.40357
                   2.00000   2.00000   2.00000   2.00000   2.00000   2.00000
                  --------  --------  --------  --------  --------  --------
  0C   1s        -0.140802 -0.051524  0.000005  0.014579 -0.009029 -0.000002
  0C   2s         0.269783  0.100669 -0.000004 -0.028447  0.021163 -0.000006
  0C   1pz        0.000159 -0.004660  0.268119  0.006769  0.001585 -0.322875
  0C   1px       -0.003821 -0.218830 -0.003776  0.130528 -0.161317  0.004574
  0C   1py        0.009914 -0.074059 -0.005603  0.236782  0.183702  0.006750
  0C   3s         0.276487  0.133322  0.000009 -0.030697  0.017882  0.000044
  0C   2pz        0.000055 -0.001676  0.118828  0.003282  0.000571 -0.160365
  0C   2px       -0.000595 -0.068892 -0.001636  0.060232 -0.104367  0.002259
  0C   2py        0.003883 -0.032999 -0.002500  0.117229  0.098877  0.003373
  0C   1dz2       0.001998  0.007049 -0.000313 -0.011809 -0.006479  0.000711
  0C   1dxz      -0.000118 -0.000543  0.004901  0.000451 -0.000009  0.002138
  0C   1dyz      -0.000037 -0.000196 -0.011965  0.000402  0.000216  0.018160
  0C   1dx2y2    -0.002650 -0.010118 -0.000318  0.004520 -0.003109  0.000349
  0C   1dxy      -0.001462 -0.010706  0.000070  0.004559 -0.005921 -0.000305
  1C   1s         0.000005  0.132126 -0.000002 -0.000024 -0.022331 -0.000002
  1C   2s         0.000002 -0.285942  0.000021  0.000053  0.054866  0.000006
  1C   1pz       -0.002437  0.002012  0.240998 -0.004290  0.005295 -0.000016
  1C   1px       -0.193195  0.007007 -0.003478 -0.337493  0.018592  0.000039
  1C   1py        0.014966  0.091031 -0.005070  0.026220  0.238761  0.000006
  1C   3s        -0.000153 -0.250610 -0.000022  0.000214  0.032961  0.000035
  1C   2pz       -0.000201  0.001744  0.117485 -0.001040  0.000289 -0.000030
  1C   2px       -0.016030  0.006313 -0.001647 -0.080570  0.000973  0.000038
  1C   2py        0.001215  0.078680 -0.002414  0.006282  0.011483  0.000017
  1C   1dz2       0.000010 -0.000075  0.000003 -0.000012 -0.002104  0.000329
  1C   1dxz       0.000287 -0.000026  0.000004 -0.000232  0.000131  0.015082
  1C   1dyz       0.000137  0.000060  0.000065 -0.000109 -0.000091 -0.001173
  1C   1dx2y2     0.001939 -0.002494  0.000001 -0.001551  0.007216 -0.000240
  1C   1dxy       0.012447  0.000385 -0.000003 -0.009995 -0.001120 -0.000299
  2H   1s         0.091547  0.080827 -0.132106 -0.104143 -0.045146  0.172414
  2H   2s         0.022602  0.046499 -0.103655 -0.070712 -0.037366  0.138443
  3H   1s         0.095260  0.100283 -0.000014  0.026075  0.150039  0.000004
  3H   2s         0.022875  0.065169  0.000005  0.024164  0.083305 -0.000008
  4H   1s         0.091550  0.080833  0.132084 -0.104194 -0.045117 -0.172402
  4H   2s         0.022629  0.046516  0.103655 -0.070751 -0.037328 -0.138458
  5C   1s         0.140810 -0.051520  0.000002 -0.014574 -0.009029  0.000003
  5C   2s        -0.269786  0.100652  0.000010  0.028388  0.021144  0.000006
  5C   1pz       -0.000274  0.000685  0.268140 -0.004027  0.005986  0.322807
  5C   1px       -0.005266  0.204847 -0.003826  0.092739  0.187398 -0.004620
  5C   1py       -0.009219 -0.106864 -0.005663 -0.253896  0.156858 -0.006757
  5C   3s        -0.276500  0.133112 -0.000029  0.030759  0.017909 -0.000047
  5C   2pz       -0.000073 -0.000006  0.118941 -0.002015  0.003376  0.160468
  5C   2px       -0.001295  0.063175 -0.001720  0.041778  0.118129 -0.002308
  5C   2py       -0.003680 -0.043542 -0.002572 -0.125228  0.081660 -0.003424
  5C   1dz2      -0.002004  0.007075 -0.000563  0.011816 -0.006479 -0.000678
  5C   1dxz       0.000032  0.000014 -0.006673 -0.000212  0.000281 -0.000663
  5C   1dyz      -0.000005  0.000066 -0.011069 -0.000286  0.000354 -0.018272
  5C   1dx2y2     0.002079 -0.006390 -0.000137 -0.002924 -0.001163 -0.000375
  5C   1dxy      -0.002210  0.013296  0.000298  0.005746  0.006570  0.000273
  6H   1s        -0.091545  0.080829 -0.132095  0.104114 -0.045209 -0.172383
  6H   2s        -0.022607  0.046449 -0.103618  0.070650 -0.037423 -0.138372
  7H   1s        -0.091552  0.080845  0.132131  0.104100 -0.045182  0.172382
  7H   2s        -0.022639  0.046461  0.103626  0.070624 -0.037393  0.138350
  8H   1s        -0.095254  0.100257 -0.000021 -0.026003  0.149989 -0.000016
  8H   2s        -0.022794  0.065154  0.000022 -0.024133  0.083237  0.000025
  9O   1s        -0.000003 -0.070052 -0.000002  0.000034  0.070711  0.000003
  9O   2s        -0.000003  0.164803  0.000006 -0.000069 -0.162438 -0.000003
  9O   1pz       -0.000674  0.003797  0.176353 -0.003161 -0.006980 -0.000018
  9O   1px       -0.053443  0.013263 -0.002541 -0.248126 -0.024379  0.000025
  9O   1py        0.004139  0.172024 -0.003684  0.019064 -0.317567 -0.000019
  9O   3s         0.000071  0.205542 -0.000011 -0.000192 -0.257721 -0.000032
  9O   2pz       -0.000329  0.002188  0.096262 -0.001872 -0.003784 -0.000008
  9O   2px       -0.025998  0.007618 -0.001394 -0.147338 -0.013213  0.000017
  9O   2py        0.001984  0.099142 -0.002011  0.011338 -0.171889 -0.000003
  9O   1dz2       0.000001  0.006371 -0.000541  0.000000 -0.009714  0.000027
  9O   1dxz       0.000150 -0.000051 -0.001085  0.000441  0.000111  0.001255
  9O   1dyz       0.000071 -0.000455 -0.014148  0.000210  0.000621 -0.000097
  9O   1dx2y2     0.001008  0.009637 -0.000281  0.002953 -0.011609 -0.000020
  9O   1dxy       0.006492 -0.001490  0.000227  0.018965  0.001791 -0.000027
                     12        13        14        15        16        17   
                  -0.38023  -0.37511  -0.33787  -0.23705  -0.00686   0.08821
                   2.00000   2.00000   2.00000   2.00000   0.00000   0.00000
                  --------  --------  --------  --------  --------  --------
  0C   1s        -0.007996  0.006822  0.000000  0.035203  0.000002  0.095964
  0C   2s         0.016089 -0.012490 -0.000000 -0.065990 -0.000024 -0.118639
  0C   1pz        0.005474 -0.000052  0.144900 -0.005236 -0.008476  0.003473
  0C   1px        0.028413 -0.271343 -0.002063 -0.168388  0.000121  0.059435
  0C   1py        0.241915  0.180266 -0.003021 -0.135237  0.000185  0.126256
  0C   3s         0.043152 -0.040413 -0.000001 -0.282811  0.000011 -1.454762
  0C   2pz        0.002653 -0.000321  0.058976 -0.004106 -0.112769  0.010849
  0C   2px        0.024631 -0.142738 -0.000826 -0.129917  0.001634  0.293074
  0C   2py        0.111357  0.082162 -0.001232 -0.108225  0.002422  0.316717
  0C   1dz2      -0.010631 -0.008650 -0.000711  0.002845 -0.001308  0.004542
  0C   1dxz       0.000250 -0.000124 -0.006781 -0.000209 -0.025335 -0.000214
  0C   1dyz       0.000066  0.000004 -0.014986  0.000003 -0.018789 -0.000190
  0C   1dx2y2     0.010219  0.002632 -0.000216 -0.006532 -0.000033 -0.001467
  0C   1dxy      -0.007516 -0.017835  0.000355 -0.002174  0.000799 -0.003837
  1C   1s        -0.000803 -0.000001 -0.000000  0.000010  0.000006 -0.004433
  1C   2s        -0.003006  0.000020  0.000012 -0.000006 -0.000014 -0.059110
  1C   1pz       -0.006317  0.002626 -0.269514  0.001759 -0.511196  0.000643
  1C   1px       -0.021846  0.207420  0.003840  0.139151  0.007277  0.002148
  1C   1py       -0.287525 -0.015648  0.005643 -0.010766  0.010726  0.029215
  1C   3s         0.037511 -0.000053 -0.000034 -0.000359 -0.000161  0.258582
  1C   2pz       -0.000448  0.000639 -0.167188 -0.001575 -0.491132  0.003483
  1C   2px       -0.001853  0.050387  0.002373 -0.125021  0.006967  0.011315
  1C   2py       -0.021474 -0.003883  0.003519  0.009540  0.010283  0.162207
  1C   1dz2       0.001620 -0.000007 -0.001248 -0.000012  0.001055  0.010611
  1C   1dxz       0.000227 -0.000250 -0.002511 -0.001020  0.002115 -0.000274
  1C   1dyz      -0.000621 -0.000116 -0.032673 -0.000485  0.027479 -0.000354
  1C   1dx2y2     0.024273 -0.001711 -0.000648 -0.006852  0.000547 -0.001366
  1C   1dxy      -0.003788 -0.010696  0.000519 -0.044063 -0.000434  0.000232
  2H   1s        -0.094378 -0.058417 -0.097388  0.040448 -0.092821  0.022107
  2H   2s        -0.093486 -0.046638 -0.114028  0.070951 -0.278578  0.862877
  3H   1s         0.110623  0.212431  0.000008 -0.005384 -0.000002  0.022120
  3H   2s         0.105855  0.182430  0.000006  0.066641 -0.000027  0.479325
  4H   1s        -0.094382 -0.058384  0.097375  0.040444  0.092817  0.022110
  4H   2s        -0.093478 -0.046596  0.114038  0.070931  0.278670  0.862861
  5C   1s        -0.008033 -0.006783 -0.000000 -0.035209 -0.000004  0.095868
  5C   2s         0.016175  0.012409 -0.000009  0.066015 -0.000046 -0.118744
  5C   1pz        0.005235 -0.007117  0.144889  0.001284 -0.008432  0.002283
  5C   1px        0.008076 -0.295939 -0.002058 -0.145636  0.000124 -0.039356
  5C   1py        0.242926 -0.137270 -0.003013  0.159470  0.000179  0.133655
  5C   3s         0.043540  0.040219  0.000040  0.282830  0.000171 -1.452256
  5C   2pz        0.002253 -0.003436  0.059034  0.001038 -0.112718  0.004292
  5C   2px       -0.008035 -0.153614 -0.000857 -0.111837  0.001559 -0.242629
  5C   2py        0.113898 -0.059560 -0.001247  0.127282  0.002403  0.358109
  5C   1dz2      -0.010605  0.008668 -0.000468 -0.002855 -0.000271  0.004531
  5C   1dxz       0.000516 -0.000668  0.004411  0.000064  0.022166 -0.000029
  5C   1dyz       0.000191 -0.000379 -0.015855 -0.000070 -0.022479 -0.000102
  5C   1dx2y2     0.011993 -0.007963 -0.000395  0.005563 -0.000787 -0.000242
  5C   1dxy       0.003979 -0.016206  0.000133 -0.004073 -0.000145  0.004075
  6H   1s        -0.094177  0.058745 -0.097393 -0.040416 -0.092853  0.022113
  6H   2s        -0.093255  0.046972 -0.113998 -0.070830 -0.278541  0.862142
  7H   1s        -0.094158  0.058717  0.097376 -0.040410  0.092845  0.022124
  7H   2s        -0.093228  0.046952  0.113960 -0.070772  0.278480  0.861649
  8H   1s         0.109930 -0.212894  0.000007  0.005377 -0.000004  0.022128
  8H   2s         0.105254 -0.182838  0.000016 -0.066784 -0.000027  0.480338
  9O   1s        -0.037181  0.000051 -0.000001 -0.000009 -0.000001  0.019536
  9O   2s         0.076985 -0.000102  0.000005 -0.000005 -0.000005 -0.035215
  9O   1pz        0.008414  0.001231 -0.487119 -0.007413  0.417056  0.000726
  9O   1px        0.029460  0.098566  0.006937 -0.587435 -0.005935  0.002581
  9O   1py        0.380199 -0.008207  0.010219  0.045487 -0.008745  0.033014
  9O   3s         0.158914 -0.000219 -0.000001  0.000213  0.000051 -0.261443
  9O   2pz        0.004784  0.000719 -0.322040 -0.005208  0.424777  0.002834
  9O   2px        0.016805  0.057723  0.004592 -0.412747 -0.006047  0.010095
  9O   2py        0.216093 -0.004798  0.006755  0.031848 -0.008925  0.127369
  9O   1dz2       0.007081 -0.000014  0.001123 -0.000005  0.000072  0.005103
  9O   1dxz      -0.000017 -0.000197  0.002255  0.000409  0.000148 -0.000023
  9O   1dyz      -0.000591 -0.000092  0.029394  0.000192  0.001898 -0.000404
  9O   1dx2y2     0.014317 -0.001338  0.000586  0.002743  0.000035  0.009351
  9O   1dxy      -0.002238 -0.008466 -0.000467  0.017541 -0.000030 -0.001465
                     18        19        20        21        22        23   
                   0.13205   0.14629   0.16209   0.16979   0.17728   0.21073
                   0.00000   0.00000   0.00000   0.00000   0.00000   0.00000
                  --------  --------  --------  --------  --------  --------
  0C   1s         0.035534  0.101268  0.000052 -0.000043 -0.000621  0.071398
  0C   2s        -0.071171 -0.105662  0.000009  0.000118 -0.014320 -0.046366
  0C   1pz       -0.002922  0.004233  0.326189  0.285060  0.002107 -0.004479
  0C   1px        0.091504  0.147146 -0.004653 -0.004001 -0.219603 -0.170332
  0C   1py       -0.202462  0.105199 -0.006751 -0.006080  0.244883 -0.098208
  0C   3s        -0.377086 -1.737571 -0.001007  0.000527  0.159147 -1.347859
  0C   2pz       -0.009132  0.008362  1.018374  0.955271  0.007228 -0.023946
  0C   2px        0.416680  0.205481 -0.014708 -0.013149 -0.613161 -1.277455
  0C   2py       -0.724843  0.261051 -0.021149 -0.020569  0.743756 -0.272985
  0C   1dz2      -0.017031  0.005555 -0.000453  0.000788  0.004165 -0.005842
  0C   1dxz       0.000191 -0.000134 -0.015847  0.005856  0.000140  0.000860
  0C   1dyz       0.000156 -0.000124 -0.001879  0.017834 -0.000064 -0.000011
  0C   1dx2y2     0.009994 -0.002416  0.000187  0.000288  0.002725  0.023198
  0C   1dxy      -0.017652  0.001236  0.000366 -0.000386  0.009522  0.018257
  1C   1s         0.003620 -0.000069 -0.000037  0.000034 -0.000137 -0.154250
  1C   2s         0.023202  0.000120  0.000026 -0.000034  0.000194  0.182814
  1C   1pz       -0.001885 -0.000456 -0.179966  0.000339 -0.001032 -0.005356
  1C   1px       -0.006176 -0.045005  0.002558 -0.000003 -0.084143 -0.017991
  1C   1py       -0.083683  0.003059  0.003724  0.000052  0.006276 -0.244042
  1C   3s        -0.138802  0.001491  0.000934 -0.000750  0.003014  3.038635
  1C   2pz       -0.000081 -0.002862 -0.583969  0.001392 -0.000729 -0.022926
  1C   2px        0.001704 -0.246826  0.008382 -0.000188 -0.054818 -0.075402
  1C   2py       -0.000047  0.018287  0.012066  0.000331  0.002911 -1.048725
  1C   1dz2      -0.011875 -0.000052  0.000111 -0.000685 -0.000024  0.012111
  1C   1dxz      -0.000129  0.000045  0.000171 -0.031415 -0.000416 -0.000317
  1C   1dyz       0.001322  0.000030  0.003115  0.002436 -0.000188 -0.000420
  1C   1dx2y2    -0.038338  0.000254  0.000068  0.000497 -0.002670 -0.000763
  1C   1dxy       0.005929  0.002432 -0.000054  0.000639 -0.017260  0.000098
  2H   1s        -0.055307  0.046712  0.004934  0.095410  0.024061 -0.029101
  2H   2s        -0.343362  0.917020  1.029399  1.067640  0.464824  0.080990
  3H   1s         0.120435  0.000938 -0.000010  0.000076 -0.080852 -0.041860
  3H   2s         1.272005  0.610542  0.000005  0.000525 -1.360956 -0.131972
  4H   1s        -0.055305  0.046622 -0.004874 -0.095474  0.023971 -0.029117
  4H   2s        -0.343572  0.917043 -1.028390 -1.068736  0.464009  0.080981
  5C   1s         0.036171 -0.101035 -0.000043  0.000031  0.000665  0.071696
  5C   2s        -0.071310  0.105378  0.000176 -0.000196  0.014945 -0.046688
  5C   1pz       -0.005645 -0.001109  0.324892 -0.286421 -0.008215 -0.000554
  5C   1px       -0.122230  0.128553 -0.004544  0.004104 -0.254306  0.153440
  5C   1py       -0.185142 -0.127955 -0.006894  0.006174 -0.208497 -0.122437
  5C   3s        -0.389546  1.734306  0.000361 -0.000007 -0.161740 -1.355297
  5C   2pz       -0.020833 -0.004825  1.014273 -0.959957 -0.024045  0.007166
  5C   2px       -0.523245  0.161809 -0.013963  0.013455 -0.717210  1.225836
  5C   2py       -0.651400 -0.294147 -0.021733  0.020864 -0.641703 -0.470890
  5C   1dz2      -0.016979 -0.005660  0.000220 -0.000595 -0.004162 -0.005864
  5C   1dxz       0.000922  0.000183  0.015386  0.002998  0.000312 -0.000136
  5C   1dyz       0.000500  0.000153 -0.004375 -0.018518  0.000277 -0.000490
  5C   1dx2y2     0.014865  0.002786 -0.000308 -0.000435  0.000307  0.016556
  5C   1dxy       0.013763  0.000525 -0.000262  0.000200  0.009852 -0.024458
  6H   1s        -0.055024 -0.047089  0.004528 -0.095516 -0.024047 -0.029402
  6H   2s        -0.337819 -0.920416  1.023649 -1.072089 -0.465339  0.080967
  7H   1s        -0.055079 -0.047048 -0.004596  0.095604 -0.024023 -0.029319
  7H   2s        -0.338176 -0.918384 -1.024705  1.073367 -0.464250  0.081865
  8H   1s         0.120452 -0.000195 -0.000015 -0.000030  0.080763 -0.042209
  8H   2s         1.276046 -0.603602 -0.000312 -0.000334  1.360483 -0.132949
  9O   1s        -0.013969 -0.000050  0.000004  0.000002 -0.000005  0.009293
  9O   2s         0.035078  0.000128  0.000002  0.000001 -0.000011 -0.027990
  9O   1pz       -0.002592  0.001111  0.078736 -0.000161 -0.000006  0.002250
  9O   1px       -0.009410  0.092356 -0.001077 -0.000027  0.000563  0.007653
  9O   1py       -0.117809 -0.007474 -0.001623 -0.000011  0.000010  0.102382
  9O   3s         0.109290  0.000448 -0.000119 -0.000068  0.000229 -0.022582
  9O   2pz       -0.002628  0.001280  0.184667 -0.000419  0.000613  0.003193
  9O   2px       -0.009772  0.109480 -0.002601 -0.000016  0.048856  0.010285
  9O   2py       -0.120325 -0.008818 -0.003789  0.000005 -0.003726  0.147192
  9O   1dz2      -0.001101 -0.000001 -0.000016 -0.000230  0.000010  0.009066
  9O   1dxz       0.000072 -0.000085 -0.000059 -0.010494  0.000134 -0.000286
  9O   1dyz      -0.000052 -0.000039 -0.000501  0.000821  0.000064 -0.000200
  9O   1dx2y2     0.003984 -0.000526 -0.000009  0.000169  0.000915 -0.005480
  9O   1dxy      -0.000599 -0.003461  0.000009  0.000205  0.005985  0.000886
                     24        25        26        27        28        29   
                   0.29710   0.33587   0.49365   0.54811   0.57229   0.57628
                   0.00000   0.00000   0.00000   0.00000   0.00000   0.00000
                  --------  --------  --------  --------  --------  --------
  0C   1s         0.056431  0.001922  0.006011  0.000018  0.018244 -0.000087
  0C   2s         0.023576  0.046584 -0.218270 -0.000229 -0.081952  0.000700
  0C   1pz       -0.001657  0.004101 -0.005740  0.269927 -0.018889 -0.576666
  0C   1px       -0.044872  0.031550 -0.610783 -0.004253 -0.283069  0.009649
  0C   1py       -0.048031  0.173513  0.147957 -0.006466 -0.596831  0.014901
  0C   3s        -1.613494 -0.591452  0.715844 -0.000493 -0.459476  0.001127
  0C   2pz       -0.042432  0.005939  0.003579 -0.568997  0.033164  1.116412
  0C   2px       -1.240003 -0.517272  0.917735  0.008056  0.010555 -0.016280
  0C   2py       -1.180084  0.633993 -0.467372  0.013673  1.359270 -0.029547
  0C   1dz2      -0.024223 -0.010340 -0.050406 -0.001256  0.056513  0.002713
  0C   1dxz       0.001342  0.000027  0.000671  0.014325 -0.001382 -0.008976
  0C   1dyz       0.001087 -0.000417  0.000713 -0.046444 -0.002346  0.087741
  0C   1dx2y2     0.009764  0.020848  0.024129 -0.001152  0.023659  0.001892
  0C   1dxy       0.028966 -0.025124 -0.043530  0.000329 -0.013187 -0.001061
  1C   1s        -0.000298  0.048755 -0.036404 -0.000051 -0.033044  0.000124
  1C   2s         0.000611  0.015041  0.039128 -0.000470 -0.226002  0.000873
  1C   1pz       -0.007221 -0.004479 -0.001443  0.850032 -0.002934 -0.001502
  1C   1px       -0.571242 -0.015906 -0.004602 -0.012021 -0.002188  0.000265
  1C   1py        0.043680 -0.204982 -0.065647 -0.017787 -0.073449  0.000316
  1C   3s         0.004032 -1.493173 -0.484082 -0.000440 -0.538831  0.002107
  1C   2pz       -0.030616 -0.057851  0.021717 -0.682207 -0.030025  0.001951
  1C   2px       -2.425573 -0.201631  0.075926  0.009382 -0.113281  0.000008
  1C   2py        0.185495 -2.622512  0.991482  0.012282 -1.424310  0.005435
  1C   1dz2       0.000098 -0.014167  0.063101  0.000383  0.095833 -0.001057
  1C   1dxz       0.000146  0.000474 -0.002259  0.000436 -0.003140 -0.031503
  1C   1dyz       0.000064  0.000251 -0.000794  0.006265 -0.002047  0.002427
  1C   1dx2y2     0.000892  0.011321 -0.064594  0.000031 -0.061951  0.000749
  1C   1dxy       0.006213 -0.001735  0.010094 -0.000073  0.010584  0.000679
  2H   1s        -0.081619 -0.024078 -0.144501 -0.210081  0.156304  0.275741
  2H   2s        -0.259619  0.345851 -0.099904 -0.174684  0.312400  0.134556
  3H   1s        -0.048290  0.099511  0.264748 -0.000037 -0.022599  0.000328
  3H   2s         0.242589 -0.480990 -0.037081 -0.000519 -0.346320  0.001407
  4H   1s        -0.081592 -0.024106 -0.144583  0.210420  0.153650 -0.277195
  4H   2s        -0.259535  0.345825 -0.100062  0.175352  0.311207 -0.136989
  5C   1s        -0.056171  0.001947  0.006043  0.000025  0.018720 -0.000055
  5C   2s        -0.023408  0.046524 -0.218211 -0.000341 -0.085128 -0.000087
  5C   1pz        0.000743  0.003686  0.009973  0.271645 -0.008665  0.576743
  5C   1px       -0.035793 -0.004413  0.626414 -0.003572  0.195037 -0.008807
  5C   1py        0.052702  0.176102  0.051403 -0.006686 -0.642279 -0.010367
  5C   3s         1.608180 -0.592360  0.715959 -0.000219 -0.457622  0.002418
  5C   2pz        0.013568  0.020006 -0.020451 -0.572230  0.027215 -1.116816
  5C   2px       -1.040984  0.608496 -0.978579  0.008408  0.189381  0.015108
  5C   2py        1.356838  0.547011 -0.319685  0.013926  1.357577  0.019327
  5C   1dz2       0.024183 -0.010292 -0.050389 -0.002056  0.056722 -0.003837
  5C   1dxz       0.000038  0.001014  0.002477 -0.021317 -0.000995 -0.022253
  5C   1dyz      -0.000436  0.000046  0.001568 -0.043910 -0.002797 -0.085171
  5C   1dx2y2    -0.000365  0.027492  0.036199 -0.000582  0.025948 -0.001602
  5C   1dxy       0.030411  0.017596  0.033991  0.001087  0.004685  0.001620
  6H   1s         0.081693 -0.023975 -0.144418 -0.210885  0.156677 -0.276415
  6H   2s         0.260121  0.345931 -0.099830 -0.175055  0.312700 -0.137047
  7H   1s         0.081709 -0.023925 -0.144519  0.211202  0.158190  0.275409
  7H   2s         0.259968  0.346006 -0.099951  0.175774  0.313624  0.134747
  8H   1s         0.048367  0.099404  0.264663 -0.000014 -0.024417 -0.000108
  8H   2s        -0.242759 -0.480971 -0.036981 -0.000563 -0.343124  0.001160
  9O   1s         0.000009 -0.114075  0.018026 -0.000014 -0.016647  0.000068
  9O   2s        -0.000063  0.175539 -0.014044 -0.000075 -0.035532  0.000113
  9O   1pz        0.001516 -0.003373  0.000035  0.096092  0.000016 -0.000198
  9O   1px        0.119197 -0.011767  0.000021 -0.001381 -0.001464 -0.000283
  9O   1py       -0.009091 -0.153341  0.002105 -0.001989  0.009780 -0.000001
  9O   3s         0.000470  2.353909 -0.556651  0.001239  0.962313 -0.003697
  9O   2pz        0.005851 -0.022743  0.004180  0.005203 -0.007149 -0.000081
  9O   2px        0.464265 -0.079783  0.014538 -0.000088 -0.025123  0.000062
  9O   2py       -0.035828 -1.030585  0.187680 -0.000447 -0.321239  0.001263
  9O   1dz2       0.000033 -0.030636  0.020074 -0.002049  0.000023 -0.000789
  9O   1dxz       0.000073  0.000245 -0.000511 -0.004181 -0.000123 -0.036305
  9O   1dyz       0.000037  0.002187 -0.000701 -0.053655  0.000058  0.002925
  9O   1dx2y2     0.000478 -0.046428 -0.001282 -0.001065  0.001511  0.000564
  9O   1dxy       0.003277  0.007219  0.000168  0.000843 -0.000749  0.000668
                     30        31        32        33        34        35   
                   0.59091   0.69291   0.70470   0.71665   0.77255   0.79298
                   0.00000   0.00000   0.00000   0.00000   0.00000   0.00000
                  --------  --------  --------  --------  --------  --------
  0C   1s         0.022464  0.007417 -0.000022  0.030981  0.008137 -0.040586
  0C   2s        -0.228807  0.024384 -0.000213 -0.073166  0.068173  0.119891
  0C   1pz       -0.016913 -0.000388  0.576414 -0.000814  0.005700 -0.001400
  0C   1px       -0.480021  0.016094 -0.008128 -0.268519 -0.406296  0.166264
  0C   1py       -0.453505 -0.023594 -0.011826  0.131606  0.555895 -0.173871
  0C   3s         0.208723 -0.511060  0.000152  0.797199 -1.566379 -0.812934
  0C   2pz        0.025311  0.000521 -1.768612  0.017438 -0.035788 -0.012181
  0C   2px        0.652578 -0.191676  0.024827  1.198877  0.404918 -0.971551
  0C   2py        0.708238  0.134556  0.036355  0.055688 -1.998758  0.058495
  0C   1dz2       0.029266  0.013991 -0.000873 -0.065819 -0.002515  0.013022
  0C   1dxz      -0.000148 -0.000932  0.042907  0.001827 -0.001657 -0.001997
  0C   1dyz       0.000334  0.000309 -0.053568  0.001780  0.002267 -0.001872
  0C   1dx2y2    -0.029615 -0.038810 -0.001782  0.022084 -0.110368  0.009679
  0C   1dxy       0.047894 -0.001194 -0.000144 -0.006014 -0.006358 -0.085901
  1C   1s        -0.000214 -0.070331 -0.000002  0.000061  0.000009  0.020112
  1C   2s        -0.002554  0.483496 -0.000100 -0.002426  0.000570 -1.275738
  1C   1pz       -0.003577  0.021512 -0.575613 -0.009856  0.005598  0.010921
  1C   1px       -0.289008  0.074367  0.008530 -0.767034  0.438753  0.039032
  1C   1py        0.021609  0.971298  0.012404  0.059175 -0.034397  0.492862
  1C   3s        -0.004807 -0.030628  0.000534  0.003596 -0.000724  3.493943
  1C   2pz        0.003779 -0.034346  1.741371  0.028556 -0.034781 -0.021868
  1C   2px        0.329622 -0.117232 -0.025725  2.218532 -2.734139 -0.079200
  1C   2py       -0.036736 -1.540150 -0.036410 -0.172566  0.212668 -0.973088
  1C   1dz2       0.000742  0.082418 -0.001070  0.000021 -0.000106  0.001032
  1C   1dxz      -0.002521 -0.000482 -0.002088 -0.001322 -0.001232 -0.000970
  1C   1dyz      -0.001167 -0.006267 -0.028127 -0.000641 -0.000589  0.001963
  1C   1dx2y2    -0.017047  0.141296 -0.000540 -0.009241 -0.008486 -0.086169
  1C   1dxy      -0.105710 -0.022047  0.000439 -0.057791 -0.054763  0.013482
  2H   1s         0.163818  0.051971 -0.132692  0.071939  0.078719 -0.364511
  2H   2s         0.047485 -0.019176 -0.584083  0.117557 -0.523679  0.191809
  3H   1s        -0.141415  0.097005 -0.000170  0.428320  0.005719  0.017972
  3H   2s         0.167720  0.047236  0.000094  0.263856  1.104310 -0.481838
  4H   1s         0.163237  0.051834  0.132554  0.072268  0.079030 -0.364654
  4H   2s         0.047203 -0.019412  0.583360  0.117876 -0.524324  0.191580
  5C   1s        -0.022208  0.007361 -0.000004 -0.031043 -0.008077 -0.040490
  5C   2s         0.226341  0.025123 -0.000202  0.072112 -0.068437  0.118383
  5C   1pz        0.005516 -0.000855  0.576198 -0.005856 -0.017390 -0.006019
  5C   1px       -0.401303 -0.020398 -0.008333 -0.285636 -0.486915 -0.190971
  5C   1py        0.511979 -0.020918 -0.012066 -0.089594 -0.486147 -0.146558
  5C   3s        -0.213360 -0.513081  0.000778 -0.796605  1.567248 -0.806934
  5C   2pz       -0.009655  0.005638 -1.767900  0.011366  0.050762  0.012483
  5C   2px        0.538619  0.212772  0.025103  1.177999  0.706313  0.967113
  5C   2py       -0.778297  0.103326  0.037010 -0.238329  1.911666 -0.088753
  5C   1dz2      -0.028245  0.014073 -0.003003  0.066003  0.002434  0.013071
  5C   1dxz       0.002065 -0.000582 -0.050577 -0.001942  0.000596  0.001859
  5C   1dyz       0.000549  0.000464 -0.046103 -0.001895 -0.002776 -0.000069
  5C   1dx2y2     0.043254 -0.036563 -0.000223 -0.022741  0.103204  0.035422
  5C   1dxy       0.036853  0.012917  0.001752  0.001319 -0.039688  0.078957
  6H   1s        -0.161542  0.051781 -0.132238 -0.072505 -0.078403 -0.363958
  6H   2s        -0.042677 -0.018995 -0.584075 -0.117844  0.523680  0.191928
  7H   1s        -0.160919  0.051616  0.131802 -0.072498 -0.078554 -0.364020
  7H   2s        -0.042519 -0.019205  0.584190 -0.117486  0.523364  0.191501
  8H   1s         0.141144  0.096358  0.000327 -0.428411 -0.005836  0.019075
  8H   2s        -0.174157  0.046405 -0.000327 -0.265748 -1.103634 -0.483089
  9O   1s        -0.000162  0.027629  0.000018 -0.000014 -0.000010  0.015955
  9O   2s        -0.000134 -0.150096 -0.000056  0.000026  0.000106 -0.019860
  9O   1pz        0.003720  0.009748 -0.076960 -0.002923  0.002455 -0.003876
  9O   1px        0.294367  0.033974  0.001219 -0.227844  0.195750 -0.013191
  9O   1py       -0.022863  0.440795  0.001681  0.017128 -0.015222 -0.174932
  9O   3s         0.007655  0.697563 -0.000205 -0.000302 -0.000346 -0.392677
  9O   2pz        0.000215  0.001653 -0.251961 -0.001993  0.003031  0.011723
  9O   2px        0.020616  0.005457  0.003653 -0.152224  0.235464  0.040941
  9O   2py       -0.004379  0.072469  0.005485  0.011996 -0.018275  0.527107
  9O   1dz2       0.000055 -0.091467  0.001665  0.000182 -0.000023  0.057403
  9O   1dxz       0.001239  0.000591  0.003391  0.001190 -0.000845 -0.001171
  9O   1dyz       0.000599  0.006833  0.043806  0.000562 -0.000415 -0.002606
  9O   1dx2y2     0.008645 -0.151708  0.000834  0.008055 -0.005701  0.022335
  9O   1dxy       0.055162  0.023621 -0.000710  0.050938 -0.036967 -0.003545
                     36        37        38        39        40        41   
                   0.83472   0.88017   0.89117   0.89825   0.91768   0.93172
                   0.00000   0.00000   0.00000   0.00000   0.00000   0.00000
                  --------  --------  --------  --------  --------  --------
  0C   1s         0.000000  0.000003 -0.000858  0.033453 -0.022150 -0.016461
  0C   2s        -0.000130 -0.000228 -0.073555 -0.109867  0.820571  0.429342
  0C   1pz        0.481982  0.563488  0.008488  0.000992 -0.004926 -0.006769
  0C   1px       -0.006937 -0.008023  0.079879  0.291988 -0.263014  0.118555
  0C   1py       -0.009994 -0.011552  0.365418 -0.155879 -0.056567 -0.404204
  0C   3s         0.000027  0.000806  1.167195  0.289786 -1.430940 -0.158122
  0C   2pz       -0.474782 -0.974156  0.005665  0.001373  0.012505  0.016280
  0C   2px        0.006839  0.014046  0.173737 -0.172803  0.518377  0.404226
  0C   2py        0.009570  0.020142  0.119036  0.190999  0.248483  0.503907
  0C   1dz2       0.005644  0.006524  0.128621 -0.045723 -0.005796 -0.149351
  0C   1dxz       0.023909  0.045560 -0.000351 -0.000282  0.002044  0.003714
  0C   1dyz       0.139464  0.147503 -0.003843  0.000113 -0.000162  0.006138
  0C   1dx2y2     0.002561  0.002429  0.034874  0.019769  0.053232 -0.023294
  0C   1dxy      -0.002495 -0.003002  0.112538 -0.081008  0.054251  0.017198
  1C   1s         0.000004  0.000002 -0.000021  0.012041  0.032950 -0.000038
  1C   2s        -0.000127  0.000177 -0.000935  0.517160  0.825068  0.549089
  1C   1pz        0.124471 -0.000243 -0.003614  0.000161  0.001656 -0.005650
  1C   1px       -0.001737 -0.000054 -0.293037  0.000611  0.005864 -0.020096
  1C   1py       -0.002641 -0.000026  0.022746  0.006363  0.075688 -0.257018
  1C   3s         0.000081 -0.000560  0.001013  0.349599 -0.772484 -2.050014
  1C   2pz       -0.235629  0.000601  0.021637  0.017428  0.003842  0.018158
  1C   2px        0.002960  0.000327  1.736369  0.059910  0.012169  0.064224
  1C   2py        0.005028  0.000026 -0.134535  0.791918  0.166812  0.821232
  1C   1dz2      -0.001792 -0.002345  0.000131 -0.068216 -0.117235 -0.011906
  1C   1dxz      -0.003696 -0.107058  0.000124  0.000087  0.002307  0.001465
  1C   1dyz      -0.046957  0.008344  0.000030  0.005827  0.005504 -0.002007
  1C   1dx2y2    -0.000935  0.001721  0.000483 -0.144363 -0.054154  0.105236
  1C   1dxy       0.000737  0.002091  0.003256  0.022403  0.008113 -0.016379
  2H   1s         0.518427  0.505676  0.381514  0.129471 -0.157467 -0.335485
  2H   2s        -0.763323 -1.108283 -0.500215  0.086672  0.538467  0.653109
  3H   1s         0.000008 -0.000207 -0.527420  0.634561 -0.339355  0.302679
  3H   2s         0.000125  0.000350  0.591661 -0.798094  0.720075 -0.326033
  4H   1s        -0.518460 -0.505265  0.381856  0.129311 -0.157343 -0.335417
  4H   2s         0.763063  1.107414 -0.501324  0.087036  0.538353  0.653031
  5C   1s        -0.000002 -0.000021  0.000913  0.033470 -0.022383 -0.016523
  5C   2s        -0.000317  0.000679  0.070599 -0.111135  0.825945  0.429500
  5C   1pz        0.480913 -0.563881 -0.007322 -0.006827  0.001762 -0.010466
  5C   1px       -0.006973  0.008191  0.021983 -0.312757  0.252673 -0.179238
  5C   1py       -0.010036  0.011501 -0.373023 -0.108511 -0.097404 -0.381331
  5C   3s         0.000863 -0.001403 -1.161770  0.293647 -1.440994 -0.159158
  5C   2pz       -0.473026  0.973930 -0.001009  0.006443 -0.000387  0.007019
  5C   2px        0.006979 -0.014109  0.154988  0.200244 -0.476599 -0.321481
  5C   2py        0.010027 -0.020007 -0.145183  0.161968  0.326931  0.559958
  5C   1dz2       0.005100 -0.005075 -0.128495 -0.045597 -0.006369 -0.149431
  5C   1dxz      -0.002270  0.022442  0.005663  0.003239 -0.000799  0.003093
  5C   1dyz       0.141273 -0.153066  0.006431  0.001746 -0.001440  0.005899
  5C   1dx2y2     0.003006 -0.003513  0.000900  0.043406  0.034515 -0.027390
  5C   1dxy      -0.001984  0.001717  0.117898  0.071070 -0.068045 -0.009499
  6H   1s         0.517652 -0.506697 -0.380998  0.129766 -0.160233 -0.336009
  6H   2s        -0.761560  1.109481  0.498659  0.085909  0.543385  0.653438
  7H   1s        -0.517582  0.506045 -0.381599  0.129859 -0.160455 -0.336203
  7H   2s         0.761227 -1.108071  0.499601  0.085605  0.544097  0.653826
  8H   1s        -0.000110 -0.000002  0.528461  0.634470 -0.340614  0.302303
  8H   2s        -0.000202  0.000121 -0.594267 -0.798551  0.722991 -0.326107
  9O   1s        -0.000002 -0.000003 -0.000013  0.046699  0.029922 -0.015804
  9O   2s         0.000002  0.000005  0.000025 -0.161096 -0.122603  0.067210
  9O   1pz        0.284690 -0.000389 -0.002075 -0.009546 -0.009274  0.009117
  9O   1px       -0.004028 -0.000081 -0.170953 -0.033787 -0.033177  0.031691
  9O   1py       -0.005977  0.000061  0.013496 -0.435237 -0.424410  0.408895
  9O   3s        -0.000019  0.000107 -0.000031 -0.694157 -0.076123  0.067932
  9O   2pz       -0.186961  0.000262 -0.002048  0.022686  0.017623 -0.015670
  9O   2px        0.002701  0.000014 -0.159238  0.080049  0.062889 -0.054717
  9O   2py        0.003880 -0.000120  0.011891  1.030915  0.804627 -0.705017
  9O   1dz2       0.000509  0.000380  0.000046  0.035433 -0.033510 -0.027057
  9O   1dxz       0.001030  0.018073 -0.000021 -0.000742  0.000852  0.000549
  9O   1dyz       0.013219 -0.001404 -0.000011 -0.001556  0.001162  0.001235
  9O   1dx2y2     0.000274 -0.000291 -0.000097  0.011520  0.002477 -0.010996
  9O   1dxy      -0.000215 -0.000352 -0.000519 -0.001757 -0.000256  0.001699
                     42        43        44        45        46        47   
                   0.95044   1.02161   1.10716   1.19679   1.40192   1.42583
                   0.00000   0.00000   0.00000   0.00000   0.00000   0.00000
                  --------  --------  --------  --------  --------  --------
  0C   1s        -0.039249  0.000001  0.013533 -0.066050 -0.000028 -0.086814
  0C   2s         0.915053  0.000059  0.163138 -1.404084 -0.000505 -1.600531
  0C   1pz       -0.005135 -0.133207  0.002857 -0.002648 -0.086719 -0.000363
  0C   1px       -0.362018  0.001848  0.096464  0.041279  0.001167 -0.202167
  0C   1py       -0.008945  0.002801  0.069769 -0.150154  0.001857  0.121092
  0C   3s        -1.349894 -0.000414  0.835323  4.078743  0.001637  5.028277
  0C   2pz        0.017978 -0.016558  0.012778  0.021212 -0.178064  0.024251
  0C   2px        0.880705  0.000176  0.192614  0.463366  0.002956  1.231924
  0C   2py        0.278210  0.000241  0.482153  0.686131  0.003843  0.311153
  0C   1dz2      -0.022703 -0.000965 -0.047619 -0.076124  0.011035  0.045534
[...]
 0 C  py              0.1       0.0       0.1       1.3       0.0       1.1
 0 C  dz2             0.2       0.0       0.1       0.3       0.0       0.5
 0 C  dxz             0.0       0.9       0.0       0.0      25.6       0.0
 0 C  dyz             0.0       0.7       0.0       0.0       0.1       0.0
 0 C  dx2y2           0.7       0.0       1.0       0.0       0.0       3.3
 0 C  dxy             0.4       0.0       0.0       0.1       0.0       0.9
 1 C  s               0.0       0.0       0.0       9.2       0.0       0.0
 1 C  pz              0.0       5.8       0.0       0.0       0.0       0.0
 1 C  px              3.8       0.0      10.0       0.0       0.0       0.3
 1 C  py              0.0       0.0       0.1       0.1       0.0       0.0
 1 C  dz2             0.0       0.0       0.0       8.1       0.0       0.0
 1 C  dxz             0.0       0.0       0.0       0.0      39.6       0.0
 1 C  dyz             0.0       0.3       0.0       0.0       0.2       0.0
 1 C  dx2y2           0.0       0.0       0.1       0.2       0.0       0.0
 1 C  dxy             1.0       0.0       2.4       0.0       0.0       1.2
 2 H  s               8.0       0.9       0.5       1.4       0.4       1.9
 3 H  s              10.5       0.0       0.9       1.1       0.0       1.6
 4 H  s               8.0       0.9       0.5       1.4       0.4       1.9
 5 C  s              12.2       0.0       0.4      30.4       0.0      33.3
 5 C  pz              0.0       0.6       0.0       0.0       0.8       0.0
 5 C  px              6.8       0.0       0.2       0.4       0.0       3.3
 5 C  py              0.5       0.0       0.1       1.2       0.0       0.7
 5 C  dz2             0.2       0.0       0.1       0.3       0.0       0.5
 5 C  dxz             0.0       1.1       0.0       0.0      25.4       0.0
 5 C  dyz             0.0       0.4       0.0       0.0       0.3       0.0
 5 C  dx2y2           0.4       0.0       0.9       0.1       0.0       4.1
 5 C  dxy             0.7       0.0       0.1       0.0       0.0       0.1
 6 H  s               8.0       0.9       0.5       1.4       0.4       1.9
 7 H  s               8.0       0.9       0.5       1.4       0.4       1.9
 8 H  s              10.4       0.0       0.9       1.1       0.0       1.6
 9 O  s               0.0       0.0       0.0       1.0       0.0       0.0
 9 O  pz              0.0      84.2       0.0       0.0       0.0       0.0
 9 O  px              0.1       0.0      70.8       0.0       0.0       0.1
 9 O  py              0.0       0.0       0.4       1.3       0.0       0.0
 9 O  dz2             0.0       0.0       0.0       6.9       0.0       0.0
 9 O  dxz             0.0       0.0       0.0       0.0       5.2       0.0
 9 O  dyz             0.0       1.6       0.0       0.0       0.0       0.0
 9 O  dx2y2           0.0       0.0       0.2       0.2       0.0       0.1
 9 O  dxy             0.6       0.0       8.7       0.0       0.0       3.4

                     48        49        50        51        52        53   
                   1.43137   1.67405   1.76939   1.78009   1.79413   1.80833
                   0.00000   0.00000   0.00000   0.00000   0.00000   0.00000
                  --------  --------  --------  --------  --------  --------
 0 C  s               0.0       0.3       2.9       3.6       0.0       1.8
 0 C  pz              0.3       0.0       0.0       0.0       0.7       0.0
 0 C  px              0.0       0.0       0.4       1.4       0.0       0.0
 0 C  py              0.0       0.2       0.1       0.3       0.0       1.0
 0 C  dz2             0.0       1.2       5.4       0.6       0.0       6.4
 0 C  dxz            12.1       0.0       0.0       0.0       9.7       0.0
 0 C  dyz             0.4       0.0       0.0       0.0       0.1       0.0
 0 C  dx2y2           0.0       9.4       0.6       9.1       0.0      22.2
 0 C  dxy             0.0       1.8       3.7       5.3       0.0       5.3
 1 C  s               0.0       2.1      11.2       0.0       0.0       0.0
 1 C  pz              1.3       0.0       0.0       0.0       0.0       0.0
 1 C  px              0.0       0.0       0.0      12.8       0.0       1.4
 1 C  py              0.0       2.3       5.7       0.1       0.0       0.0
 1 C  dz2             0.1       0.6       6.6       0.0       0.0       0.0
 1 C  dxz             0.3       0.0       0.0       0.0       2.8       0.0
 1 C  dyz            42.8       0.0       0.0       0.0       0.0       0.0
 1 C  dx2y2           0.0       0.0       9.1       0.7       0.0       0.0
 1 C  dxy             0.0       0.0       0.2      29.4       0.0       1.4
 2 H  s               0.1       0.0       0.5       0.9       0.0       0.1
 3 H  s               0.0       0.0       0.7       1.0       0.0       0.0
 4 H  s               0.1       0.0       0.5       0.9       0.0       0.1
 5 C  s               0.0       0.3       2.9       3.6       0.0       1.8
 5 C  pz              0.3       0.0       0.0       0.0       0.7       0.0
 5 C  px              0.0       0.0       0.3       1.2       0.0       0.0
 5 C  py              0.0       0.2       0.1       0.5       0.0       0.9
 5 C  dz2             0.0       1.2       5.4       0.5       0.0       6.4
 5 C  dxz            12.4       0.0       0.0       0.0       9.7       0.0
 5 C  dx2y2           0.0      11.1       1.8       4.7       0.0      26.9
 5 C  dxy             0.0       0.1       2.6       9.6       0.0       0.6
 6 H  s               0.1       0.0       0.5       0.9       0.0       0.1
 7 H  s               0.1       0.0       0.5       0.9       0.0       0.1
 8 H  s               0.0       0.0       0.7       1.0       0.0       0.0
 9 O  s               0.0      52.0       1.8       0.0       0.0       0.0
 9 O  pz              1.7       0.0       0.0       0.0       0.0       0.0
 9 O  px              0.0       0.0       0.0       3.7       0.0       1.4
 9 O  py              0.0       3.4       0.9       0.0       0.0       0.0
 9 O  dz2             0.0       1.4      19.0       0.0       0.0       0.0
 9 O  dxz             0.2       0.0       0.0       0.0      75.5       0.0
 9 O  dyz            27.6       0.0       0.0       0.0       0.5       0.0
 9 O  dx2y2           0.0      12.0      15.7       0.2       0.0       0.5
 9 O  dxy             0.0       0.3       0.4       7.2       0.0      21.4

                     54        55        56        57        58        59   
                   1.92295   1.93672   2.03130   2.07600   2.12715   2.20125
                   0.00000   0.00000   0.00000   0.00000   0.00000   0.00000
                  --------  --------  --------  --------  --------  --------
 0 C  s               0.3       0.0       0.3       0.0       0.3       0.7
 0 C  pz              0.0       1.1       0.0       2.0       0.0       0.0
 0 C  px              0.1       0.0       0.8       0.0       0.8       0.0
 0 C  py              0.4       0.0       0.3       0.0       1.4       2.1
 0 C  dz2             1.9       0.0       2.1       0.0      16.1      30.0
 0 C  dxz             0.0      31.5       0.0       8.1       0.0       0.0
 0 C  dyz             0.0       0.2       0.0      15.3       0.0       0.0
 0 C  dx2y2           7.1       0.0      14.2       0.0       2.3       1.7
 0 C  dxy             3.1       0.0       3.6       0.0      12.2       3.0
 1 C  s               1.0       0.0       4.3       0.0       0.8       0.0
 1 C  pz              0.0       5.0       0.0       0.0       0.0       0.0
 1 C  px              0.0       0.0       0.0       0.0       0.0       2.0
 1 C  py              7.1       0.0       2.0       0.0       0.2       0.0
 1 C  dz2             0.1       0.0      25.7       0.0       2.3       0.0
 1 C  dxz             0.0       0.0       0.0      26.1       0.0       0.0
 1 C  dyz             0.0       7.3       0.0       0.2       0.0       0.0
 1 C  dx2y2           6.3       0.0       0.0       0.0      10.9       0.0
 1 C  dxy             0.2       0.0       0.0       0.0       0.3       0.2
 2 H  s               0.0       0.1       0.5       2.6       0.8       1.7
 3 H  s               0.0       0.0       0.1       0.0       5.4       4.5
 4 H  s               0.0       0.1       0.5       2.6       0.8       1.7
 5 C  s               0.3       0.0       0.3       0.0       0.3       0.7
 5 C  pz              0.0       1.1       0.0       2.0       0.0       0.0
 5 C  px              0.1       0.0       0.6       0.0       1.1       0.1
 5 C  py              0.4       0.0       0.4       0.0       1.1       2.0
 5 C  dz2             1.9       0.0       2.1       0.0      16.1      30.0
 5 C  dxz             0.0      31.5       0.0      11.7       0.0       0.0
 5 C  dyz             0.0       0.2       0.0      11.7       0.0       0.0
 5 C  dx2y2           9.4       0.0       9.1       0.0       0.1       3.1
 5 C  dxy             0.7       0.0       8.7       0.0      14.3       1.5
 6 H  s               0.0       0.1       0.5       2.6       0.8       1.7
 7 H  s               0.0       0.1       0.5       2.6       0.8       1.7
 8 H  s               0.0       0.0       0.1       0.0       5.4       4.5
 9 O  s              11.7       0.0       3.4       0.0       2.2       0.0
 9 O  pz              0.0       1.8       0.0       0.0       0.0       0.0
 9 O  py              2.2       0.0       1.5       0.0       2.0       0.0
 9 O  dz2            44.0       0.0       7.4       0.0       0.0       0.0
 9 O  dxz             0.0       0.1       0.0      12.6       0.0       0.0
 9 O  dyz             0.0      19.9       0.0       0.1       0.0       0.0
 9 O  dx2y2           1.3       0.0      10.6       0.0       1.1       0.2
 9 O  dxy             0.0       0.0       0.3       0.0       0.0       6.7

                     60        61        62        63        64        65   
                   2.20999   2.36430   2.41132   2.49398   2.60026   2.69654
                   0.00000   0.00000   0.00000   0.00000   0.00000   0.00000
                  --------  --------  --------  --------  --------  --------
 0 C  s               0.0       2.6       0.0       1.0       0.0       0.2
 0 C  pz              1.4       0.0       0.1       0.0       0.1       0.0
 0 C  px              0.0       2.2       0.0       0.8       0.0       0.4
 0 C  py              0.0       0.0       0.0       0.8       0.0       0.3
 0 C  dz2             0.1       0.3       0.1      12.4       0.0       0.0
 0 C  dxz             0.8       0.0       6.0       0.0       1.8       0.0
 0 C  dyz            38.4       0.0      23.2       0.0       0.1       0.0
 0 C  dx2y2           0.0       0.6       0.0       7.2       0.0       1.8
 0 C  dxy             0.0      25.6       0.0       1.0       0.0      15.5
 1 C  s               0.0       0.0       0.0       7.4       0.0       1.4
 1 C  pz              0.1       0.0       0.0       0.0       1.5       0.0
 1 C  px              0.0      10.3       0.0       0.0       0.0       0.0
 1 C  py              0.0       0.1       0.0       1.2       0.0       0.5
 1 C  dz2             0.0       0.0       0.0      35.6       0.1       0.5
 1 C  dxz             0.0       0.0      26.1       0.0       0.3       0.0
 1 C  dyz             0.1       0.0       0.2       0.1      44.7       0.0
 1 C  dx2y2           0.0       0.0       0.0       0.3       0.0      45.4
 1 C  dxy             0.0       1.2       0.0       0.0       0.0       1.1
 2 H  s               4.5       0.2       2.4       0.6       0.0       0.0
 3 H  s               0.0       2.2       0.0       0.4       0.0       1.0
 4 H  s               4.5       0.2       2.4       0.6       0.0       0.0
 5 C  s               0.0       2.6       0.0       1.0       0.0       0.2
 5 C  pz              1.4       0.0       0.1       0.0       0.1       0.0
 5 C  px              0.0       2.1       0.0       0.6       0.0       0.3
 5 C  py              0.0       0.1       0.0       1.0       0.0       0.4
 5 C  dz2             0.1       0.3       0.0      12.4       0.0       0.0
 5 C  dxz             0.0       0.0       2.9       0.0       1.9       0.0
 5 C  dyz            39.3       0.0      26.4       0.0       0.0       0.0
 5 C  dx2y2           0.0       0.6       0.0       5.1       0.0       6.2
 5 C  dxy             0.0      25.6       0.0       3.2       0.0      11.1
 6 H  s               4.5       0.2       2.4       0.6       0.0       0.0
 7 H  s               4.5       0.2       2.4       0.6       0.0       0.0
 8 H  s               0.0       2.2       0.0       0.4       0.0       1.0
 9 O  s               0.0       0.0       0.0       1.7       0.0       7.0
 9 O  pz              0.0       0.0       0.0       0.0       2.3       0.0
 9 O  px              0.0       1.6       0.0       0.0       0.0       0.0
 9 O  py              0.0       0.0       0.0       1.9       0.0       3.6
 9 O  dz2             0.0       0.0       0.0       0.1       0.1       1.7
 9 O  dxz             0.0       0.0       5.4       0.0       0.3       0.0
 9 O  dyz             0.1       0.0       0.0       0.0      46.7       0.0
 9 O  dx2y2           0.0       0.4       0.0       2.0       0.0       0.0
 9 O  dxy             0.0      18.5       0.0       0.0       0.0       0.0

                     66        67   
                   2.96635   2.98150
                   0.00000   0.00000
                  --------  --------
 0 C  s               0.1       0.3
 0 C  px              0.0       1.1
 0 C  dz2             0.0       1.4
 0 C  dx2y2           0.2       6.4
 0 C  dxy             0.0       0.9
 1 C  s              11.8       0.0
 1 C  px              0.1       0.8
 1 C  py             10.2       0.0
 1 C  dz2             1.6       0.0
 1 C  dx2y2           3.4       1.2
 1 C  dxy             0.1      49.0
 2 H  s               0.0       0.1
 4 H  s               0.0       0.1
 5 C  s               0.1       0.3
 5 C  px              0.0       1.0
 5 C  py              0.0       0.2
 5 C  dz2             0.0       1.4
 5 C  dx2y2           0.2       4.5
 5 C  dxy             0.0       2.8
 6 H  s               0.0       0.1
 7 H  s               0.0       0.1
 9 O  s              17.3       0.0
 9 O  px              0.0       2.1
 9 O  py              7.2       0.0
 9 O  dz2            11.8       0.0
 9 O  dx2y2          35.0       0.6
 9 O  dxy             0.8      25.4


                      *****************************
                      * MAYER POPULATION ANALYSIS *
                      *****************************

  NA   - Mulliken gross atomic population
  ZA   - Total nuclear charge
  QA   - Mulliken gross atomic charge
  VA   - Mayer's total valence
  BVA  - Mayer's bonded valence
  FA   - Mayer's free valence

  ATOM       NA         ZA         QA         VA         BVA        FA
  0 C      6.5271     6.0000    -0.5271     3.7728     3.7728     0.0000
  1 C      5.5758     6.0000     0.4242     3.9191     3.9191     0.0000
  2 H      0.8344     1.0000     0.1656     0.9316     0.9316    -0.0000
  3 H      0.8204     1.0000     0.1796     0.9387     0.9387     0.0000
  4 H      0.8344     1.0000     0.1656     0.9316     0.9316    -0.0000
  5 C      6.5276     6.0000    -0.5276     3.7729     3.7729     0.0000
  6 H      0.8342     1.0000     0.1658     0.9316     0.9316    -0.0000
  7 H      0.8342     1.0000     0.1658     0.9316     0.9316    -0.0000
  8 H      0.8203     1.0000     0.1797     0.9386     0.9386     0.0000
  9 O      8.3915     8.0000    -0.3915     2.1103     2.1103    -0.0000

  Mayer bond orders larger than 0.1
B(  0-C ,  1-C ) :   0.9656 B(  0-C ,  2-H ) :   0.9326 B(  0-C ,  3-H ) :   0.9421 
B(  0-C ,  4-H ) :   0.9326 B(  1-C ,  5-C ) :   0.9659 B(  1-C ,  9-O ) :   2.0016 
B(  5-C ,  6-H ) :   0.9326 B(  5-C ,  7-H ) :   0.9326 B(  5-C ,  8-H ) :   0.9420 


-------
TIMINGS
-------

Total SCF time: 0 days 0 hours 0 min 3 sec 

Total time                  ....       3.835 sec
Sum of individual times     ....       3.610 sec  ( 94.1%)

Fock matrix formation       ....       2.775 sec  ( 72.4%)
  XC integration            ....       0.802 sec  ( 28.9% of F)
    Basis function eval.    ....       0.312 sec  ( 39.0% of XC)
    Density eval.           ....       0.178 sec  ( 22.1% of XC)
    XC-Functional eval.     ....       0.093 sec  ( 11.6% of XC)
    XC-Potential eval.      ....       0.154 sec  ( 19.3% of XC)
Diagonalization             ....       0.001 sec  (  0.0%)
Density matrix formation    ....       0.000 sec  (  0.0%)
Population analysis         ....       0.014 sec  (  0.4%)
Initial guess               ....       0.001 sec  (  0.0%)
Orbital Transformation      ....       0.000 sec  (  0.0%)
Orbital Orthonormalization  ....       0.000 sec  (  0.0%)
DIIS solution               ....       0.000 sec  (  0.0%)
SOSCF solution              ....       0.002 sec  (  0.1%)
Grid generation             ....       0.816 sec  ( 21.3%)

-------------------------   --------------------
FINAL SINGLE POINT ENERGY      -193.034380236440
-------------------------   --------------------

                                *** OPTIMIZATION RUN DONE ***

                            ***************************************
                            *     ORCA property calculations      *
                            ***************************************

                                    ---------------------
                                    Active property flags
                                    ---------------------
   (+) Dipole Moment


------------------------------------------------------------------------------
                       ORCA ELECTRIC PROPERTIES CALCULATION
------------------------------------------------------------------------------

Dipole Moment Calculation                       ... on
Quadrupole Moment Calculation                   ... off
Polarizability Calculation                      ... off
GBWName                                         ... /Users/lailaal-madhagi/Desktop/Testing_XAS_Analysis_code/Acetone//Results_dir_Acetone_geom_element_C_2019-11-03_20-21-49//GTE1_Acetone_geom_2019-11-03_20-22-08//opt.gbw
Electron density file                           ... /Users/lailaal-madhagi/Desktop/Testing_XAS_Analysis_code/Acetone//Results_dir_Acetone_geom_element_C_2019-11-03_20-21-49//GTE1_Acetone_geom_2019-11-03_20-22-08//opt.scfp.tmp
The origin for moment calculation is the CENTER OF MASS  = (-2.241639,  1.006433  0.022647)

-------------
DIPOLE MOMENT
-------------
                                X             Y             Z
Electronic contribution:      0.30623       3.97664       0.08812
Nuclear contribution   :     -0.39176      -5.07634      -0.11240
                        -----------------------------------------
Total Dipole Moment    :     -0.08553      -1.09970      -0.02429
                        -----------------------------------------
Magnitude (a.u.)       :      1.10329
Magnitude (Debye)      :      2.80433



--------------------
Rotational spectrum 
--------------------
 
Rotational constants in cm-1:     0.336285     0.281357     0.162435 
Rotational constants in MHz : 10081.578106  8434.859433  4869.690771 

 Dipole components along the rotational axes: 
x,y,z [a.u.] :    -0.000689    -1.103286     0.000107 
x,y,z [Debye]:    -0.001751    -2.804329     0.000272 

 

Timings for individual modules:

Sum of individual times         ...       54.776 sec (=   0.913 min)
GTO integral calculation        ...        3.273 sec (=   0.055 min)   6.0 %
SCF iterations                  ...       33.944 sec (=   0.566 min)  62.0 %
SCF Gradient evaluation         ...       16.818 sec (=   0.280 min)  30.7 %
Geometry relaxation             ...        0.741 sec (=   0.012 min)   1.4 %
                             ****ORCA TERMINATED NORMALLY****
TOTAL RUN TIME: 0 days 0 hours 0 minutes 55 seconds 810 msec
