
                                 *****************
                                 * O   R   C   A *
                                 *****************

           --- An Ab Initio, DFT and Semiempirical electronic structure package ---

                  #######################################################
                  #                        -***-                        #
                  #          Department of theory and spectroscopy      #
                  #               Directorship: Frank Neese             #
                  #        Max Planck Institute fuer Kohlenforschung    #
                  #                Kaiser Wilhelm Platz 1               #
                  #                 D-45470 Muelheim/Ruhr               #
                  #                      Germany                        #
                  #                                                     #
                  #                  All rights reserved                #
                  #                        -***-                        #
                  #######################################################


                         Program Version 4.1.0  - RELEASE  -


 With contributions from (in alphabetic order):
   Daniel Aravena         : Magnetic Properties
   Michael Atanasov       : Ab Initio Ligand Field Theory
   Alexander A. Auer      : GIAO ZORA
   Ute Becker             : Parallelization
   Giovanni Bistoni       : ED, Open-shell LED
   Martin Brehm           : Molecular dynamics
   Dmytro Bykov           : SCF Hessian
   Vijay G. Chilkuri      : MRCI spin determinant printing
   Dipayan Datta          : RHF DLPNO-CCSD density
   Achintya Kumar Dutta   : EOM-CC, STEOM-CC
   Dmitry Ganyushin       : Spin-Orbit,Spin-Spin,Magnetic field MRCI
   Miquel Garcia          : C-PCM Hessian
   Yang Guo               : DLPNO-NEVPT2, CIM, IAO-localization
   Andreas Hansen         : Spin unrestricted coupled pair/coupled cluster methods
   Benjamin Helmich-Paris : CASSCF linear response (MC-RPA)
   Lee Huntington         : MR-EOM, pCC
   Robert Izsak           : Overlap fitted RIJCOSX, COSX-SCS-MP3, EOM
   Christian Kollmar      : KDIIS, OOCD, Brueckner-CCSD(T), CCSD density
   Simone Kossmann        : Meta GGA functionals, TD-DFT gradient, OOMP2, MP2 Hessian
   Martin Krupicka        : AUTO-CI
   Lucas Lang             : DCDCAS
   Dagmar Lenk            : GEPOL surface, SMD
   Dimitrios Liakos       : Extrapolation schemes; parallel MDCI
   Dimitrios Manganas     : ROCIS; embedding schemes
   Dimitrios Pantazis     : SARC Basis sets
   Taras Petrenko         : DFT Hessian,TD-DFT gradient, ASA, ECA, R-Raman, ABS, FL, XAS/XES, NRVS
   Peter Pinski           : DLPNO-MP2, DLPNO-MP2 Gradient
   Christoph Reimann      : Effective Core Potentials
   Marius Retegan         : Local ZFS, SOC
   Christoph Riplinger    : Optimizer, TS searches, QM/MM, DLPNO-CCSD(T), (RO)-DLPNO pert. Triples
   Tobias Risthaus        : Range-separated hybrids, TD-DFT gradient, RPA, STAB
   Michael Roemelt        : Restricted open shell CIS
   Masaaki Saitow         : Open-shell DLPNO
   Barbara Sandhoefer     : DKH picture change effects
   Avijit Sen             : IP-ROCIS
   Kantharuban Sivalingam : CASSCF convergence, NEVPT2, FIC-MRCI
   Bernardo de Souza      : ESD, SOC TD-DFT
   Georgi Stoychev        : AutoAux, RI-MP2 NMR
   Willem Van den Heuvel  : Paramagnetic NMR
   Boris Wezisla          : Elementary symmetry handling
   Frank Wennmohs         : Technical directorship


 We gratefully acknowledge several colleagues who have allowed us to
 interface, adapt or use parts of their codes:
   Stefan Grimme, W. Hujo, H. Kruse,             : VdW corrections, initial TS optimization,
                  C. Bannwarth                     DFT functionals, gCP, sTDA/sTD-DF
   Ed Valeev                                     : LibInt (2-el integral package), F12 methods
   Garnet Chan, S. Sharma, J. Yang, R. Olivares  : DMRG
   Ulf Ekstrom                                   : XCFun DFT Library
   Mihaly Kallay                                 : mrcc  (arbitrary order and MRCC methods)
   Andreas Klamt, Michael Diedenhofen            : otool_cosmo (COSMO solvation model)
   Jiri Pittner, Ondrej Demel                    : Mk-CCSD
   Frank Weinhold                                : gennbo (NPA and NBO analysis)
   Christopher J. Cramer and Donald G. Truhlar   : smd solvation model
   Lars Goerigk                                  : TD-DFT with DH, B97 family of functionals
   V. Asgeirsson, H. Jonsson                     : NEB implementation
   FAccTs GmbH                                   : IRC, NEB, NEB-TS, Multilevel


 Your calculation uses the libint2 library for the computation of 2-el integrals
 For citations please refer to: http://libint.valeyev.net

 This ORCA versions uses:
   CBLAS   interface :  Fast vector & matrix operations
   LAPACKE interface :  Fast linear algebra routines
   SCALAPACK package :  Parallel linear algebra routines




***************************************
The coordinates will be read from file: /Users/lailaal-madhagi/Desktop/Testing_XAS_Analysis_code/CarbonMonoxide//Results_dir_CarbonMonoxide_geom_element_O_2019-11-10_01-09-08//GTE1_CarbonMonoxide_geom_2019-11-10_01-09-22//opt.xyz
***************************************


----- Orbital basis set information -----
Your calculation utilizes the basis: 6-31G*
   H-He, Li-Ne : W. J. Hehre, R. Ditchfield and J.A. Pople, J. Chem. Phys. 56, 2257 (1972).
                 Note: He and Ne are unpublished basis sets taken from the Gaussian program.
                 Note: Li and B from J. D. Dill and J. A. Pople, J. Chem. Phys. 62, 2921 (1975).
   Na - Ar     : M. M. Francl, W. J. Pietro, W. J. Hehre, J. S. Binkley, M. S. Gordon, 
                 D. J. DeFrees and J. A. Pople, J. Chem. Phys. 77, 3654 (1982).
   K - Zn      : V. A. Rassolov, J. A. Pople, M. A. Ratner, and T. L. Windus, J. Chem. Phys. 109, 1223 (1998).

================================================================================
                                        WARNINGS
                       Please study these warnings very carefully!
================================================================================

INFO   : Checking CIS options ...

WARNING: CIS/ROCIS methods need fully converged wavefunctions
  ===> : Setting SCFConvForced true
         You can overwrite this default with %scf ConvForced false 


INFO   : the flag for use of LIBINT has been found!

================================================================================
                                       INPUT FILE
================================================================================
NAME = /Users/lailaal-madhagi/Desktop/Testing_XAS_Analysis_code/CarbonMonoxide//Results_dir_CarbonMonoxide_geom_element_O_2019-11-10_01-09-08//GTE1_CarbonMonoxide_geom_2019-11-10_01-09-22//TDDFT_O-edge.inp
|  1> #This is O K-edge calculation 
|  2> ! B3LYP 6-31G* TIGHTSCF Grid3 FinalGrid5 
|  3> !NormalPrint 
|  4> %output 
|  5> Print[P_Basis] 2 
|  6> Print[P_MOS] 1 
|  7> end 
|  8> 
|  9> %tddft 
| 10> orbwin[0]=0,0,-1,-1 
| 11> nroots=20 
| 12> maxdim=200 
| 13> end 
| 14> *xyzfile 0 1 /Users/lailaal-madhagi/Desktop/Testing_XAS_Analysis_code/CarbonMonoxide//Results_dir_CarbonMonoxide_geom_element_O_2019-11-10_01-09-08//GTE1_CarbonMonoxide_geom_2019-11-10_01-09-22//opt.xyz                           ****END OF INPUT****
================================================================================

                       ****************************
                       * Single Point Calculation *
                       ****************************

---------------------------------
CARTESIAN COORDINATES (ANGSTROEM)
---------------------------------
  C     -1.760476   -0.005606    0.306790
  O     -0.660764    0.135386    0.050760

----------------------------
CARTESIAN COORDINATES (A.U.)
----------------------------
  NO LB      ZA    FRAG     MASS         X           Y           Z
   0 C     6.0000    0    12.011   -3.326818   -0.010594    0.579750
   1 O     8.0000    0    15.999   -1.248662    0.255842    0.095922

--------------------------------
INTERNAL COORDINATES (ANGSTROEM)
--------------------------------
 C      0   0   0     0.000000000000     0.00000000     0.00000000
 O      1   0   0     1.137892071309     0.00000000     0.00000000

---------------------------
INTERNAL COORDINATES (A.U.)
---------------------------
 C      0   0   0     0.000000000000     0.00000000     0.00000000
 O      1   0   0     2.150304384734     0.00000000     0.00000000

---------------------
BASIS SET INFORMATION
---------------------
There are 2 groups of distinct atoms

 Group   1 Type C   : 10s4p1d contracted to 3s2p1d pattern {631/31/1}
 Group   2 Type O   : 10s4p1d contracted to 3s2p1d pattern {631/31/1}

Atom   0C    basis set group =>   1
Atom   1O    basis set group =>   2

-------------------------
BASIS SET IN INPUT FORMAT
-------------------------

 # Basis set for element : C 
 NewGTO C 
 S 6 
   1    3047.5249000000      0.0018347002
   2     457.3695100000      0.0140373012
   3     103.9486900000      0.0688426061
   4      29.2101550000      0.2321844206
   5       9.2866630000      0.4679413416
   6       3.1639270000      0.3623120322
 S 3 
   1       7.8682724000     -0.1193324086
   2       1.8812885000     -0.1608542116
   3       0.5442493000      1.1434564826
 P 3 
   1       7.8682724000      0.0689990956
   2       1.8812885000      0.3164239798
   3       0.5442493000      0.7443082524
 S 1 
   1       0.1687144000      1.0000000000
 P 1 
   1       0.1687144000      1.0000000000
 D 1 
   1       0.8000000000      1.0000000000
  end;

 # Basis set for element : O 
 NewGTO O 
 S 6 
   1    5484.6717000000      0.0018310998
   2     825.2349500000      0.0139500985
   3     188.0469600000      0.0684450927
   4      52.9645000000      0.2327142753
   5      16.8975700000      0.4701929501
   6       5.7996353000      0.3585208619
 S 3 
   1      15.5396160000     -0.1107775038
   2       3.5999336000     -0.1480263051
   3       1.0137618000      1.1307670390
 P 3 
   1      15.5396160000      0.0708742995
   2       3.5999336000      0.3397527978
   3       1.0137618000      0.7271585953
 S 1 
   1       0.2700058000      1.0000000000
 P 1 
   1       0.2700058000      1.0000000000
 D 1 
   1       0.8000000000      1.0000000000
  end;

------------------------------------------------------------------------------
                           ORCA GTO INTEGRAL CALCULATION
------------------------------------------------------------------------------

                         BASIS SET STATISTICS AND STARTUP INFO

 # of primitive gaussian shells          ...   30
 # of primitive gaussian functions       ...   54
 # of contracted shells                  ...   12
 # of contracted basis functions         ...   28
 Highest angular momentum                ...    2
 Maximum contraction depth               ...    6
 Integral package used                   ... LIBINT
 Integral threshhold            Thresh   ...  2.500e-11
 Primitive cut-off              TCut     ...  2.500e-12


------------------------------ INTEGRAL EVALUATION ----------------------------


 * One electron integrals 
 Pre-screening matrix                    ... done
 Shell pair data                         ... done (   0.000 sec)

-------------------------------------------------------------------------------
                                 ORCA SCF
-------------------------------------------------------------------------------

------------
SCF SETTINGS
------------
Hamiltonian:
 Density Functional     Method          .... DFT(GTOs)
 Exchange Functional    Exchange        .... B88
   X-Alpha parameter    XAlpha          ....  0.666667
   Becke's b parameter  XBeta           ....  0.004200
 Correlation Functional Correlation     .... LYP
 LDA part of GGA corr.  LDAOpt          .... VWN-5
 Gradients option       PostSCFGGA      .... off
 Hybrid DFT is turned on
   Fraction HF Exchange ScalHFX         ....  0.200000
   Scaling of DF-GGA-X  ScalDFX         ....  0.720000
   Scaling of DF-GGA-C  ScalDFC         ....  0.810000
   Scaling of DF-LDA-C  ScalLDAC        ....  1.000000
   Perturbative correction              ....  0.000000
   Density functional embedding theory  .... OFF
   NL short-range parameter             ....  4.800000


General Settings:
 Integral files         IntName         .... /Users/lailaal-madhagi/Desktop/Testing_XAS_Analysis_code/CarbonMonoxide//Results_dir_CarbonMonoxide_geom_element_O_2019-11-10_01-09-08//GTE1_CarbonMonoxide_geom_2019-11-10_01-09-22//TDDFT_O-edge
 Hartree-Fock type      HFTyp           .... RHF
 Total Charge           Charge          ....    0
 Multiplicity           Mult            ....    1
 Number of Electrons    NEL             ....   14
 Basis Dimension        Dim             ....   28
 Nuclear Repulsion      ENuc            ....     22.3224211143 Eh

Convergence Acceleration:
 DIIS                   CNVDIIS         .... on
   Start iteration      DIISMaxIt       ....    12
   Startup error        DIISStart       ....  0.200000
   # of expansion vecs  DIISMaxEq       ....     5
   Bias factor          DIISBfac        ....   1.050
   Max. coefficient     DIISMaxC        ....  10.000
 Newton-Raphson         CNVNR           .... off
 SOSCF                  CNVSOSCF        .... on
   Start iteration      SOSCFMaxIt      ....   150
   Startup grad/error   SOSCFStart      ....  0.003300
 Level Shifting         CNVShift        .... on
   Level shift para.    LevelShift      ....    0.2500
   Turn off err/grad.   ShiftErr        ....    0.0010
 Zerner damping         CNVZerner       .... off
 Static damping         CNVDamp         .... on
   Fraction old density DampFac         ....    0.7000
   Max. Damping (<1)    DampMax         ....    0.9800
   Min. Damping (>=0)   DampMin         ....    0.0000
   Turn off err/grad.   DampErr         ....    0.1000
 Fernandez-Rico         CNVRico         .... off

SCF Procedure:
 Maximum # iterations   MaxIter         ....   125
 SCF integral mode      SCFMode         .... Direct
   Integral package                     .... LIBINT
 Reset frequency        DirectResetFreq ....    20
 Integral Threshold     Thresh          ....  2.500e-11 Eh
 Primitive CutOff       TCut            ....  2.500e-12 Eh

Convergence Tolerance:
 Convergence Check Mode ConvCheckMode   .... Total+1el-Energy
 Convergence forced     ConvForced      .... 1
 Energy Change          TolE            ....  1.000e-08 Eh
 1-El. energy change                    ....  1.000e-05 Eh
 Orbital Gradient       TolG            ....  1.000e-05
 Orbital Rotation angle TolX            ....  1.000e-05
 DIIS Error             TolErr          ....  5.000e-07


Diagonalization of the overlap matrix:
Smallest eigenvalue                        ... 1.546e-02
Time for diagonalization                   ...    0.000 sec
Threshold for overlap eigenvalues          ... 1.000e-08
Number of eigenvalues below threshold      ... 0
Time for construction of square roots      ...    0.001 sec
Total time needed                          ...    0.001 sec

-------------------
DFT GRID GENERATION
-------------------

General Integration Accuracy     IntAcc      ...  4.340
Radial Grid Type                 RadialGrid  ... Gauss-Chebyshev
Angular Grid (max. acc.)         AngularGrid ... Lebedev-194
Angular grid pruning method      GridPruning ... 3 (G Style)
Weight generation scheme         WeightScheme... Becke
Basis function cutoff            BFCut       ...    1.0000e-11
Integration weight cutoff        WCut        ...    1.0000e-14
Grids for H and He will be reduced by one unit

# of grid points (after initial pruning)     ...   6632 (   0.0 sec)
# of grid points (after weights+screening)   ...   6610 (   0.0 sec)
nearest neighbour list constructed           ...    0.0 sec
Grid point re-assignment to atoms done       ...    0.0 sec
Grid point division into batches done        ...    0.0 sec
Reduced shell lists constructed in    0.0 sec

Total number of grid points                  ...     6610
Total number of batches                      ...      104
Average number of points per batch           ...       63
Average number of grid points per atom       ...     3305
Average number of shells per batch           ...     9.90 (82.46%)
Average number of basis functions per batch  ...    23.80 (85.00%)
Average number of large shells per batch     ...     9.15 (92.49%)
Average number of large basis fcns per batch ...    22.31 (93.76%)
Maximum spatial batch extension              ...  16.31, 21.21, 21.21 au
Average spatial batch extension              ...   4.36,  5.19,  5.11 au

Time for grid setup =    0.028 sec

------------------------------
INITIAL GUESS: MODEL POTENTIAL
------------------------------
Loading Hartree-Fock densities                     ... done
Calculating cut-offs                               ... done
Setting up the integral package                    ... done
Initializing the effective Hamiltonian             ... done
Starting the Coulomb interaction                   ... done (   0.0 sec)
Reading the grid                                   ... done
Mapping shells                                     ... done
Starting the XC term evaluation                    ... done (   0.0 sec)
  promolecular density results
     # of electrons  =     13.999996689
     EX              =    -13.246451433
     EC              =     -0.483139921
     EX+EC           =    -13.729591354
Transforming the Hamiltonian                       ... done (   0.0 sec)
Diagonalizing the Hamiltonian                      ... done (   0.0 sec)
Back transforming the eigenvectors                 ... done (   0.0 sec)
Now organizing SCF variables                       ... done
                      ------------------
                      INITIAL GUESS DONE (   0.1 sec)
                      ------------------
--------------
SCF ITERATIONS
--------------
               ***  Starting incremental Fock matrix formation  ***

                         ----------------------------
                         !        ITERATION     0   !
                         ----------------------------
   Total Energy        :    -113.217510354099 Eh
   Energy Change       :    -113.217510354099 Eh
   MAX-DP              :       0.068207149562
   RMS-DP              :       0.004875082364
   Actual Damping      :       0.7000
   Actual Level Shift  :       0.2500 Eh
   Int. Num. El.       :    13.99998473 (UP=    6.99999236 DN=    6.99999236)
   Exchange            :   -10.73940718
   Correlation         :    -0.57711882


                         ----------------------------
                         !        ITERATION     1   !
                         ----------------------------
   Total Energy        :    -113.236863411944 Eh
   Energy Change       :      -0.019353057844 Eh
   MAX-DP              :       0.034061020926
   RMS-DP              :       0.002359239535
   Actual Damping      :       0.7000
   Actual Level Shift  :       0.2500 Eh
   Int. Num. El.       :    13.99998454 (UP=    6.99999227 DN=    6.99999227)
   Exchange            :   -10.65958175
   Correlation         :    -0.57485213

                               ***Turning on DIIS***

                         ----------------------------
                         !        ITERATION     2   !
                         ----------------------------
   Total Energy        :    -113.241274366776 Eh
   Energy Change       :      -0.004410954832 Eh
   MAX-DP              :       0.071774355514
   RMS-DP              :       0.003698467395
   Actual Damping      :       0.0000
   Actual Level Shift  :       0.2500 Eh
   Int. Num. El.       :    13.99998441 (UP=    6.99999220 DN=    6.99999220)
   Exchange            :   -10.62031002
   Correlation         :    -0.57364389
   DIIS-Error          :       0.019956698804


                         ----------------------------
                         !        ITERATION     3   !
                         ----------------------------
   Total Energy        :    -113.253952615222 Eh
   Energy Change       :      -0.012678248446 Eh
   MAX-DP              :       0.021607346493
   RMS-DP              :       0.001582295136
   Actual Damping      :       0.0000
   Actual Level Shift  :       0.2500 Eh
   Int. Num. El.       :    13.99998427 (UP=    6.99999214 DN=    6.99999214)
   Exchange            :   -10.59098363
   Correlation         :    -0.57252680
   DIIS-Error          :       0.024408640743
   DIIS coefficients:
      0.47540   0.52460


                         ----------------------------
                         !        ITERATION     4   !
                         ----------------------------
   Total Energy        :    -113.254092558111 Eh
   Energy Change       :      -0.000139942889 Eh
   MAX-DP              :       0.012865748938
   RMS-DP              :       0.000840219395
   Actual Damping      :       0.0000
   Actual Level Shift  :       0.2500 Eh
   Int. Num. El.       :    13.99998438 (UP=    6.99999219 DN=    6.99999219)
   Exchange            :   -10.61555457
   Correlation         :    -0.57327744
   DIIS-Error          :       0.021944227099
   DIIS coefficients:
      0.18960   0.36030   0.45011


                         ----------------------------
                         !        ITERATION     5   !
                         ----------------------------
   Total Energy        :    -113.254553285798 Eh
   Energy Change       :      -0.000460727687 Eh
   MAX-DP              :       0.003586900585
   RMS-DP              :       0.000219763121
   Actual Damping      :       0.0000
   Actual Level Shift  :       0.2500 Eh
   Int. Num. El.       :    13.99998438 (UP=    6.99999219 DN=    6.99999219)
   Exchange            :   -10.61128034
   Correlation         :    -0.57320941
   DIIS-Error          :       0.006356188954
   DIIS coefficients:
      0.04752   0.12337  -0.12045   0.94956

                      *** Initiating the SOSCF procedure ***
                           *** Shutting down DIIS ***
                      *** Re-Reading the Fockian *** 
                      *** Removing any level shift *** 

                         ----------------------------
                         !        ITERATION     6   !
                         ----------------------------
   Total Energy        :    -113.254589204386 Eh
   Energy Change       :      -0.000035918588 Eh
   MAX-DP              :       0.000907841042
   RMS-DP              :       0.000063730036
   Orbital gradient    :       0.000329627612
   Orbital Rotation    :       0.000329627612
   Actual Damping      :       0.0000
   Int. Num. El.       :    13.99998438 (UP=    6.99999219 DN=    6.99999219)
   Exchange            :   -10.60975081
   Correlation         :    -0.57316991

               *** Restarting incremental Fock matrix formation ***

                         ----------------------------
                         !        ITERATION     7   !
                         ----------------------------
   Total Energy        :    -113.254592213020 Eh
   Energy Change       :      -0.000003008634 Eh
   MAX-DP              :       0.000789787577
   RMS-DP              :       0.000071220497
   Orbital gradient    :       0.000282377434
   Orbital Rotation    :       0.000633745620
   Actual Damping      :       0.0000
   Int. Num. El.       :    13.99998437 (UP=    6.99999219 DN=    6.99999219)
   Exchange            :   -10.60924422
   Correlation         :    -0.57315538


                         ----------------------------
                         !        ITERATION     8   !
                         ----------------------------
   Total Energy        :    -113.254591022912 Eh
   Energy Change       :       0.000001190108 Eh
   MAX-DP              :       0.000552233382
   RMS-DP              :       0.000046438359
   Orbital gradient    :       0.000604977790
   Orbital Rotation    :       0.000401528321
   Actual Damping      :       0.0000
   Int. Num. El.       :    13.99998437 (UP=    6.99999218 DN=    6.99999218)
   Exchange            :   -10.60849832
   Correlation         :    -0.57313437


                         ----------------------------
                         !        ITERATION     9   !
                         ----------------------------
   Total Energy        :    -113.254592504915 Eh
   Energy Change       :      -0.000001482003 Eh
   MAX-DP              :       0.000017487384
   RMS-DP              :       0.000001407421
   Orbital gradient    :       0.000005370683
   Orbital Rotation    :       0.000008357692
   Actual Damping      :       0.0000
   Int. Num. El.       :    13.99998437 (UP=    6.99999219 DN=    6.99999219)
   Exchange            :   -10.60902434
   Correlation         :    -0.57314853

                 **** Energy Check signals convergence ****
              ***Rediagonalizing the Fockian in SOSCF/NRSCF***

               *****************************************************
               *                     SUCCESS                       *
               *           SCF CONVERGED AFTER  10 CYCLES          *
               *****************************************************

Setting up the final grid:

General Integration Accuracy     IntAcc      ...  5.010
Radial Grid Type                 RadialGrid  ... Gauss-Chebyshev
Angular Grid (max. acc.)         AngularGrid ... Lebedev-434
Angular grid pruning method      GridPruning ... 3 (G Style)
Weight generation scheme         WeightScheme... Becke
Basis function cutoff            BFCut       ...    1.0000e-11
Integration weight cutoff        WCut        ...    1.0000e-14
Grids for H and He will be reduced by one unit

# of grid points (after initial pruning)     ...  21540 (   0.0 sec)
# of grid points (after weights+screening)   ...  21473 (   0.0 sec)
nearest neighbour list constructed           ...    0.0 sec
Grid point re-assignment to atoms done       ...    0.0 sec
Grid point division into batches done        ...    0.2 sec
Reduced shell lists constructed in    0.2 sec

Total number of grid points                  ...    21473
Total number of batches                      ...      336
Average number of points per batch           ...       63
Average number of grid points per atom       ...    10736
Average number of shells per batch           ...     9.23 (76.90%)
Average number of basis functions per batch  ...    22.18 (79.21%)
Average number of large shells per batch     ...     8.54 (92.51%)
Average number of large basis fcns per batch ...    20.82 (93.89%)
Maximum spatial batch extension              ...  19.78, 19.91, 21.21 au
Average spatial batch extension              ...   3.33,  3.50,  3.54 au

Final grid set up in    0.2 sec
Final integration                            ... done (   0.0 sec)
Change in XC energy                          ...    -0.000058966
Integrated number of electrons               ...    13.999999057
Previous integrated no of electrons          ...    13.999984370

----------------
TOTAL SCF ENERGY
----------------

Total Energy       :         -113.25465147 Eh           -3081.81574 eV

Components:
Nuclear Repulsion  :           22.32242111 Eh             607.42396 eV
Electronic Energy  :         -135.57707259 Eh           -3689.23970 eV
One Electron Energy:         -198.00336637 Eh           -5387.94552 eV
Two Electron Energy:           62.42629379 Eh            1698.70581 eV

Virial components:
Potential Energy   :         -225.82480362 Eh           -6145.00531 eV
Kinetic Energy     :          112.57015215 Eh            3063.18957 eV
Virial Ratio       :            2.00608065


DFT components:
N(Alpha)           :        6.999999528731 electrons
N(Beta)            :        6.999999528731 electrons
N(Total)           :       13.999999057462 electrons
E(X)               :      -10.609080137632 Eh       
E(C)               :       -0.573149798102 Eh       
E(XC)              :      -11.182229935734 Eh       
DFET-embed. en.    :        0.000000000000 Eh       

---------------
SCF CONVERGENCE
---------------

  Last Energy change         ...   -2.3553e-10  Tolerance :   1.0000e-08
  Last MAX-Density change    ...    4.8511e-06  Tolerance :   1.0000e-07
  Last RMS-Density change    ...    2.6322e-07  Tolerance :   5.0000e-09
  Last Orbital Gradient      ...    1.6589e-06  Tolerance :   1.0000e-05
  Last Orbital Rotation      ...    1.1908e-06  Tolerance :   1.0000e-05

             **** THE GBW FILE WAS UPDATED (/Users/lailaal-madhagi/Desktop/Testing_XAS_Analysis_code/CarbonMonoxide//Results_dir_CarbonMonoxide_geom_element_O_2019-11-10_01-09-08//GTE1_CarbonMonoxide_geom_2019-11-10_01-09-22//TDDFT_O-edge.gbw) ****
             **** DENSITY FILE WAS UPDATED (/Users/lailaal-madhagi/Desktop/Testing_XAS_Analysis_code/CarbonMonoxide//Results_dir_CarbonMonoxide_geom_element_O_2019-11-10_01-09-08//GTE1_CarbonMonoxide_geom_2019-11-10_01-09-22//TDDFT_O-edge.scfp.tmp) ****
             **** ENERGY FILE WAS UPDATED (/Users/lailaal-madhagi/Desktop/Testing_XAS_Analysis_code/CarbonMonoxide//Results_dir_CarbonMonoxide_geom_element_O_2019-11-10_01-09-08//GTE1_CarbonMonoxide_geom_2019-11-10_01-09-22//TDDFT_O-edge.en.tmp) ****
----------------
ORBITAL ENERGIES
----------------

  NO   OCC          E(Eh)            E(eV) 
   0   2.0000     -19.249578      -523.8076 
   1   2.0000     -10.297443      -280.2077 
   2   2.0000      -1.153822       -31.3971 
   3   2.0000      -0.565759       -15.3951 
   4   2.0000      -0.463451       -12.6112 
   5   2.0000      -0.463449       -12.6111 
   6   2.0000      -0.367343        -9.9959 
   7   0.0000      -0.017854        -0.4858 
   8   0.0000      -0.017853        -0.4858 
   9   0.0000       0.267222         7.2715 
  10   0.0000       0.515475        14.0268 
  11   0.0000       0.515477        14.0268 
  12   0.0000       0.587926        15.9983 
  13   0.0000       0.754624        20.5344 
  14   0.0000       0.836173        22.7534 
  15   0.0000       0.920242        25.0411 
  16   0.0000       0.920247        25.0412 
  17   0.0000       1.482935        40.3527 
  18   0.0000       1.482939        40.3528 
  19   0.0000       1.511036        41.1174 
  20   0.0000       1.544375        42.0246 
  21   0.0000       1.544377        42.0246 
  22   0.0000       1.946478        52.9663 
  23   0.0000       1.946484        52.9665 
  24   0.0000       2.423176        65.9380 
  25   0.0000       2.603014        70.8316 
  26   0.0000       2.603018        70.8317 
  27   0.0000       2.956750        80.4573 
------------------
MOLECULAR ORBITALS
------------------
                      0         1         2         3         4         5   
                 -19.24958 -10.29744  -1.15382  -0.56576  -0.46345  -0.46345
                   2.00000   2.00000   2.00000   2.00000   2.00000   2.00000
                  --------  --------  --------  --------  --------  --------
  0C   1s         0.000284 -0.995198 -0.114309 -0.132708 -0.000001  0.000001
  0C   2s        -0.000369 -0.033754  0.216070  0.285502  0.000002 -0.000002
  0C   1pz        0.000190  0.001365 -0.049089 -0.025419 -0.076654  0.297854
  0C   1px       -0.000816 -0.005864  0.210847  0.109185  0.021316  0.078229
  0C   1py       -0.000105 -0.000752  0.027032  0.013999 -0.305459 -0.069286
  0C   3s         0.007975  0.004537  0.048108  0.205215  0.000001 -0.000001
  0C   2pz       -0.001133  0.000482  0.003225  0.005545 -0.030964  0.120319
  0C   2px        0.004866 -0.002068 -0.013852 -0.023814  0.008610  0.031601
  0C   2py        0.000624 -0.000265 -0.001776 -0.003053 -0.123391 -0.027988
  0C   1dz2       0.000590  0.001133 -0.015148 -0.002674  0.003733 -0.014505
  0C   1dxz       0.000524  0.001006 -0.013454 -0.002375 -0.009856  0.033771
  0C   1dyz       0.000067  0.000129 -0.001725 -0.000304  0.007402  0.006560
  0C   1dx2y2    -0.001107 -0.002125  0.028420  0.005016  0.007304  0.010520
  0C   1dxy      -0.000289 -0.000554  0.007409  0.001308 -0.036558 -0.007156
  1O   1s         0.995071  0.000273 -0.201547  0.113612  0.000000 -0.000001
  1O   2s         0.029344  0.000068  0.445452 -0.268655 -0.000001  0.000002
  1O   1pz        0.000574  0.000363  0.039988  0.109752 -0.137064  0.532581
  1O   1px       -0.002464 -0.001557 -0.171757 -0.471395  0.038115  0.139877
  1O   1py       -0.000316 -0.000200 -0.022020 -0.060435 -0.546188 -0.123888
  1O   3s        -0.017291  0.007945  0.356162 -0.406336 -0.000000  0.000001
  1O   2pz       -0.001042  0.001447  0.008672  0.053319 -0.082423  0.320269
  1O   2px        0.004475 -0.006215 -0.037248 -0.229016  0.022920  0.084117
  1O   2py        0.000574 -0.000797 -0.004776 -0.029361 -0.328451 -0.074501
  1O   1dz2      -0.000096 -0.000906 -0.004626 -0.010248 -0.003187  0.012387
  1O   1dxz      -0.000085 -0.000805 -0.004109 -0.009103  0.008417 -0.028838
  1O   1dyz      -0.000011 -0.000103 -0.000527 -0.001167 -0.006319 -0.005602
  1O   1dx2y2     0.000180  0.001701  0.008679  0.019226 -0.006237 -0.008983
  1O   1dxy       0.000047  0.000443  0.002263  0.005012  0.031220  0.006111
                      6         7         8         9        10        11   
                  -0.36734  -0.01785  -0.01785   0.26722   0.51548   0.51548
                   2.00000   0.00000   0.00000   0.00000   0.00000   0.00000
                  --------  --------  --------  --------  --------  --------
  0C   1s         0.143391 -0.000000  0.000000  0.032984  0.000000 -0.000000
  0C   2s        -0.258527 -0.000001  0.000000  0.081539 -0.000000 -0.000001
  0C   1pz       -0.099534  0.217223 -0.492378  0.037231  0.963453 -0.132167
  0C   1px        0.427518 -0.014505 -0.141132 -0.159929  0.237928  0.095474
  0C   1py        0.054811  0.507613  0.206670 -0.020506 -0.106250 -0.984661
  0C   3s        -0.618070  0.000001 -0.000001 -2.007629 -0.000003  0.000005
  0C   2pz       -0.030498  0.236637 -0.536384  0.424460 -1.112371  0.152594
  0C   2px        0.130991 -0.015804 -0.153744 -1.823140 -0.274709 -0.110226
  0C   2py        0.016793  0.552982  0.225142 -0.233738  0.122673  1.136857
  0C   1dz2      -0.013698  0.001568 -0.003554  0.000652 -0.010469  0.001437
  0C   1dxz      -0.012167 -0.003949  0.008225  0.000579  0.024469 -0.004160
  0C   1dyz      -0.001560  0.001617  0.001991  0.000074  0.003994  0.005721
  0C   1dx2y2     0.025701  0.001425  0.003000 -0.001223  0.006779  0.005974
  0C   1dxy       0.006700 -0.009053 -0.003375 -0.000319 -0.002041 -0.026202
  1O   1s        -0.011588  0.000000 -0.000000 -0.100079 -0.000000  0.000000
  1O   2s         0.038597 -0.000001  0.000000  0.175464  0.000001 -0.000002
  1O   1pz        0.063964 -0.161009  0.364959  0.025722  0.069846 -0.009582
  1O   1px       -0.274744  0.010753  0.104608 -0.110484  0.017248  0.006922
  1O   1py       -0.035225 -0.376249 -0.153187 -0.014165 -0.007703 -0.071384
  1O   3s         0.014705  0.000000  0.000001  2.119865  0.000003 -0.000003
  1O   2pz        0.034542 -0.170930  0.387449  0.192669  0.058434 -0.008016
  1O   2px       -0.148370  0.011415  0.111055 -0.827563  0.014429  0.005793
  1O   2py       -0.019023 -0.399435 -0.162628 -0.106101 -0.006445 -0.059718
  1O   1dz2      -0.002520  0.001560 -0.003534 -0.023884  0.031085 -0.004264
  1O   1dxz      -0.002238 -0.003927  0.008180 -0.021213 -0.072653  0.012353
  1O   1dyz      -0.000287  0.001609  0.001980 -0.002720 -0.011862 -0.016986
  1O   1dx2y2     0.004728  0.001416  0.002985  0.044809 -0.020126 -0.017739
  1O   1dxy       0.001232 -0.009002 -0.003356  0.011682  0.006060  0.077803
                     12        13        14        15        16        17   
                   0.58793   0.75462   0.83617   0.92024   0.92025   1.48294
                   0.00000   0.00000   0.00000   0.00000   0.00000   0.00000
                  --------  --------  --------  --------  --------  --------
  0C   1s        -0.073676  0.060961  0.066126  0.000001  0.000000  0.000002
  0C   2s         1.217187 -1.044526  0.479582  0.000007 -0.000000  0.000005
  0C   1pz        0.154304  0.199099  0.023970  0.106026 -0.029452 -0.000004
  0C   1px       -0.662771 -0.855181 -0.102965  0.020440 -0.020586  0.000012
  0C   1py       -0.084974 -0.109642 -0.013202  0.033097  0.107071  0.000002
  0C   3s        -1.607429  0.415454  0.489809  0.000006 -0.000000  0.000208
  0C   2pz       -0.096558 -0.104733 -0.088876 -0.562237  0.156183 -0.000031
  0C   2px        0.414737  0.449862  0.381792 -0.108394  0.109153  0.000132
  0C   2py        0.053175  0.057678  0.048955 -0.175503 -0.567762  0.000016
  0C   1dz2       0.009771 -0.055324 -0.098853  0.022109 -0.006143  0.373324
  0C   1dxz       0.008679 -0.049138 -0.087798 -0.052374  0.012754  0.164844
  0C   1dyz       0.001113 -0.006300 -0.011256 -0.003045  0.014845 -0.503009
  0C   1dx2y2    -0.018334  0.103795  0.185459 -0.008373  0.017746  0.261123
  0C   1dxy      -0.004780  0.027059  0.048350 -0.018470 -0.054007 -0.055995
  1O   1s        -0.022026 -0.063442  0.039608  0.000001  0.000000 -0.000003
  1O   2s         0.094757  0.244417 -0.197103 -0.000008 -0.000002  0.000139
  1O   1pz       -0.024666  0.060863  0.186280 -0.868677  0.241312 -0.000001
  1O   1px        0.105942 -0.261420 -0.800051 -0.167493  0.168644 -0.000007
  1O   1py        0.013582 -0.033515 -0.102565 -0.271161 -0.877216 -0.000002
  1O   3s         0.313642  0.024852 -0.504475 -0.000001  0.000003 -0.000346
  1O   2pz        0.091687  0.154647 -0.316985  1.233973 -0.342786 -0.000023
  1O   2px       -0.393812 -0.664248  1.361425  0.237928 -0.239564  0.000111
  1O   2py       -0.050489 -0.085164  0.174534  0.385191  1.246104  0.000016
  1O   1dz2      -0.014036  0.087225  0.041310 -0.009715  0.002701  0.325978
  1O   1dxz      -0.012467  0.077473  0.036693  0.023015 -0.005604  0.143938
  1O   1dyz      -0.001598  0.009933  0.004705  0.001340 -0.006522 -0.439211
  1O   1dx2y2     0.026334 -0.163648 -0.077512  0.003678 -0.007799  0.228002
  1O   1dxy       0.006865 -0.042663 -0.020207  0.008119  0.023740 -0.048892
                     18        19        20        21        22        23   
                   1.48294   1.51104   1.54438   1.54438   1.94648   1.94648
                   0.00000   0.00000   0.00000   0.00000   0.00000   0.00000
                  --------  --------  --------  --------  --------  --------
  0C   1s         0.000003 -0.030628  0.000001  0.000000  0.000000  0.000000
  0C   2s         0.000005 -0.077958  0.000002  0.000000  0.000008  0.000007
  0C   1pz       -0.000003  0.043069 -0.269686  0.002828 -0.000001 -0.000001
  0C   1px        0.000014 -0.185020 -0.061398  0.035846  0.000007  0.000007
  0C   1py        0.000002 -0.023723 -0.010798 -0.274450  0.000001  0.000000
  0C   3s         0.000233 -2.510962  0.000055  0.000019  0.000019  0.000019
  0C   2pz       -0.000034  0.366659  0.131785 -0.001385 -0.000001 -0.000004
  0C   2px        0.000147 -1.574872  0.030041 -0.017505  0.000012  0.000013
  0C   2py        0.000020 -0.201910  0.005282  0.134121  0.000002 -0.000000
  0C   1dz2       0.438683  0.111938 -0.238504  0.002501  0.403312  0.445690
  0C   1dxz       0.059756  0.099390  0.560093  0.012099  0.173842  0.057095
  0C   1dyz       0.453721  0.012739  0.070315 -0.140929 -0.510224  0.489193
  0C   1dx2y2     0.245474 -0.209825  0.131629 -0.155780  0.280128  0.247715
  0C   1dxy       0.169583 -0.054697  0.040949  0.591826 -0.053017  0.178637
  1O   1s        -0.000003  0.035603 -0.000001 -0.000000 -0.000000  0.000000
  1O   2s         0.000156 -1.699179  0.000037  0.000013  0.000013  0.000012
  1O   1pz        0.000002 -0.012298 -0.175525  0.001841  0.000000 -0.000001
  1O   1px       -0.000007  0.052816 -0.039966  0.023330  0.000003  0.000004
  1O   1py        0.000002  0.006772 -0.007029 -0.178635  0.000001 -0.000002
  1O   3s        -0.000388  4.200649 -0.000092 -0.000031 -0.000038 -0.000037
  1O   2pz       -0.000030  0.312040 -0.055835  0.000583 -0.000006 -0.000002
  1O   2px        0.000124 -1.340301 -0.012681  0.007429  0.000013  0.000013
  1O   2py        0.000012 -0.171839 -0.002232 -0.056806  0.000000  0.000005
  1O   1dz2       0.383040  0.072580  0.219185 -0.002300 -0.445144 -0.491922
  1O   1dxz       0.052177  0.064412 -0.514740 -0.011120 -0.191865 -0.063020
  1O   1dyz       0.396167  0.008258 -0.064622  0.129513  0.563143 -0.539938
  1O   1dx2y2     0.214333 -0.136019 -0.120963  0.143167 -0.309181 -0.273408
  1O   1dxy       0.148069 -0.035465 -0.037632 -0.543894  0.058520 -0.197176
                     24        25        26        27   
                   2.42318   2.60301   2.60302   2.95675
                   0.00000   0.00000   0.00000   0.00000
                  --------  --------  --------  --------
  0C   1s         0.075932 -0.000000  0.000000  0.110545
  0C   2s         0.183972 -0.000008  0.000005  1.770937
  0C   1pz        0.031692 -0.340347  0.011740 -0.345971
  0C   1px       -0.136120 -0.079496 -0.041726  1.486020
  0C   1py       -0.017451  0.001957  0.346816  0.190518
  0C   3s        -0.224347 -0.000005  0.000005  1.522066
  0C   2pz        0.064705 -0.302956  0.010450 -0.188576
  0C   2px       -0.277923 -0.070760 -0.037143  0.809975
  0C   2py       -0.035632  0.001742  0.308713  0.103844
  0C   1dz2       0.480014  0.405703 -0.013997 -0.302085
  0C   1dxz       0.426342 -0.951371  0.063425 -0.268311
  0C   1dyz       0.054660 -0.130335 -0.234229 -0.034399
  0C   1dx2y2    -0.900564 -0.235718 -0.254791  0.566748
  0C   1dxy      -0.234776 -0.024340  1.009376  0.147749
  1O   1s        -0.027679 -0.000000  0.000000  0.066352
  1O   2s         0.802377 -0.000000  0.000001  0.528415
  1O   1pz        0.157082  0.065412 -0.002257 -0.106145
  1O   1px       -0.674709  0.015274  0.008022  0.455925
  1O   1py       -0.086504 -0.000377 -0.066649  0.058453
  1O   3s        -0.155276  0.000011 -0.000010 -3.313853
  1O   2pz       -0.092932  0.531254 -0.018328 -0.434142
  1O   2px        0.399165  0.124069  0.065144  1.864749
  1O   2py        0.051176 -0.003056 -0.541348  0.239077
  1O   1dz2       0.083373  0.413780 -0.014274  0.649129
  1O   1dxz       0.074052 -0.970333  0.064692  0.576537
  1O   1dyz       0.009493 -0.132929 -0.238902  0.073917
  1O   1dx2y2    -0.156417 -0.240408 -0.259876 -1.217834
  1O   1dxy      -0.040777 -0.024823  1.029488 -0.317494



                    ********************************
                    * MULLIKEN POPULATION ANALYSIS *
                    ********************************

-----------------------
MULLIKEN ATOMIC CHARGES
-----------------------
   0 C :    0.157074
   1 O :   -0.157074
Sum of atomic charges:    0.0000000

--------------------------------
MULLIKEN REDUCED ORBITAL CHARGES
--------------------------------
  0 C s       :     3.787958  s :     3.787958
      pz      :     0.537158  p :     1.983504
      px      :     0.924671
      py      :     0.521675
      dz2     :     0.008256  d :     0.071464
      dxz     :     0.021054
      dyz     :     0.001408
      dx2y2   :     0.020482
      dxy     :     0.020264
  1 O s       :     3.811622  s :     3.811622
      pz      :     1.450235  p :     4.314173
      px      :     1.412175
      py      :     1.451763
      dz2     :     0.003189  d :     0.031279
      dxz     :     0.010223
      dyz     :     0.000731
      dx2y2   :     0.006677
      dxy     :     0.010459

------------------------
MULLIKEN OVERLAP CHARGES
------------------------
B(  0-C ,  1-O ) :   1.1806 


                     *******************************
                     * LOEWDIN POPULATION ANALYSIS *
                     *******************************

----------------------
LOEWDIN ATOMIC CHARGES
----------------------
   0 C :   -0.005590
   1 O :    0.005590

-------------------------------
LOEWDIN REDUCED ORBITAL CHARGES
-------------------------------
  0 C s       :     3.558388  s :     3.558388
      pz      :     0.578261  p :     2.304190
      px      :     1.171357
      py      :     0.554571
      dz2     :     0.017478  d :     0.143012
      dxz     :     0.039859
      dyz     :     0.002559
      dx2y2   :     0.046142
      dxy     :     0.036974
  1 O s       :     3.557144  s :     3.557144
      pz      :     1.413282  p :     4.382411
      px      :     1.561771
      py      :     1.407359
      dz2     :     0.007125  d :     0.054855
      dxz     :     0.014290
      dyz     :     0.000868
      dx2y2   :     0.019963
      dxy     :     0.012609

---------------------------------
LOEWDIN BOND ORDERS (THRESH 0.05)
---------------------------------
B(  0-C ,  1-O ) :   3.0523 

------------------------------------------
LOEWDIN REDUCED ORBITAL POPULATIONS PER MO
-------------------------------------------
THRESHOLD FOR PRINTING IS 0.1%
                      0         1         2         3         4         5   
                 -19.24958 -10.29744  -1.15382  -0.56576  -0.46345  -0.46345
                   2.00000   2.00000   2.00000   2.00000   2.00000   2.00000
                  --------  --------  --------  --------  --------  --------
 0 C  s               0.0      98.9      18.6      13.9       0.0       0.0
 0 C  pz              0.0       0.0       0.8       0.2       1.6      24.2
 0 C  px              0.1       0.0      15.4       4.1       0.1       1.7
 0 C  py              0.0       0.0       0.3       0.1      25.5       1.3
 0 C  dz2             0.0       0.0       0.4       0.0       0.0       0.3
 0 C  dxz             0.0       0.0       0.3       0.0       0.1       1.4
 0 C  dx2y2           0.1       0.0       1.5       0.0       0.1       0.1
 0 C  dxy             0.0       0.0       0.1       0.0       1.6       0.1
 1 O  s              99.7       0.1      55.7      20.1       0.0       0.0
 1 O  pz              0.0       0.0       0.3       3.1       4.1      62.5
 1 O  px              0.0       0.5       6.0      56.8       0.3       4.3
 1 O  py              0.0       0.0       0.1       0.9      65.8       3.4
 1 O  dz2             0.0       0.1       0.1       0.1       0.0       0.1
 1 O  dxz             0.0       0.1       0.0       0.1       0.0       0.5
 1 O  dx2y2           0.0       0.3       0.2       0.5       0.0       0.0
 1 O  dxy             0.0       0.0       0.0       0.0       0.5       0.0

                      6         7         8         9        10        11   
                  -0.36734  -0.01785  -0.01785   0.26722   0.51548   0.51548
                   2.00000   0.00000   0.00000   0.00000   0.00000   0.00000
                  --------  --------  --------  --------  --------  --------
 0 C  s              46.4       0.0       0.0      16.5       0.0       0.0
 0 C  pz              2.0      10.6      54.5       2.9      88.5       1.7
 0 C  px             37.1       0.0       4.5      53.8       5.4       0.9
 0 C  py              0.6      58.0       9.6       0.9       1.1      92.5
 0 C  dz2             0.1       0.0       0.2       2.0       0.1       0.0
 0 C  dxz             0.1       0.3       1.3       1.6       0.4       0.0
 0 C  dx2y2           0.5       0.0       0.2       7.0       0.0       0.0
 0 C  dxy             0.0       1.6       0.2       0.5       0.0       0.5
 1 O  s               2.2       0.0       0.0      13.7       0.0       0.0
 1 O  pz              0.5       4.1      21.2       0.1       2.4       0.0
 1 O  px             10.1       0.0       1.7       1.0       0.1       0.0
 1 O  py              0.2      22.5       3.7       0.0       0.0       2.5
 1 O  dz2             0.0       0.1       0.3       0.0       0.3       0.0
 1 O  dxz             0.0       0.4       1.7       0.0       1.5       0.0
 1 O  dyz             0.0       0.1       0.1       0.0       0.0       0.1
 1 O  dx2y2           0.0       0.1       0.2       0.1       0.1       0.1
 1 O  dxy             0.0       2.1       0.3       0.0       0.0       1.7

                     12        13        14        15        16        17   
                   0.58793   0.75462   0.83617   0.92024   0.92025   1.48294
                   0.00000   0.00000   0.00000   0.00000   0.00000   0.00000
                  --------  --------  --------  --------  --------  --------
 0 C  s              63.8      18.2       1.1       0.0       0.0       0.0
 0 C  pz              1.6       1.4       0.3       2.8       0.2       0.0
 0 C  px             29.7      25.3       6.0       0.1       0.1       0.0
 0 C  py              0.5       0.4       0.1       0.3       2.9       0.0
 0 C  dz2             0.0       0.9       1.4       0.0       0.0      15.8
 0 C  dxz             0.0       0.7       1.1       0.2       0.0       3.1
 0 C  dyz             0.0       0.0       0.0       0.0       0.0      28.7
 0 C  dx2y2           0.0       3.2       4.8       0.0       0.0       7.7
 0 C  dxy             0.0       0.2       0.3       0.0       0.2       0.4
 1 O  s               1.3       2.7       4.4       0.0       0.0       0.0
 1 O  pz              0.1       0.8       4.1      84.0       6.5       0.0
 1 O  px              2.7      14.4      75.0       3.1       3.2       0.0
 1 O  py              0.0       0.2       1.2       8.2      85.7       0.0
 1 O  dz2             0.0       5.7       0.0       0.2       0.0      12.6
 1 O  dxz             0.0       4.5       0.0       0.9       0.1       2.4
 1 O  dyz             0.0       0.1       0.0       0.0       0.1      22.8
 1 O  dx2y2           0.1      20.0       0.2       0.0       0.1       6.1
 1 O  dxy             0.0       1.4       0.0       0.1       1.0       0.3

                     18        19        20        21        22        23   
                   1.48294   1.51104   1.54438   1.54438   1.94648   1.94648
                   0.00000   0.00000   0.00000   0.00000   0.00000   0.00000
                  --------  --------  --------  --------  --------  --------
 0 C  s               0.0       5.9       0.0       0.0       0.0       0.0
 0 C  pz              0.0       0.1       2.8       0.0       0.0       0.0
 0 C  px              0.0       2.1       0.1       0.0       0.0       0.0
 0 C  py              0.0       0.0       0.0       2.9       0.0       0.0
 0 C  dz2            21.9       0.3       7.3       0.0      13.5      16.4
 0 C  dxz             0.4       0.2      40.0       0.0       2.5       0.3
 0 C  dyz            23.4       0.0       0.6       2.5      21.5      19.8
 0 C  dx2y2           6.8       0.9       2.2       3.1       6.5       5.1
 0 C  dxy             3.3       0.1       0.2      44.7       0.2       2.6
 1 O  s               0.0      73.6       0.0       0.0       0.0       0.0
 1 O  pz              0.0       0.1       1.8       0.0       0.0       0.0
 1 O  px              0.0       0.9       0.1       0.0       0.0       0.0
 1 O  py              0.0       0.0       0.0       1.9       0.0       0.0
 1 O  dz2            17.3       2.8       6.5       0.0      17.0      20.7
 1 O  dxz             0.3       2.2      35.6       0.0       3.2       0.3
 1 O  dyz            18.6       0.0       0.6       2.3      27.2      25.0
 1 O  dx2y2           5.4      10.0       2.0       2.8       8.2       6.4
 1 O  dxy             2.6       0.7       0.2      39.8       0.3       3.3

                     24        25        26        27   
                   2.42318   2.60301   2.60302   2.95675
                   0.00000   0.00000   0.00000   0.00000
                  --------  --------  --------  --------
 0 C  s               1.0       0.0       0.0      15.6
 0 C  pz              0.1       2.9       0.0       0.6
 0 C  px              1.8       0.2       0.0      11.4
 0 C  py              0.0       0.0       3.0       0.2
 0 C  dz2            12.2       6.5       0.0       0.7
 0 C  dxz             9.6      35.6       0.2       0.5
 0 C  dyz             0.2       0.7       2.2       0.0
 0 C  dx2y2          42.9       2.2       2.6       2.4
 0 C  dxy             2.9       0.0      40.0       0.2
 1 O  s              10.9       0.0       0.0      15.5
 1 O  pz              0.7       3.2       0.0       0.4
 1 O  px             12.0       0.2       0.0       7.4
 1 O  py              0.2       0.0       3.3       0.1
 1 O  dz2             1.0       7.0       0.0       8.1
 1 O  dxz             0.8      38.5       0.2       6.4
 1 O  dyz             0.0       0.7       2.3       0.1
 1 O  dx2y2           3.6       2.4       2.8      28.5
 1 O  dxy             0.2       0.0      43.4       1.9


                      *****************************
                      * MAYER POPULATION ANALYSIS *
                      *****************************

  NA   - Mulliken gross atomic population
  ZA   - Total nuclear charge
  QA   - Mulliken gross atomic charge
  VA   - Mayer's total valence
  BVA  - Mayer's bonded valence
  FA   - Mayer's free valence

  ATOM       NA         ZA         QA         VA         BVA        FA
  0 C      5.8429     6.0000     0.1571     2.4132     2.4132     0.0000
  1 O      8.1571     8.0000    -0.1571     2.4132     2.4132     0.0000

  Mayer bond orders larger than 0.1
B(  0-C ,  1-O ) :   2.4132 

-------
TIMINGS
-------

Total SCF time: 0 days 0 hours 0 min 2 sec 

Total time                  ....       2.705 sec
Sum of individual times     ....       2.456 sec  ( 90.8%)

Fock matrix formation       ....       2.115 sec  ( 78.2%)
  XC integration            ....       0.233 sec  ( 11.0% of F)
    Basis function eval.    ....       0.074 sec  ( 31.7% of XC)
    Density eval.           ....       0.052 sec  ( 22.4% of XC)
    XC-Functional eval.     ....       0.051 sec  ( 21.9% of XC)
    XC-Potential eval.      ....       0.030 sec  ( 12.7% of XC)
Diagonalization             ....       0.002 sec  (  0.1%)
Density matrix formation    ....       0.000 sec  (  0.0%)
Population analysis         ....       0.004 sec  (  0.1%)
Initial guess               ....       0.109 sec  (  4.0%)
Orbital Transformation      ....       0.000 sec  (  0.0%)
Orbital Orthonormalization  ....       0.000 sec  (  0.0%)
DIIS solution               ....       0.002 sec  (  0.1%)
SOSCF solution              ....       0.001 sec  (  0.0%)
Grid generation             ....       0.224 sec  (  8.3%)
------------------------------------------------------------------------------
                        ORCA TD-DFT/TDA CALCULATION
------------------------------------------------------------------------------

Input orbitals are from        ... /Users/lailaal-madhagi/Desktop/Testing_XAS_Analysis_code/CarbonMonoxide//Results_dir_CarbonMonoxide_geom_element_O_2019-11-10_01-09-08//GTE1_CarbonMonoxide_geom_2019-11-10_01-09-22//TDDFT_O-edge.gbw
CI-vector output               ... /Users/lailaal-madhagi/Desktop/Testing_XAS_Analysis_code/CarbonMonoxide//Results_dir_CarbonMonoxide_geom_element_O_2019-11-10_01-09-08//GTE1_CarbonMonoxide_geom_2019-11-10_01-09-22//TDDFT_O-edge.cis
Tamm-Dancoff approximation     ... operative
CIS-Integral strategy          ... AO-integrals
Integral handling              ... AO integral Direct
Max. core memory used          ... 512 MB
Reference state                ... RHF
Generation of triplets         ... off
Follow IRoot                   ... off
Number of operators            ... 1
Orbital ranges used for CIS calculation:
 Operator 0:  Orbitals   0...  0  to   7... 27
XAS localization array:
 Operator 0:  Orbitals  -1... -1
-------------------
XC-INTEGRATION GRID
-------------------

General Integration Accuracy     IntAcc      ...  3.670
Radial Grid Type                 RadialGrid  ... Gauss-Chebyshev
Angular Grid (max. acc.)         AngularGrid ... Lebedev-50
Angular grid pruning method      GridPruning ... 3 (G Style)
Weight generation scheme         WeightScheme... Becke
Basis function cutoff            BFCut       ...    1.0000e-11
Integration weight cutoff        WCut        ...    1.0000e-14
Grids for H and He will be reduced by one unit

# of grid points (after initial pruning)     ...   1436 (   0.0 sec)
# of grid points (after weights+screening)   ...   1436 (   0.0 sec)
nearest neighbour list constructed           ...    0.0 sec
Grid point re-assignment to atoms done       ...    0.0 sec
Grid point division into batches done        ...    0.0 sec
Reduced shell lists constructed in    0.0 sec

Total number of grid points                  ...     1436
Total number of batches                      ...       23
Average number of points per batch           ...       62
Average number of grid points per atom       ...      718
Average number of shells per batch           ...    11.00 (91.67%)
Average number of basis functions per batch  ...    26.25 (93.75%)
Average number of large shells per batch     ...    10.58 (96.21%)
Average number of large basis fcns per batch ...    25.50 (97.14%)
Maximum spatial batch extension              ...  16.16, 27.71, 27.71 au
Average spatial batch extension              ...   7.68, 10.06, 10.35 au


---------------
TD-DFT XC SETUP
---------------

DFT calculation                         ... on
Name of the grid file                   ... /Users/lailaal-madhagi/Desktop/Testing_XAS_Analysis_code/CarbonMonoxide//Results_dir_CarbonMonoxide_geom_element_O_2019-11-10_01-09-08//GTE1_CarbonMonoxide_geom_2019-11-10_01-09-22//TDDFT_O-edge.grid_cis.tmp
Exchange functional (SCF)               ... B88
Exchange functional (TD-DFT)            ... B88
   X-Alpha parameter    XAlpha (SCF)    ...  0.666667
   X-Alpha parameter    XAlpha (TD-DFT) ...  0.666667
   Becke's b parameter  XBeta (SCF)     ...  0.004200
   Becke's b parameter  XBeta (TD-DFT)  ...  0.004200
Correlation functional (SCF)            ... LYP
Correlation functional (TD-DFT)         ... LYP
 LDA part of GGA corr.  LDAOpt (SCF)    ... VWN-5
 LDA part of GGA corr.  LDAOpt (TD-DFT) ... VWN-5
Hybrid DFT                              ... on
   Exchange mixing (SCF)                ...  0.200
   Exchange mixing (TD-DFT)             ...  0.200
   GGA exch. scaling(SCF)               ...  0.720
   GGA exch. scaling (TD-DFT)           ...  0.720
   GGA corr. scaling (SCF)              ...  0.810
   GGA corr. scaling (TD-DFT)           ...  0.810

Building densities             ... done
Calculating rho(r) on the grid ... done
Building xc-kernel on the grid ... done
                    *** TD-DFT CALCULATION INITIALIZED ***


------------------------
DAVIDSON-DIAGONALIZATION
------------------------

Dimension of the eigenvalue problem            ...     21
Number of roots to be determined               ...     20
Maximum size of the expansion space            ...     21
Maximum number of iterations                   ...    100
Convergence tolerance for the residual         ...    2.500e-07
Convergence tolerance for the energies         ...    2.500e-07
Orthogonality tolerance                        ...    1.000e-14
Level Shift                                    ...    0.000e+00
Constructing the preconditioner                ... o.k.
Building the initial guess                     ... o.k.
Number of trial vectors determined             ...     21


                       ****Iteration    0****

   Memory handling for direct AO based CIS:
   Memory per vector needed      ...     1 MB
   Memory needed                 ...     0 MB
   Memory available              ...   512 MB
   Number of vectors per batch   ...   512
   Number of batches             ...     1
   Time for densities:     0.001
   Using LibInt in JK Direct
   Time for J+K (Direct):     0.180
   Time for XC-Integration:     0.034
   Time for Sigma-Completion:     0.005
   Size of expansion space: 21
   Lowest Energy          :    19.128620667990
   Maximum Energy change  :    21.735159958334 (vector 19)
   Maximum residual norm  :     0.000000000000

      *** CONVERGENCE OF RESIDUAL NORM REACHED ***

Storing the converged CI vectors               ... /Users/lailaal-madhagi/Desktop/Testing_XAS_Analysis_code/CarbonMonoxide//Results_dir_CarbonMonoxide_geom_element_O_2019-11-10_01-09-08//GTE1_CarbonMonoxide_geom_2019-11-10_01-09-22//TDDFT_O-edge.cis1

                 *** DAVIDSON DONE ***

Total time for solving the CIS problem:     0.249sec

------------------------------------
TD-DFT/TDA EXCITED STATES (SINGLETS)
------------------------------------

the weight of the individual excitations are printed if larger than 1.0e-02

STATE  1:  E=  19.128621 au    520.516 eV  4198247.0 cm**-1
     0a ->   7a  :     0.268284 (c= -0.51796172)
     0a ->   8a  :     0.729973 (c= -0.85438477)

STATE  2:  E=  19.128626 au    520.516 eV  4198248.1 cm**-1
     0a ->   7a  :     0.729974 (c=  0.85438504)
     0a ->   8a  :     0.268284 (c= -0.51796186)

STATE  3:  E=  19.455442 au    529.410 eV  4269976.0 cm**-1
     0a ->   9a  :     0.999141 (c=  0.99957035)

STATE  4:  E=  19.694440 au    535.913 eV  4322429.9 cm**-1
     0a ->  10a  :     0.970661 (c= -0.98522108)
     0a ->  11a  :     0.027821 (c= -0.16679601)

STATE  5:  E=  19.694441 au    535.913 eV  4322430.2 cm**-1
     0a ->  10a  :     0.027821 (c= -0.16679620)
     0a ->  11a  :     0.970661 (c=  0.98522110)

STATE  6:  E=  19.778481 au    538.200 eV  4340874.9 cm**-1
     0a ->  12a  :     0.995174 (c=  0.99758384)

STATE  7:  E=  19.888052 au    541.181 eV  4364922.8 cm**-1
     0a ->  13a  :     0.956174 (c= -0.97784142)
     0a ->  14a  :     0.039541 (c= -0.19884817)

STATE  8:  E=  19.969113 au    543.387 eV  4382713.7 cm**-1
     0a ->  13a  :     0.040565 (c= -0.20140705)
     0a ->  14a  :     0.957349 (c=  0.97844195)

STATE  9:  E=  20.045896 au    545.477 eV  4399565.5 cm**-1
     0a ->  15a  :     0.184057 (c= -0.42901893)
     0a ->  16a  :     0.813659 (c=  0.90203059)

STATE 10:  E=  20.045909 au    545.477 eV  4399568.6 cm**-1
     0a ->  15a  :     0.813660 (c=  0.90203118)
     0a ->  16a  :     0.184057 (c=  0.42901908)

STATE 11:  E=  20.616352 au    560.999 eV  4524766.3 cm**-1
     0a ->  17a  :     0.994064 (c=  0.99702777)

STATE 12:  E=  20.616356 au    561.000 eV  4524767.2 cm**-1
     0a ->  18a  :     0.994064 (c=  0.99702780)

STATE 13:  E=  20.672839 au    562.537 eV  4537163.8 cm**-1
     0a ->  20a  :     0.931682 (c= -0.96523658)
     0a ->  21a  :     0.066976 (c=  0.25879646)

STATE 14:  E=  20.672841 au    562.537 eV  4537164.3 cm**-1
     0a ->  20a  :     0.066976 (c=  0.25879692)
     0a ->  21a  :     0.931682 (c=  0.96523661)

STATE 15:  E=  20.674099 au    562.571 eV  4537440.2 cm**-1
     0a ->  19a  :     0.999141 (c= -0.99957064)

STATE 16:  E=  21.078677 au    573.580 eV  4626234.9 cm**-1
     0a ->  22a  :     0.993049 (c=  0.99651844)

STATE 17:  E=  21.078683 au    573.580 eV  4626236.1 cm**-1
     0a ->  23a  :     0.993049 (c=  0.99651847)

STATE 18:  E=  21.573064 au    587.033 eV  4734740.2 cm**-1
     0a ->  24a  :     0.998838 (c=  0.99941890)

STATE 19:  E=  21.735156 au    591.444 eV  4770315.4 cm**-1
     0a ->  25a  :     0.913877 (c=  0.95596912)
     0a ->  26a  :     0.085053 (c=  0.29163856)

STATE 20:  E=  21.735160 au    591.444 eV  4770316.2 cm**-1
     0a ->  25a  :     0.085053 (c=  0.29163860)
     0a ->  26a  :     0.913877 (c= -0.95596912)


-----------------------------
TD-DFT/TDA-EXCITATION SPECTRA
-----------------------------

Center of mass = ( -2.1398,  0.1416,  0.3034)
Calculating the Dipole integrals                  ... done
Transforming integrals                            ... done
Calculating the Linear Momentum integrals         ... done
Transforming integrals                            ... done
Calculating angular momentum integrals            ... done
Transforming integrals                            ... done

-----------------------------------------------------------------------------
         ABSORPTION SPECTRUM VIA TRANSITION ELECTRIC DIPOLE MOMENTS
-----------------------------------------------------------------------------
State   Energy    Wavelength  fosc         T2        TX        TY        TZ  
        (cm-1)      (nm)                 (au**2)    (au)      (au)      (au) 
-----------------------------------------------------------------------------
   1 4198247.0      2.4   0.034775102   0.00273  -0.01212   0.04159  -0.02916
   2 4198248.1      2.4   0.034773943   0.00273  -0.00574  -0.03091  -0.04169
   3 4269976.1      2.3   0.001790365   0.00014  -0.01135  -0.00146   0.00264
   4 4322429.9      2.3   0.001226269   0.00009  -0.00243   0.00261  -0.00898
   5 4322430.2      2.3   0.001226248   0.00009   0.00053  -0.00923  -0.00282
   6 4340874.9      2.3   0.003191163   0.00024   0.01503   0.00193  -0.00350
   7 4364922.8      2.3   0.029603021   0.00223   0.04567   0.00585  -0.01063
   8 4382713.7      2.3   0.068214590   0.00512  -0.06918  -0.00886   0.01611
   9 4399565.5      2.3   0.098201800   0.00735   0.02077  -0.06260   0.05476
  10 4399568.6      2.3   0.098202917   0.00735  -0.00731  -0.05759  -0.06307
  11 4524766.3      2.2   0.000000000   0.00000  -0.00000  -0.00000  -0.00000
  12 4524767.2      2.2   0.000000000   0.00000  -0.00000   0.00000   0.00000
  13 4537163.8      2.2   0.003503627   0.00025   0.00395  -0.00349   0.01505
  14 4537164.3      2.2   0.003503873   0.00025   0.00107  -0.01543  -0.00386
  15 4537440.2      2.2   0.000751906   0.00005  -0.00714  -0.00091   0.00165
  16 4626235.0      2.2   0.000000000   0.00000   0.00000   0.00000   0.00000
  17 4626236.1      2.2   0.000000000   0.00000   0.00000  -0.00000  -0.00000
  18 4734740.2      2.1   0.032390092   0.00225  -0.04586  -0.00588   0.01068
  19 4770315.4      2.1   0.000538094   0.00004   0.00154  -0.00180   0.00562
  20 4770316.2      2.1   0.000538049   0.00004  -0.00029   0.00577   0.00193

-----------------------------------------------------------------------------
         ABSORPTION SPECTRUM VIA TRANSITION VELOCITY DIPOLE MOMENTS
-----------------------------------------------------------------------------
State   Energy    Wavelength   fosc        P2         PX        PY        PZ  
        (cm-1)      (nm)                 (au**2)     (au)      (au)      (au) 
-----------------------------------------------------------------------------
   1 4198247.0      2.4   0.034067288   0.97749   0.22950  -0.78740   0.55211
   2 4198248.1      2.4   0.034066080   0.97746   0.10875   0.58521   0.78941
   3 4269976.1      2.3   0.003003998   0.08767   0.28615   0.03668  -0.06662
   4 4322429.9      2.3   0.001429467   0.04223   0.05158  -0.05541   0.19104
   5 4322430.2      2.3   0.001429443   0.04223  -0.01122   0.19624   0.05994
   6 4340874.9      2.3   0.003420005   0.10146  -0.30785  -0.03946   0.07167
   7 4364922.8      2.3   0.026550849   0.79207  -0.86013  -0.11022   0.20025
   8 4382713.7      2.3   0.067052931   2.00848   1.36967   0.17547  -0.31889
   9 4399565.5      2.3   0.092305633   2.77552  -0.40363   1.21663  -1.06416
  10 4399568.6      2.3   0.092306573   2.77555   0.14199   1.11928   1.22580
  11 4524766.3      2.2   0.000000000   0.00000   0.00001   0.00000   0.00001
  12 4524767.2      2.2   0.000000000   0.00000   0.00001  -0.00001  -0.00000
  13 4537163.8      2.2   0.003158400   0.09794  -0.07749   0.06858  -0.29535
  14 4537164.3      2.2   0.003158619   0.09795  -0.02112   0.30290   0.07586
  15 4537440.2      2.2   0.000269827   0.00837   0.08847   0.01114  -0.02040
  16 4626235.0      2.2   0.000000000   0.00000  -0.00001  -0.00000  -0.00000
  17 4626236.1      2.2   0.000000000   0.00000  -0.00001   0.00001   0.00000
  18 4734740.2      2.1   0.031546048   1.02082   0.97645   0.12520  -0.22733
  19 4770315.4      2.1   0.000592185   0.01931  -0.03506   0.04097  -0.12806
  20 4770316.2      2.1   0.000592144   0.01931   0.00664  -0.13164  -0.04395

-------------------------------------------------------------------
                             CD SPECTRUM
-------------------------------------------------------------------
State  Energy     Wavelength     R         MX        MY        MZ   
       (cm-1)       (nm)     (1e40*cgs)   (au)      (au)      (au)  
-------------------------------------------------------------------
   1 4198247.0      2.4     -0.00000   0.05008   0.26945   0.36347
   2 4198248.1      2.4      0.00000  -0.10566   0.36254  -0.25420
   3 4269976.1      2.3      0.00000   0.00000   0.00000   0.00000
   4 4322429.9      2.3      0.00000  -0.00516   0.09033   0.02760
   5 4322430.2      2.3     -0.00000  -0.02374   0.02550  -0.08794
   6 4340874.9      2.3     -0.00000  -0.00000   0.00000  -0.00000
   7 4364922.8      2.3      0.00000  -0.00001  -0.00000  -0.00002
   8 4382713.7      2.3     -0.00000   0.00001  -0.00000   0.00006
   9 4399565.5      2.3      0.00000  -0.06539  -0.51578  -0.56488
  10 4399568.6      2.3     -0.00000  -0.18604   0.56064  -0.49037
  11 4524766.3      2.2     -0.00000  -0.00000   0.00000  -0.00000
  12 4524767.2      2.2      0.00000   0.00000   0.00000   0.00001
  13 4537163.8      2.2      0.00000   0.00982  -0.14050  -0.03520
  14 4537164.3      2.2     -0.00000  -0.03598   0.03181  -0.13701
  15 4537440.2      2.2     -0.00000   0.00001   0.00009   0.00009
  16 4626235.0      2.2     -0.00000   0.00000  -0.00000   0.00000
  17 4626236.1      2.2      0.00000  -0.00000  -0.00000  -0.00000
  18 4734740.2      2.1     -0.00000  -0.00000   0.00000  -0.00000
  19 4770315.4      2.1     -0.00000   0.00312  -0.06170  -0.02059
  20 4770316.2      2.1      0.00000   0.01644  -0.01921   0.06002

Total run time:        0.389 sec

           *** ORCA-CIS/TD-DFT FINISHED WITHOUT ERROR ***

-----------------------
CIS/TD-DFT TOTAL ENERGY
-----------------------

    E(SCF)  =   -113.254651471 Eh
    DE(CIS) =     19.128620668 Eh (Root  1)
    ----------------------------- ---------
    E(tot)  =    -94.126030803 Eh


-------------------------   --------------------
FINAL SINGLE POINT ENERGY       -94.126030803005
-------------------------   --------------------


                            ***************************************
                            *     ORCA property calculations      *
                            ***************************************

                                    ---------------------
                                    Active property flags
                                    ---------------------
   (+) Dipole Moment


------------------------------------------------------------------------------
                       ORCA ELECTRIC PROPERTIES CALCULATION
------------------------------------------------------------------------------

Dipole Moment Calculation                       ... on
Quadrupole Moment Calculation                   ... off
Polarizability Calculation                      ... off
GBWName                                         ... /Users/lailaal-madhagi/Desktop/Testing_XAS_Analysis_code/CarbonMonoxide//Results_dir_CarbonMonoxide_geom_element_O_2019-11-10_01-09-08//GTE1_CarbonMonoxide_geom_2019-11-10_01-09-22//TDDFT_O-edge.gbw
Electron density file                           ... /Users/lailaal-madhagi/Desktop/Testing_XAS_Analysis_code/CarbonMonoxide//Results_dir_CarbonMonoxide_geom_element_O_2019-11-10_01-09-08//GTE1_CarbonMonoxide_geom_2019-11-10_01-09-22//TDDFT_O-edge.scfp.tmp
The origin for moment calculation is the CENTER OF MASS  = (-2.139799,  0.141592  0.303393)

-------------
DIPOLE MOMENT
-------------
                                X             Y             Z
Electronic contribution:      0.01770       0.00227      -0.00412
Nuclear contribution   :      0.00697       0.00089      -0.00162
                        -----------------------------------------
Total Dipole Moment    :      0.02467       0.00316      -0.00574
                        -----------------------------------------
Magnitude (a.u.)       :      0.02553
Magnitude (Debye)      :      0.06489



--------------------
Rotational spectrum 
--------------------
 
Rotational constants in cm-1:     0.000000     1.897736     1.897736 
Rotational constants in MHz :     0.000000 56892.702601 56892.702601 

 Dipole components along the rotational axes: 
x,y,z [a.u.] :     0.025529    -0.000000     0.000000 
x,y,z [Debye]:     0.064890    -0.000000     0.000001 

 

Timings for individual modules:

Sum of individual times         ...        4.363 sec (=   0.073 min)
GTO integral calculation        ...        0.343 sec (=   0.006 min)   7.9 %
SCF iterations                  ...        2.735 sec (=   0.046 min)  62.7 %
CIS module                      ...        1.284 sec (=   0.021 min)  29.4 %
                             ****ORCA TERMINATED NORMALLY****
TOTAL RUN TIME: 0 days 0 hours 0 minutes 4 seconds 512 msec
