12
	Energy:     452.4840984
O          1.86850        2.10094       -0.52474
C          2.49893        3.11788       -0.57814
C          2.22970        4.31857       -0.08427
C          3.11831        5.50238       -0.23168
C          4.27857        5.48865       -0.87328
C          4.58629        4.16410       -1.42379
C          3.78126        3.09166       -1.29028
H          1.30251        4.45423        0.46447
H          2.78880        6.43435        0.21784
H          5.51687        4.03844       -1.97131
H          4.10231        2.15402       -1.73672
O          5.07137        6.36763       -1.05586
