
                                 *****************
                                 * O   R   C   A *
                                 *****************

           --- An Ab Initio, DFT and Semiempirical electronic structure package ---

                  #######################################################
                  #                        -***-                        #
                  #          Department of theory and spectroscopy      #
                  #               Directorship: Frank Neese             #
                  #        Max Planck Institute fuer Kohlenforschung    #
                  #                Kaiser Wilhelm Platz 1               #
                  #                 D-45470 Muelheim/Ruhr               #
                  #                      Germany                        #
                  #                                                     #
                  #                  All rights reserved                #
                  #                        -***-                        #
                  #######################################################


                         Program Version 4.1.0  - RELEASE  -


 With contributions from (in alphabetic order):
   Daniel Aravena         : Magnetic Properties
   Michael Atanasov       : Ab Initio Ligand Field Theory
   Alexander A. Auer      : GIAO ZORA
   Ute Becker             : Parallelization
   Giovanni Bistoni       : ED, Open-shell LED
   Martin Brehm           : Molecular dynamics
   Dmytro Bykov           : SCF Hessian
   Vijay G. Chilkuri      : MRCI spin determinant printing
   Dipayan Datta          : RHF DLPNO-CCSD density
   Achintya Kumar Dutta   : EOM-CC, STEOM-CC
   Dmitry Ganyushin       : Spin-Orbit,Spin-Spin,Magnetic field MRCI
   Miquel Garcia          : C-PCM Hessian
   Yang Guo               : DLPNO-NEVPT2, CIM, IAO-localization
   Andreas Hansen         : Spin unrestricted coupled pair/coupled cluster methods
   Benjamin Helmich-Paris : CASSCF linear response (MC-RPA)
   Lee Huntington         : MR-EOM, pCC
   Robert Izsak           : Overlap fitted RIJCOSX, COSX-SCS-MP3, EOM
   Christian Kollmar      : KDIIS, OOCD, Brueckner-CCSD(T), CCSD density
   Simone Kossmann        : Meta GGA functionals, TD-DFT gradient, OOMP2, MP2 Hessian
   Martin Krupicka        : AUTO-CI
   Lucas Lang             : DCDCAS
   Dagmar Lenk            : GEPOL surface, SMD
   Dimitrios Liakos       : Extrapolation schemes; parallel MDCI
   Dimitrios Manganas     : ROCIS; embedding schemes
   Dimitrios Pantazis     : SARC Basis sets
   Taras Petrenko         : DFT Hessian,TD-DFT gradient, ASA, ECA, R-Raman, ABS, FL, XAS/XES, NRVS
   Peter Pinski           : DLPNO-MP2, DLPNO-MP2 Gradient
   Christoph Reimann      : Effective Core Potentials
   Marius Retegan         : Local ZFS, SOC
   Christoph Riplinger    : Optimizer, TS searches, QM/MM, DLPNO-CCSD(T), (RO)-DLPNO pert. Triples
   Tobias Risthaus        : Range-separated hybrids, TD-DFT gradient, RPA, STAB
   Michael Roemelt        : Restricted open shell CIS
   Masaaki Saitow         : Open-shell DLPNO
   Barbara Sandhoefer     : DKH picture change effects
   Avijit Sen             : IP-ROCIS
   Kantharuban Sivalingam : CASSCF convergence, NEVPT2, FIC-MRCI
   Bernardo de Souza      : ESD, SOC TD-DFT
   Georgi Stoychev        : AutoAux, RI-MP2 NMR
   Willem Van den Heuvel  : Paramagnetic NMR
   Boris Wezisla          : Elementary symmetry handling
   Frank Wennmohs         : Technical directorship


 We gratefully acknowledge several colleagues who have allowed us to
 interface, adapt or use parts of their codes:
   Stefan Grimme, W. Hujo, H. Kruse,             : VdW corrections, initial TS optimization,
                  C. Bannwarth                     DFT functionals, gCP, sTDA/sTD-DF
   Ed Valeev                                     : LibInt (2-el integral package), F12 methods
   Garnet Chan, S. Sharma, J. Yang, R. Olivares  : DMRG
   Ulf Ekstrom                                   : XCFun DFT Library
   Mihaly Kallay                                 : mrcc  (arbitrary order and MRCC methods)
   Andreas Klamt, Michael Diedenhofen            : otool_cosmo (COSMO solvation model)
   Jiri Pittner, Ondrej Demel                    : Mk-CCSD
   Frank Weinhold                                : gennbo (NPA and NBO analysis)
   Christopher J. Cramer and Donald G. Truhlar   : smd solvation model
   Lars Goerigk                                  : TD-DFT with DH, B97 family of functionals
   V. Asgeirsson, H. Jonsson                     : NEB implementation
   FAccTs GmbH                                   : IRC, NEB, NEB-TS, Multilevel


 Your calculation uses the libint2 library for the computation of 2-el integrals
 For citations please refer to: http://libint.valeyev.net

 This ORCA versions uses:
   CBLAS   interface :  Fast vector & matrix operations
   LAPACKE interface :  Fast linear algebra routines
   SCALAPACK package :  Parallel linear algebra routines




***************************************
The coordinates will be read from file: /Users/lailaal-madhagi/Desktop/Testing_XAS_Analysis_code/Alanine/Alanine_geom.xyz
***************************************


----- Orbital basis set information -----
Your calculation utilizes the basis: 6-31G*
   H-He, Li-Ne : W. J. Hehre, R. Ditchfield and J.A. Pople, J. Chem. Phys. 56, 2257 (1972).
                 Note: He and Ne are unpublished basis sets taken from the Gaussian program.
                 Note: Li and B from J. D. Dill and J. A. Pople, J. Chem. Phys. 62, 2921 (1975).
   Na - Ar     : M. M. Francl, W. J. Pietro, W. J. Hehre, J. S. Binkley, M. S. Gordon, 
                 D. J. DeFrees and J. A. Pople, J. Chem. Phys. 77, 3654 (1982).
   K - Zn      : V. A. Rassolov, J. A. Pople, M. A. Ratner, and T. L. Windus, J. Chem. Phys. 109, 1223 (1998).

================================================================================
                                        WARNINGS
                       Please study these warnings very carefully!
================================================================================


WARNING: Geometry Optimization
  ===> : Switching off AutoStart
         For restart on a previous wavefunction, please use MOREAD

INFO   : the flag for use of LIBINT has been found!

================================================================================
                                       INPUT FILE
================================================================================
NAME = /Users/lailaal-madhagi/Desktop/Testing_XAS_Analysis_code/Alanine//Results_dir_Alanine_geom_element_C_2019-11-03_21-44-41//GTE1_Alanine_geom_2019-11-03_21-44-56//opt.inp
|  1> ! B3LYP 6-31G* TIGHTSCF Grid3 FinalGrid5 Opt 
|  2> !NormalPrint 
|  3> %output 
|  4> Print[P_Basis] 2 
|  5> Print[P_MOS] 1 
|  6> end 
|  7> *xyzfile 0 1 /Users/lailaal-madhagi/Desktop/Testing_XAS_Analysis_code/Alanine/Alanine_geom.xyz                           ****END OF INPUT****
================================================================================

                       *****************************
                       * Geometry Optimization Run *
                       *****************************

Geometry optimization settings:
Update method            Update   .... BFGS
Choice of coordinates    CoordSys .... Z-matrix Internals
Initial Hessian          InHess   .... Almoef's Model

Convergence Tolerances:
Energy Change            TolE     ....  5.0000e-06 Eh
Max. Gradient            TolMAXG  ....  3.0000e-04 Eh/bohr
RMS Gradient             TolRMSG  ....  1.0000e-04 Eh/bohr
Max. Displacement        TolMAXD  ....  4.0000e-03 bohr
RMS Displacement         TolRMSD  ....  2.0000e-03 bohr

------------------------------------------------------------------------------
                        ORCA OPTIMIZATION COORDINATE SETUP
------------------------------------------------------------------------------

The optimization will be done in new redundant internal coordinates
Making redundant internal coordinates   ...  (new redundants) done
Evaluating the initial hessian          ...  (Almloef) done
Evaluating the coordinates              ...  done
Calculating the B-matrix                .... done
Calculating the G-matrix                .... done
Diagonalizing the G-matrix              .... done
The first mode is                       ....   21
The number of degrees of freedom        ....   33

    -----------------------------------------------------------------
                    Redundant Internal Coordinates


    -----------------------------------------------------------------
         Definition                    Initial Value    Approx d2E/dq
    -----------------------------------------------------------------
      1. B(C   1,C   0)                  1.5377         0.363113   
      2. B(H   2,C   0)                  1.1107         0.333700   
      3. B(H   3,C   0)                  1.1108         0.333610   
      4. B(H   4,C   0)                  1.1113         0.332957   
      5. B(C   5,C   1)                  1.5108         0.400905   
      6. B(N   6,C   1)                  1.4630         0.427910   
      7. B(H   7,C   1)                  1.1122         0.331905   
      8. B(O   8,C   5)                  1.3500         0.648068   
      9. B(O   9,C   5)                  1.2230         1.033325   
     10. B(H  10,O   8)                  0.9676         0.505553   
     11. B(H  11,N   6)                  1.0459         0.379261   
     12. B(H  12,N   6)                  1.0467         0.378198   
     13. A(H   2,C   0,H   4)          108.6509         0.283903   
     14. A(C   1,C   0,H   2)          110.0524         0.318816   
     15. A(H   3,C   0,H   4)          108.9824         0.283891   
     16. A(H   2,C   0,H   3)          108.2106         0.283989   
     17. A(C   1,C   0,H   3)          110.2412         0.318802   
     18. A(C   1,C   0,H   4)          110.6463         0.318700   
     19. A(C   0,C   1,C   5)          112.6383         0.365985   
     20. A(N   6,C   1,H   7)          108.6575         0.325267   
     21. A(C   5,C   1,H   7)          107.6130         0.323738   
     22. A(C   0,C   1,H   7)          108.0867         0.318536   
     23. A(C   5,C   1,N   6)          109.2850         0.374107   
     24. A(C   0,C   1,N   6)          110.4403         0.367789   
     25. A(O   8,C   5,O   9)          119.7020         0.473848   
     26. A(C   1,C   5,O   9)          121.1731         0.437072   
     27. A(C   1,C   5,O   8)          119.1249         0.402191   
     28. A(H  11,N   6,H  12)          108.7283         0.290716   
     29. A(C   1,N   6,H  12)          110.1093         0.329517   
     30. A(C   1,N   6,H  11)          109.7138         0.329670   
     31. A(C   5,O   8,H  10)          121.4945         0.371148   
     32. D(H   7,C   1,C   0,H   2)     59.7614         0.010566   
     33. D(H   7,C   1,C   0,H   4)    179.8499         0.010566   
     34. D(N   6,C   1,C   0,H   2)    -58.9810         0.010566   
     35. D(H   7,C   1,C   0,H   3)    -59.5246         0.010566   
     36. D(C   5,C   1,C   0,H   4)    -61.3934         0.010566   
     37. D(N   6,C   1,C   0,H   4)     61.1075         0.010566   
     38. D(N   6,C   1,C   0,H   3)   -178.2670         0.010566   
     39. D(C   5,C   1,C   0,H   2)    178.5181         0.010566   
     40. D(C   5,C   1,C   0,H   3)     59.2321         0.010566   
     41. D(O   9,C   5,C   1,N   6)   -121.7453         0.011926   
     42. D(O   9,C   5,C   1,C   0)      1.4026         0.011926   
     43. D(O   8,C   5,C   1,H   7)    -59.5318         0.011926   
     44. D(O   8,C   5,C   1,N   6)     58.2872         0.011926   
     45. D(O   9,C   5,C   1,H   7)    120.4357         0.011926   
     46. D(O   8,C   5,C   1,C   0)   -178.5649         0.011926   
     47. D(H  12,N   6,C   1,H   7)   -177.7548         0.015611   
     48. D(H  12,N   6,C   1,C   5)     65.0836         0.015611   
     49. D(H  12,N   6,C   1,C   0)    -59.3605         0.015611   
     50. D(H  11,N   6,C   1,H   7)    -58.1243         0.015611   
     51. D(H  11,N   6,C   1,C   5)   -175.2858         0.015611   
     52. D(H  11,N   6,C   1,C   0)     60.2701         0.015611   
     53. D(H  10,O   8,C   5,O   9)      0.2973         0.031024   
     54. D(H  10,O   8,C   5,C   1)   -179.7348         0.031024   
    -----------------------------------------------------------------

Number of atoms                         .... 13
Number of degrees of freedom            .... 54

         *************************************************************
         *                GEOMETRY OPTIMIZATION CYCLE   1            *
         *************************************************************
---------------------------------
CARTESIAN COORDINATES (ANGSTROEM)
---------------------------------
  C     -3.746830    1.093730   -0.062620
  C     -2.433430    0.330920   -0.302870
  H     -4.612460    0.465120   -0.361360
  H     -3.767510    2.023940   -0.669380
  H     -3.854620    1.359940    1.010960
  C     -1.213150    1.148120    0.051470
  N     -2.419170   -0.915670    0.462820
  H     -2.370490    0.084220   -1.385530
  O      0.012510    0.614370   -0.136920
  O     -1.318400    2.279760    0.503310
  H      0.816920    1.105740    0.081760
  H     -3.217370   -1.522100    0.164490
  H     -2.515980   -0.711400    1.484770

----------------------------
CARTESIAN COORDINATES (A.U.)
----------------------------
  NO LB      ZA    FRAG     MASS         X           Y           Z
   0 C     6.0000    0    12.011   -7.080483    2.066850   -0.118335
   1 C     6.0000    0    12.011   -4.598516    0.625348   -0.572341
   2 H     1.0000    0     1.008   -8.716286    0.878949   -0.682871
   3 H     1.0000    0     1.008   -7.119562    3.824692   -1.264945
   4 H     1.0000    0     1.008   -7.284176    2.569914    1.910438
   5 C     6.0000    0    12.011   -2.292521    2.169632    0.097264
   6 N     7.0000    0    14.007   -4.571569   -1.730366    0.874603
   7 H     1.0000    0     1.008   -4.479577    0.159153   -2.618272
   8 O     8.0000    0    15.999    0.023640    1.160991   -0.258741
   9 O     8.0000    0    15.999   -2.491415    4.308122    0.951118
  10 H     1.0000    0     1.008    1.543755    2.089546    0.154504
  11 H     1.0000    0     1.008   -6.079948   -2.876352    0.310841
  12 H     1.0000    0     1.008   -4.754513   -1.344351    2.805809

--------------------------------
INTERNAL COORDINATES (ANGSTROEM)
--------------------------------
 C      0   0   0     0.000000000000     0.00000000     0.00000000
 C      1   0   0     1.537731679650     0.00000000     0.00000000
 H      1   2   0     1.110725626156   110.05235865     0.00000000
 H      1   2   3     1.110799713765   110.24119941   240.71399682
 H      1   2   3     1.111332742521   110.64633089   120.08848994
 C      2   1   3     1.510779915805   112.63826737   178.51810548
 N      2   1   3     1.463034911340   110.44026362   301.01900016
 H      2   1   3     1.112193782216   108.08673345    59.76144777
 O      6   2   1     1.350045291907   119.12487921   181.43511001
 O      6   2   1     1.223047847674   121.17314663     1.40257346
 H      9   6   2     0.967647077916   121.49445587   180.26520100
 H      7   2   1     1.045887839971   109.71375171    60.27005643
 H      7   2   1     1.046651905602   110.10929908   300.63948763

---------------------------
INTERNAL COORDINATES (A.U.)
---------------------------
 C      0   0   0     0.000000000000     0.00000000     0.00000000
 C      1   0   0     2.905891741994     0.00000000     0.00000000
 H      1   2   0     2.098967243363   110.05235865     0.00000000
 H      1   2   3     2.099107248654   110.24119941   240.71399682
 H      1   2   3     2.100114527025   110.64633089   120.08848994
 C      2   1   3     2.854960289500   112.63826737   178.51810548
 N      2   1   3     2.764735306799   110.44026362   301.01900016
 H      2   1   3     2.101741656238   108.08673345    59.76144777
 O      6   2   1     2.551215870094   119.12487921   181.43511001
 O      6   2   1     2.311225480786   121.17314663     1.40257346
 H      9   6   2     1.828587971551   121.49445587   180.26520100
 H      7   2   1     1.976441584344   109.71375171    60.27005643
 H      7   2   1     1.977885459134   110.10929908   300.63948763

---------------------
BASIS SET INFORMATION
---------------------
There are 4 groups of distinct atoms

 Group   1 Type C   : 10s4p1d contracted to 3s2p1d pattern {631/31/1}
 Group   2 Type H   : 4s contracted to 2s pattern {31}
 Group   3 Type N   : 10s4p1d contracted to 3s2p1d pattern {631/31/1}
 Group   4 Type O   : 10s4p1d contracted to 3s2p1d pattern {631/31/1}

Atom   0C    basis set group =>   1
Atom   1C    basis set group =>   1
Atom   2H    basis set group =>   2
Atom   3H    basis set group =>   2
Atom   4H    basis set group =>   2
Atom   5C    basis set group =>   1
Atom   6N    basis set group =>   3
Atom   7H    basis set group =>   2
Atom   8O    basis set group =>   4
Atom   9O    basis set group =>   4
Atom  10H    basis set group =>   2
Atom  11H    basis set group =>   2
Atom  12H    basis set group =>   2

-------------------------
BASIS SET IN INPUT FORMAT
-------------------------

 # Basis set for element : H 
 NewGTO H 
 S 3 
   1      18.7311370000      0.0334945995
   2       2.8253937000      0.2347269467
   3       0.6401217000      0.8137573184
 S 1 
   1       0.1612778000      1.0000000000
  end;

 # Basis set for element : C 
 NewGTO C 
 S 6 
   1    3047.5249000000      0.0018347002
   2     457.3695100000      0.0140373012
   3     103.9486900000      0.0688426061
   4      29.2101550000      0.2321844206
   5       9.2866630000      0.4679413416
   6       3.1639270000      0.3623120322
 S 3 
   1       7.8682724000     -0.1193324086
   2       1.8812885000     -0.1608542116
   3       0.5442493000      1.1434564826
 P 3 
   1       7.8682724000      0.0689990956
   2       1.8812885000      0.3164239798
   3       0.5442493000      0.7443082524
 S 1 
   1       0.1687144000      1.0000000000
 P 1 
   1       0.1687144000      1.0000000000
 D 1 
   1       0.8000000000      1.0000000000
  end;

 # Basis set for element : N 
 NewGTO N 
 S 6 
   1    4173.5110000000      0.0018347994
   2     627.4579000000      0.0139949958
   3     142.9021000000      0.0685869792
   4      40.2343300000      0.2322409295
   5      12.8202100000      0.4690698576
   6       4.3904370000      0.3604548906
 S 3 
   1      11.6263580000     -0.1149610229
   2       2.7162800000     -0.1691180337
   3       0.7722180000      1.1458522281
 P 3 
   1      11.6263580000      0.0675800232
   2       2.7162800000      0.3239071114
   3       0.7722180000      0.7408952549
 S 1 
   1       0.2120313000      1.0000000000
 P 1 
   1       0.2120313000      1.0000000000
 D 1 
   1       0.8000000000      1.0000000000
  end;

 # Basis set for element : O 
 NewGTO O 
 S 6 
   1    5484.6717000000      0.0018310998
   2     825.2349500000      0.0139500985
   3     188.0469600000      0.0684450927
   4      52.9645000000      0.2327142753
   5      16.8975700000      0.4701929501
   6       5.7996353000      0.3585208619
 S 3 
   1      15.5396160000     -0.1107775038
   2       3.5999336000     -0.1480263051
   3       1.0137618000      1.1307670390
 P 3 
   1      15.5396160000      0.0708742995
   2       3.5999336000      0.3397527978
   3       1.0137618000      0.7271585953
 S 1 
   1       0.2700058000      1.0000000000
 P 1 
   1       0.2700058000      1.0000000000
 D 1 
   1       0.8000000000      1.0000000000
  end;

------------------------------------------------------------------------------
                           ORCA GTO INTEGRAL CALCULATION
------------------------------------------------------------------------------

                         BASIS SET STATISTICS AND STARTUP INFO

 # of primitive gaussian shells          ...  118
 # of primitive gaussian functions       ...  190
 # of contracted shells                  ...   50
 # of contracted basis functions         ...   98
 Highest angular momentum                ...    2
 Maximum contraction depth               ...    6
 Integral package used                   ... LIBINT
 Integral threshhold            Thresh   ...  2.500e-11
 Primitive cut-off              TCut     ...  2.500e-12


------------------------------ INTEGRAL EVALUATION ----------------------------


 * One electron integrals 
 Pre-screening matrix                    ... done
 Shell pair data                         ... done (   0.002 sec)

-------------------------------------------------------------------------------
                                 ORCA SCF
-------------------------------------------------------------------------------

------------
SCF SETTINGS
------------
Hamiltonian:
 Density Functional     Method          .... DFT(GTOs)
 Exchange Functional    Exchange        .... B88
   X-Alpha parameter    XAlpha          ....  0.666667
   Becke's b parameter  XBeta           ....  0.004200
 Correlation Functional Correlation     .... LYP
 LDA part of GGA corr.  LDAOpt          .... VWN-5
 Gradients option       PostSCFGGA      .... off
 Hybrid DFT is turned on
   Fraction HF Exchange ScalHFX         ....  0.200000
   Scaling of DF-GGA-X  ScalDFX         ....  0.720000
   Scaling of DF-GGA-C  ScalDFC         ....  0.810000
   Scaling of DF-LDA-C  ScalLDAC        ....  1.000000
   Perturbative correction              ....  0.000000
   Density functional embedding theory  .... OFF
   NL short-range parameter             ....  4.800000


General Settings:
 Integral files         IntName         .... /Users/lailaal-madhagi/Desktop/Testing_XAS_Analysis_code/Alanine//Results_dir_Alanine_geom_element_C_2019-11-03_21-44-41//GTE1_Alanine_geom_2019-11-03_21-44-56//opt
 Hartree-Fock type      HFTyp           .... RHF
 Total Charge           Charge          ....    0
 Multiplicity           Mult            ....    1
 Number of Electrons    NEL             ....   48
 Basis Dimension        Dim             ....   98
 Nuclear Repulsion      ENuc            ....    247.4338022266 Eh

Convergence Acceleration:
 DIIS                   CNVDIIS         .... on
   Start iteration      DIISMaxIt       ....    12
   Startup error        DIISStart       ....  0.200000
   # of expansion vecs  DIISMaxEq       ....     5
   Bias factor          DIISBfac        ....   1.050
   Max. coefficient     DIISMaxC        ....  10.000
 Newton-Raphson         CNVNR           .... off
 SOSCF                  CNVSOSCF        .... on
   Start iteration      SOSCFMaxIt      ....   150
   Startup grad/error   SOSCFStart      ....  0.003300
 Level Shifting         CNVShift        .... on
   Level shift para.    LevelShift      ....    0.2500
   Turn off err/grad.   ShiftErr        ....    0.0010
 Zerner damping         CNVZerner       .... off
 Static damping         CNVDamp         .... on
   Fraction old density DampFac         ....    0.7000
   Max. Damping (<1)    DampMax         ....    0.9800
   Min. Damping (>=0)   DampMin         ....    0.0000
   Turn off err/grad.   DampErr         ....    0.1000
 Fernandez-Rico         CNVRico         .... off

SCF Procedure:
 Maximum # iterations   MaxIter         ....   125
 SCF integral mode      SCFMode         .... Direct
   Integral package                     .... LIBINT
 Reset frequency        DirectResetFreq ....    20
 Integral Threshold     Thresh          ....  2.500e-11 Eh
 Primitive CutOff       TCut            ....  2.500e-12 Eh

Convergence Tolerance:
 Convergence Check Mode ConvCheckMode   .... Total+1el-Energy
 Convergence forced     ConvForced      .... 0
 Energy Change          TolE            ....  1.000e-08 Eh
 1-El. energy change                    ....  1.000e-05 Eh
 Orbital Gradient       TolG            ....  1.000e-05
 Orbital Rotation angle TolX            ....  1.000e-05
 DIIS Error             TolErr          ....  5.000e-07


Diagonalization of the overlap matrix:
Smallest eigenvalue                        ... 3.510e-03
Time for diagonalization                   ...    0.002 sec
Threshold for overlap eigenvalues          ... 1.000e-08
Number of eigenvalues below threshold      ... 0
Time for construction of square roots      ...    0.001 sec
Total time needed                          ...    0.003 sec

-------------------
DFT GRID GENERATION
-------------------

General Integration Accuracy     IntAcc      ...  4.340
Radial Grid Type                 RadialGrid  ... Gauss-Chebyshev
Angular Grid (max. acc.)         AngularGrid ... Lebedev-194
Angular grid pruning method      GridPruning ... 3 (G Style)
Weight generation scheme         WeightScheme... Becke
Basis function cutoff            BFCut       ...    1.0000e-11
Integration weight cutoff        WCut        ...    1.0000e-14
Grids for H and He will be reduced by one unit

# of grid points (after initial pruning)     ...  30582 (   0.0 sec)
# of grid points (after weights+screening)   ...  28657 (   0.1 sec)
nearest neighbour list constructed           ...    0.0 sec
Grid point re-assignment to atoms done       ...    0.0 sec
Grid point division into batches done        ...    0.0 sec
Reduced shell lists constructed in    0.2 sec

Total number of grid points                  ...    28657
Total number of batches                      ...      455
Average number of points per batch           ...       62
Average number of grid points per atom       ...     2204
Average number of shells per batch           ...    37.01 (74.02%)
Average number of basis functions per batch  ...    74.90 (76.43%)
Average number of large shells per batch     ...    29.67 (80.16%)
Average number of large basis fcns per batch ...    59.68 (79.68%)
Maximum spatial batch extension              ...  18.23, 16.97, 21.21 au
Average spatial batch extension              ...   3.08,  3.09,  3.14 au

Time for grid setup =    0.239 sec

------------------------------
INITIAL GUESS: MODEL POTENTIAL
------------------------------
Loading Hartree-Fock densities                     ... done
Calculating cut-offs                               ... done
Setting up the integral package                    ... done
Initializing the effective Hamiltonian             ... done
Starting the Coulomb interaction                   ... done (   0.0 sec)
Reading the grid                                   ... done
Mapping shells                                     ... done
Starting the XC term evaluation                    ... done (   0.2 sec)
  promolecular density results
     # of electrons  =     47.995982593
     EX              =    -40.443498493
     EC              =     -1.632180792
     EX+EC           =    -42.075679285
Transforming the Hamiltonian                       ... done (   0.0 sec)
Diagonalizing the Hamiltonian                      ... done (   0.0 sec)
Back transforming the eigenvectors                 ... done (   0.0 sec)
Now organizing SCF variables                       ... done
                      ------------------
                      INITIAL GUESS DONE (   0.5 sec)
                      ------------------
--------------
SCF ITERATIONS
--------------
               ***  Starting incremental Fock matrix formation  ***

                         ----------------------------
                         !        ITERATION     0   !
                         ----------------------------
   Total Energy        :    -323.258622198722 Eh
   Energy Change       :    -323.258622198722 Eh
   MAX-DP              :       0.102119917792
   RMS-DP              :       0.004056727275
   Actual Damping      :       0.7000
   Actual Level Shift  :       0.2500 Eh
   Int. Num. El.       :    47.99959835 (UP=   23.99979918 DN=   23.99979918)
   Exchange            :   -33.32131165
   Correlation         :    -1.95273612


                         ----------------------------
                         !        ITERATION     1   !
                         ----------------------------
   Total Energy        :    -323.393940505542 Eh
   Energy Change       :      -0.135318306820 Eh
   MAX-DP              :       0.058734097909
   RMS-DP              :       0.002590226635
   Actual Damping      :       0.7000
   Actual Level Shift  :       0.2500 Eh
   Int. Num. El.       :    47.99953894 (UP=   23.99976947 DN=   23.99976947)
   Exchange            :   -32.97047446
   Correlation         :    -1.94090031

                               ***Turning on DIIS***

                         ----------------------------
                         !        ITERATION     2   !
                         ----------------------------
   Total Energy        :    -323.440818863726 Eh
   Energy Change       :      -0.046878358184 Eh
   MAX-DP              :       0.067615709345
   RMS-DP              :       0.003713250563
   Actual Damping      :       0.0000
   Actual Level Shift  :       0.2500 Eh
   Int. Num. El.       :    47.99950305 (UP=   23.99975152 DN=   23.99975152)
   Exchange            :   -32.76561205
   Correlation         :    -1.93338054
   DIIS-Error          :       0.036925843332


                         ----------------------------
                         !        ITERATION     3   !
                         ----------------------------
   Total Energy        :    -323.518552581672 Eh
   Energy Change       :      -0.077733717946 Eh
   MAX-DP              :       0.037032925536
   RMS-DP              :       0.001725173542
   Actual Damping      :       0.0000
   Actual Level Shift  :       0.2500 Eh
   Int. Num. El.       :    47.99945431 (UP=   23.99972715 DN=   23.99972715)
   Exchange            :   -32.51559211
   Correlation         :    -1.92313789
   DIIS-Error          :       0.065974658177
   DIIS coefficients:
      0.63646   0.36354


                         ----------------------------
                         !        ITERATION     4   !
                         ----------------------------
   Total Energy        :    -323.535025361232 Eh
   Energy Change       :      -0.016472779559 Eh
   MAX-DP              :       0.010405264905
   RMS-DP              :       0.000567889301
   Actual Damping      :       0.0000
   Actual Level Shift  :       0.2500 Eh
   Int. Num. El.       :    47.99947557 (UP=   23.99973779 DN=   23.99973779)
   Exchange            :   -32.64242742
   Correlation         :    -1.92799275
   DIIS-Error          :       0.013575922794
   DIIS coefficients:
      0.30099   0.07268   0.62632


                         ----------------------------
                         !        ITERATION     5   !
                         ----------------------------
   Total Energy        :    -323.536162057112 Eh
   Energy Change       :      -0.001136695880 Eh
   MAX-DP              :       0.003740481988
   RMS-DP              :       0.000170248130
   Actual Damping      :       0.0000
   Actual Level Shift  :       0.2500 Eh
   Int. Num. El.       :    47.99948155 (UP=   23.99974078 DN=   23.99974078)
   Exchange            :   -32.66341230
   Correlation         :    -1.92918334
   DIIS-Error          :       0.005384848241
   DIIS coefficients:
      0.06419  -0.00762   0.15151   0.79192

                      *** Initiating the SOSCF procedure ***
                           *** Shutting down DIIS ***
                      *** Re-Reading the Fockian *** 
                      *** Removing any level shift *** 

                         ----------------------------
                         !        ITERATION     6   !
                         ----------------------------
   Total Energy        :    -323.536214839255 Eh
   Energy Change       :      -0.000052782143 Eh
   MAX-DP              :       0.000806168235
   RMS-DP              :       0.000053318315
   Orbital gradient    :       0.000308536115
   Orbital Rotation    :       0.000308536115
   Actual Damping      :       0.0000
   Int. Num. El.       :    47.99948161 (UP=   23.99974080 DN=   23.99974080)
   Exchange            :   -32.66913467
   Correlation         :    -1.92938535

               *** Restarting incremental Fock matrix formation ***

                         ----------------------------
                         !        ITERATION     7   !
                         ----------------------------
   Total Energy        :    -323.536220918019 Eh
   Energy Change       :      -0.000006078764 Eh
   MAX-DP              :       0.000731827656
   RMS-DP              :       0.000034092437
   Orbital gradient    :       0.000142306091
   Orbital Rotation    :       0.000430518366
   Actual Damping      :       0.0000
   Int. Num. El.       :    47.99948058 (UP=   23.99974029 DN=   23.99974029)
   Exchange            :   -32.66966321
   Correlation         :    -1.92940180


                         ----------------------------
                         !        ITERATION     8   !
                         ----------------------------
   Total Energy        :    -323.536220980130 Eh
   Energy Change       :      -0.000000062111 Eh
   MAX-DP              :       0.000369097497
   RMS-DP              :       0.000013048413
   Orbital gradient    :       0.000136454790
   Orbital Rotation    :       0.000195568527
   Actual Damping      :       0.0000
   Int. Num. El.       :    47.99948028 (UP=   23.99974014 DN=   23.99974014)
   Exchange            :   -32.66938670
   Correlation         :    -1.92940761


                         ----------------------------
                         !        ITERATION     9   !
                         ----------------------------
   Total Energy        :    -323.536221628182 Eh
   Energy Change       :      -0.000000648052 Eh
   MAX-DP              :       0.000119372186
   RMS-DP              :       0.000006134599
   Orbital gradient    :       0.000043222769
   Orbital Rotation    :       0.000113298719
   Actual Damping      :       0.0000
   Int. Num. El.       :    47.99948007 (UP=   23.99974003 DN=   23.99974003)
   Exchange            :   -32.66964074
   Correlation         :    -1.92940938


                         ----------------------------
                         !        ITERATION    10   !
                         ----------------------------
   Total Energy        :    -323.536221608430 Eh
   Energy Change       :       0.000000019752 Eh
   MAX-DP              :       0.000093601547
   RMS-DP              :       0.000002964099
   Orbital gradient    :       0.000068849183
   Orbital Rotation    :       0.000073529336
   Actual Damping      :       0.0000
   Int. Num. El.       :    47.99948009 (UP=   23.99974004 DN=   23.99974004)
   Exchange            :   -32.66957348
   Correlation         :    -1.92940382


                         ----------------------------
                         !        ITERATION    11   !
                         ----------------------------
   Total Energy        :    -323.536221647245 Eh
   Energy Change       :      -0.000000038815 Eh
   MAX-DP              :       0.000035076528
   RMS-DP              :       0.000001714554
   Orbital gradient    :       0.000009239659
   Orbital Rotation    :       0.000019300460
   Actual Damping      :       0.0000
   Int. Num. El.       :    47.99948011 (UP=   23.99974006 DN=   23.99974006)
   Exchange            :   -32.66955941
   Correlation         :    -1.92940550


                         ----------------------------
                         !        ITERATION    12   !
                         ----------------------------
   Total Energy        :    -323.536221646636 Eh
   Energy Change       :       0.000000000610 Eh
   MAX-DP              :       0.000016301651
   RMS-DP              :       0.000000798633
   Orbital gradient    :       0.000008585165
   Orbital Rotation    :       0.000008774447
   Actual Damping      :       0.0000
   Int. Num. El.       :    47.99948011 (UP=   23.99974006 DN=   23.99974006)
   Exchange            :   -32.66963429
   Correlation         :    -1.92940842

                  ***Gradient check signals convergence***
              ***Rediagonalizing the Fockian in SOSCF/NRSCF***

               *****************************************************
               *                     SUCCESS                       *
               *           SCF CONVERGED AFTER  13 CYCLES          *
               *****************************************************

Setting up the final grid:

General Integration Accuracy     IntAcc      ...  5.010
Radial Grid Type                 RadialGrid  ... Gauss-Chebyshev
Angular Grid (max. acc.)         AngularGrid ... Lebedev-434
Angular grid pruning method      GridPruning ... 3 (G Style)
Weight generation scheme         WeightScheme... Becke
Basis function cutoff            BFCut       ...    1.0000e-11
Integration weight cutoff        WCut        ...    1.0000e-14
Grids for H and He will be reduced by one unit

# of grid points (after initial pruning)     ... 111212 (   0.0 sec)
# of grid points (after weights+screening)   ... 103093 (   0.1 sec)
nearest neighbour list constructed           ...    0.0 sec
Grid point re-assignment to atoms done       ...    0.0 sec
Grid point division into batches done        ...    0.5 sec
Reduced shell lists constructed in    0.9 sec

Total number of grid points                  ...   103093
Total number of batches                      ...     1617
Average number of points per batch           ...       63
Average number of grid points per atom       ...     7930
Average number of shells per batch           ...    34.44 (68.87%)
Average number of basis functions per batch  ...    69.36 (70.78%)
Average number of large shells per batch     ...    26.99 (78.38%)
Average number of large basis fcns per batch ...    54.01 (77.87%)
Maximum spatial batch extension              ...  15.14, 17.15, 19.88 au
Average spatial batch extension              ...   2.05,  2.12,  2.13 au

Final grid set up in    1.1 sec
Final integration                            ... done (   0.6 sec)
Change in XC energy                          ...    -0.000144839
Integrated number of electrons               ...    47.999991178
Previous integrated no of electrons          ...    47.999480103

----------------
TOTAL SCF ENERGY
----------------

Total Energy       :         -323.53636649 Eh           -8803.87211 eV

Components:
Nuclear Repulsion  :          247.43380223 Eh            6733.01606 eV
Electronic Energy  :         -570.97016871 Eh          -15536.88817 eV
One Electron Energy:         -931.33514401 Eh          -25342.91768 eV
Two Electron Energy:          360.36497529 Eh            9806.02951 eV

Virial components:
Potential Energy   :         -645.02672870 Eh          -17552.06962 eV
Kinetic Energy     :          321.49036221 Eh            8748.19751 eV
Virial Ratio       :            2.00636412


DFT components:
N(Alpha)           :       23.999995589213 electrons
N(Beta)            :       23.999995589213 electrons
N(Total)           :       47.999991178426 electrons
E(X)               :      -32.669728172960 Eh       
E(C)               :       -1.929413825554 Eh       
E(XC)              :      -34.599141998514 Eh       
DFET-embed. en.    :        0.000000000000 Eh       

---------------
SCF CONVERGENCE
---------------

  Last Energy change         ...   -2.5926e-09  Tolerance :   1.0000e-08
  Last MAX-Density change    ...    3.2053e-06  Tolerance :   1.0000e-07
  Last RMS-Density change    ...    1.9679e-07  Tolerance :   5.0000e-09
  Last Orbital Gradient      ...    7.0227e-07  Tolerance :   1.0000e-05
  Last Orbital Rotation      ...    1.4320e-06  Tolerance :   1.0000e-05

             **** THE GBW FILE WAS UPDATED (/Users/lailaal-madhagi/Desktop/Testing_XAS_Analysis_code/Alanine//Results_dir_Alanine_geom_element_C_2019-11-03_21-44-41//GTE1_Alanine_geom_2019-11-03_21-44-56//opt.gbw) ****
             **** DENSITY FILE WAS UPDATED (/Users/lailaal-madhagi/Desktop/Testing_XAS_Analysis_code/Alanine//Results_dir_Alanine_geom_element_C_2019-11-03_21-44-41//GTE1_Alanine_geom_2019-11-03_21-44-56//opt.scfp.tmp) ****
             **** ENERGY FILE WAS UPDATED (/Users/lailaal-madhagi/Desktop/Testing_XAS_Analysis_code/Alanine//Results_dir_Alanine_geom_element_C_2019-11-03_21-44-41//GTE1_Alanine_geom_2019-11-03_21-44-56//opt.en.tmp) ****
----------------
ORBITAL ENERGIES
----------------

  NO   OCC          E(Eh)            E(eV) 
   0   2.0000     -19.175675      -521.7966 
   1   2.0000     -19.121893      -520.3332 
   2   2.0000     -14.314591      -389.5198 
   3   2.0000     -10.310736      -280.5694 
   4   2.0000     -10.226918      -278.2886 
   5   2.0000     -10.172358      -276.8039 
   6   2.0000      -1.088806       -29.6279 
   7   2.0000      -0.997067       -27.1316 
   8   2.0000      -0.888165       -24.1682 
   9   2.0000      -0.735289       -20.0082 
  10   2.0000      -0.673990       -18.3402 
  11   2.0000      -0.593172       -16.1410 
  12   2.0000      -0.523152       -14.2357 
  13   2.0000      -0.472756       -12.8643 
  14   2.0000      -0.456975       -12.4349 
  15   2.0000      -0.432307       -11.7637 
  16   2.0000      -0.409403       -11.1404 
  17   2.0000      -0.402976       -10.9655 
  18   2.0000      -0.388357       -10.5677 
  19   2.0000      -0.364793        -9.9265 
  20   2.0000      -0.349338        -9.5060 
  21   2.0000      -0.304666        -8.2904 
  22   2.0000      -0.259949        -7.0736 
  23   2.0000      -0.233123        -6.3436 
  24   0.0000       0.004993         0.1359 
  25   0.0000       0.070724         1.9245 
  26   0.0000       0.086762         2.3609 
  27   0.0000       0.116649         3.1742 
  28   0.0000       0.139571         3.7979 
  29   0.0000       0.156320         4.2537 
  30   0.0000       0.174348         4.7442 
  31   0.0000       0.183228         4.9859 
  32   0.0000       0.228010         6.2045 
  33   0.0000       0.247231         6.7275 
  34   0.0000       0.256338         6.9753 
  35   0.0000       0.339947         9.2504 
  36   0.0000       0.364822         9.9273 
  37   0.0000       0.537532        14.6270 
  38   0.0000       0.551966        15.0198 
  39   0.0000       0.555786        15.1237 
  40   0.0000       0.565927        15.3997 
  41   0.0000       0.606766        16.5109 
  42   0.0000       0.633172        17.2295 
  43   0.0000       0.670254        18.2386 
  44   0.0000       0.687301        18.7024 
  45   0.0000       0.712707        19.3937 
  46   0.0000       0.737576        20.0705 
  47   0.0000       0.786900        21.4126 
  48   0.0000       0.808584        22.0027 
  49   0.0000       0.839910        22.8551 
  50   0.0000       0.860534        23.4163 
  51   0.0000       0.884290        24.0627 
  52   0.0000       0.894583        24.3428 
  53   0.0000       0.907428        24.6924 
  54   0.0000       0.918368        24.9901 
  55   0.0000       0.938611        25.5409 
  56   0.0000       0.957103        26.0441 
  57   0.0000       0.972782        26.4707 
  58   0.0000       0.977757        26.6061 
  59   0.0000       1.049630        28.5619 
  60   0.0000       1.071638        29.1607 
  61   0.0000       1.142497        31.0889 
  62   0.0000       1.158990        31.5377 
  63   0.0000       1.289016        35.0759 
  64   0.0000       1.346122        36.6298 
  65   0.0000       1.408509        38.3275 
  66   0.0000       1.460637        39.7459 
  67   0.0000       1.531819        41.6829 
  68   0.0000       1.573687        42.8222 
  69   0.0000       1.680014        45.7155 
  70   0.0000       1.691201        46.0199 
  71   0.0000       1.759674        47.8832 
  72   0.0000       1.772143        48.2224 
  73   0.0000       1.795274        48.8519 
  74   0.0000       1.825820        49.6831 
  75   0.0000       1.858000        50.5588 
  76   0.0000       1.872092        50.9422 
  77   0.0000       1.915718        52.1293 
  78   0.0000       1.971283        53.6413 
  79   0.0000       2.004934        54.5570 
  80   0.0000       2.044005        55.6202 
  81   0.0000       2.063869        56.1607 
  82   0.0000       2.074588        56.4524 
  83   0.0000       2.133551        58.0569 
  84   0.0000       2.187789        59.5328 
  85   0.0000       2.228695        60.6459 
  86   0.0000       2.302860        62.6640 
  87   0.0000       2.350509        63.9606 
  88   0.0000       2.424236        65.9668 
  89   0.0000       2.445336        66.5410 
  90   0.0000       2.536751        69.0285 
  91   0.0000       2.584246        70.3209 
  92   0.0000       2.651828        72.1599 
  93   0.0000       2.660219        72.3882 
  94   0.0000       2.817152        76.6586 
  95   0.0000       2.895285        78.7847 
  96   0.0000       3.005879        81.7941 
  97   0.0000       3.092484        84.1508 
------------------
MOLECULAR ORBITALS
------------------
                      0         1         2         3         4         5   
                 -19.17567 -19.12189 -14.31459 -10.31074 -10.22692 -10.17236
                   2.00000   2.00000   2.00000   2.00000   2.00000   2.00000
                  --------  --------  --------  --------  --------  --------
  0C   1s        -0.000037  0.000045 -0.000067 -0.000169 -0.001205 -0.995307
  0C   2s        -0.000465  0.000523 -0.000944 -0.000843  0.001219 -0.037226
  0C   1pz       -0.000026  0.000028 -0.000151 -0.000053 -0.000030 -0.000001
  0C   1px       -0.000381 -0.000021 -0.000261 -0.000306  0.000050 -0.000300
  0C   1py        0.000019  0.000124  0.000412 -0.000064 -0.000080  0.000190
  0C   3s        -0.001257 -0.004093  0.000671  0.002314 -0.011279  0.031237
  0C   2pz        0.000194  0.000255  0.000636  0.000432  0.000117 -0.000093
  0C   2px        0.000646 -0.001269 -0.000156  0.001700 -0.004565  0.001393
  0C   2py        0.001101  0.000885 -0.000634 -0.000006  0.002603 -0.000494
  0C   1dz2      -0.000030 -0.000010  0.000011 -0.000081 -0.000426  0.000008
  0C   1dxz      -0.000041  0.000023 -0.000072  0.000055 -0.000281 -0.000036
  0C   1dyz       0.000009  0.000017 -0.000079  0.000050  0.000193  0.000003
  0C   1dx2y2     0.000041  0.000025 -0.000016  0.000029  0.000246  0.000011
  0C   1dxy       0.000057  0.000132  0.000076  0.000009 -0.000520 -0.000002
  1C   1s        -0.000079 -0.000013 -0.000020  0.000957 -0.995580  0.001242
  1C   2s        -0.000950  0.000143 -0.001079 -0.000880 -0.039762  0.000788
  1C   1pz       -0.000067 -0.000035 -0.000044 -0.000190 -0.000534  0.000075
  1C   1px       -0.000016  0.000268  0.000002 -0.000592 -0.000158 -0.000394
  1C   1py       -0.000098  0.000075 -0.000094 -0.000289  0.000010  0.000105
  1C   3s         0.005219 -0.001193  0.007762  0.006497  0.044190 -0.005897
  1C   2pz        0.002285  0.001461  0.002772 -0.000086  0.003624  0.000279
  1C   2px       -0.000816 -0.004762 -0.000767  0.004662  0.000353  0.002649
  1C   2py        0.002417  0.002989 -0.003224  0.002226  0.003633 -0.001640
  1C   1dz2       0.000008  0.000006  0.000091  0.000488 -0.000103 -0.000500
  1C   1dxz       0.000048  0.000038 -0.000031 -0.000362  0.000002 -0.000254
  1C   1dyz       0.000083  0.000199  0.000446 -0.000124  0.000130  0.000077
  1C   1dx2y2    -0.000436 -0.000339  0.000361 -0.000290  0.000041  0.000372
  1C   1dxy       0.000031  0.000122  0.000092 -0.000639 -0.000049 -0.000700
  2H   1s         0.000110  0.000164 -0.000101 -0.000022  0.000462  0.000532
  2H   2s         0.000859  0.000089 -0.000682  0.000751  0.000180 -0.005326
  3H   1s        -0.000134  0.000148 -0.000103 -0.000196  0.000464  0.000426
  3H   2s        -0.000071  0.000272  0.000915 -0.000112 -0.000069 -0.005419
  4H   1s        -0.000084  0.000171 -0.000126 -0.000235  0.000619  0.000432
  4H   2s        -0.000034  0.000171 -0.000751 -0.000325  0.000093 -0.005607
  5C   1s         0.000057 -0.000264 -0.000039  0.995123  0.000971 -0.000059
  5C   2s         0.000199 -0.000636 -0.000586  0.036574  0.001619  0.000644
  5C   1pz       -0.000131 -0.000021  0.000040  0.000430 -0.000128  0.000040
  5C   1px        0.000470  0.000088  0.000258  0.001195 -0.000257 -0.000143
  5C   1py       -0.000194 -0.000028  0.000242  0.000821 -0.000275  0.000087
  5C   3s         0.005635 -0.008419  0.000642 -0.010717 -0.011584  0.000876
  5C   2pz       -0.001427 -0.004941 -0.000987  0.002854  0.000560 -0.000381
  5C   2px        0.011571  0.001279  0.000852  0.008369  0.008373  0.001443
  5C   2py       -0.004049 -0.012305 -0.001377  0.006948  0.002522 -0.000441
  5C   1dz2      -0.000091 -0.000083 -0.000024 -0.001424 -0.000322 -0.000001
  5C   1dxz       0.000169 -0.000100  0.000041 -0.000306  0.000434 -0.000003
  5C   1dyz       0.000069  0.000425 -0.000126  0.001295  0.000161 -0.000004
  5C   1dx2y2     0.000075 -0.000743  0.000047 -0.000320  0.000339  0.000036
  5C   1dxy       0.000289 -0.000268 -0.000160 -0.000802  0.000793 -0.000057
  6N   1s         0.000042  0.000009  0.995284 -0.000034  0.000001  0.000048
  6N   2s         0.000396  0.000104  0.031970 -0.000574  0.000691  0.000815
  6N   1pz        0.000123  0.000102  0.000100  0.000024 -0.000273 -0.000019
  6N   1px        0.000067  0.000087 -0.001419 -0.000237  0.000066 -0.000109
  6N   1py        0.000060  0.000017  0.001139 -0.000284  0.000369  0.000195
  6N   3s        -0.001409  0.000350 -0.022495  0.000987 -0.006651 -0.001761
  6N   2pz       -0.000656 -0.001260  0.000697  0.000116  0.001038 -0.000192
  6N   2px       -0.000336 -0.000037  0.002502  0.000890 -0.000098  0.000470
  6N   2py       -0.001216 -0.000207 -0.003829  0.001519 -0.002849 -0.000641
  6N   1dz2       0.000065  0.000130 -0.000012 -0.000056 -0.000088  0.000095
  6N   1dxz       0.000037 -0.000062 -0.000084  0.000061  0.000025  0.000067
  6N   1dyz       0.000016 -0.000055  0.000123 -0.000026 -0.001055 -0.000030
  6N   1dx2y2     0.000099 -0.000020  0.000208 -0.000039 -0.000620 -0.000057
  6N   1dxy      -0.000006  0.000056 -0.000051  0.000143 -0.000014  0.000129
  7H   1s         0.000089  0.000218 -0.000379 -0.000532  0.000116  0.000466
  7H   2s         0.000297  0.000894 -0.000122  0.000464 -0.005435 -0.000115
  8O   1s         0.995153 -0.000580  0.000019  0.000143  0.000024  0.000023
  8O   2s         0.030275  0.000469  0.000289  0.001181  0.000638  0.000385
  8O   1pz        0.000548 -0.000035 -0.000078  0.000000 -0.000026 -0.000017
  8O   1px       -0.000603 -0.000298 -0.000039  0.000510 -0.000264 -0.000100
  8O   1py        0.001432 -0.000063  0.000011 -0.000049  0.000008 -0.000022
  8O   3s        -0.022957 -0.001951 -0.001411 -0.005111 -0.002086 -0.001591
  8O   2pz       -0.001383  0.000716  0.000226 -0.001250 -0.000128  0.000013
  8O   2px        0.004815  0.001891  0.000809  0.003122  0.000917  0.000979
  8O   2py       -0.003738  0.001658 -0.000001 -0.003304 -0.000682 -0.000136
  8O   1dz2       0.000373  0.000086  0.000036  0.001177  0.000151  0.000057
  8O   1dxz       0.000120 -0.000122 -0.000018  0.000538  0.000004  0.000015
  8O   1dyz      -0.000121  0.000072  0.000013 -0.000370 -0.000150  0.000001
  8O   1dx2y2    -0.000384 -0.000316 -0.000106 -0.001145  0.000131 -0.000066
  8O   1dxy       0.000344 -0.000285 -0.000023  0.001545  0.000032  0.000058
  9O   1s        -0.000610 -0.995170 -0.000013 -0.000003 -0.000001  0.000013
  9O   2s        -0.000565 -0.030383 -0.000135  0.000953  0.000166  0.000356
  9O   1pz        0.000080  0.000829  0.000027  0.000342 -0.000060 -0.000043
  9O   1px        0.000097 -0.000204 -0.000013  0.000058  0.000078 -0.000149
  9O   1py        0.000146  0.002066 -0.000066  0.000928 -0.000152 -0.000080
  9O   3s         0.002267  0.024458  0.001097 -0.007684  0.000934 -0.000541
  9O   2pz       -0.000424 -0.002684 -0.000130  0.001842 -0.000030  0.000238
  9O   2px       -0.002340  0.000657 -0.000051 -0.002256 -0.001448  0.000202
  9O   2py       -0.000794 -0.006695 -0.000177  0.004410 -0.000267  0.000440
  9O   1dz2      -0.000095 -0.000063 -0.000005  0.000657  0.000191  0.000136
  9O   1dxz       0.000207 -0.000030  0.000035  0.000202  0.000121 -0.000016
  9O   1dyz       0.000145  0.000176 -0.000003 -0.001165 -0.000111 -0.000125
  9O   1dx2y2    -0.000070 -0.000255 -0.000008  0.001259 -0.000133 -0.000002
  9O   1dxy       0.000480 -0.000080 -0.000036  0.000547  0.000254 -0.000041
 10H   1s         0.000468 -0.000294 -0.000012  0.000369  0.000103  0.000001
 10H   2s         0.001511 -0.000338 -0.000184 -0.000411 -0.000791 -0.000378
 11H   1s        -0.000097 -0.000112  0.000155  0.000180  0.000242  0.000211
 11H   2s        -0.000243 -0.000255  0.003332  0.000891 -0.000414  0.000199
 12H   1s         0.000334  0.000047  0.000221 -0.000360  0.000392  0.000313
 12H   2s         0.000234  0.000791  0.003506  0.000249 -0.000581  0.000251
                      6         7         8         9        10        11   
                  -1.08881  -0.99707  -0.88816  -0.73529  -0.67399  -0.59317
                   2.00000   2.00000   2.00000   2.00000   2.00000   2.00000
                  --------  --------  --------  --------  --------  --------
  0C   1s         0.003543  0.006571  0.041900  0.126086 -0.120525 -0.078646
  0C   2s        -0.009444 -0.012061 -0.081707 -0.241254  0.230161  0.154789
  0C   1pz       -0.000252 -0.000464  0.000092  0.015565  0.003375  0.027993
  0C   1px       -0.006118 -0.006403 -0.030912 -0.039531 -0.031515 -0.096208
  0C   1py        0.000481  0.000092  0.027633  0.009702 -0.000430  0.038177
  0C   3s         0.000641  0.006429 -0.043862 -0.208578  0.236650  0.176649
  0C   2pz        0.001221 -0.001771  0.000877  0.004836  0.000607  0.007635
  0C   2px        0.005507 -0.002422 -0.000114  0.003921 -0.003916 -0.034788
  0C   2py        0.002516 -0.007922  0.001746  0.001049 -0.004170  0.001036
  0C   1dz2       0.000375  0.000514  0.002133  0.000509  0.002338  0.004854
  0C   1dxz      -0.000010 -0.000104  0.000503  0.001126  0.001391  0.003004
  0C   1dyz      -0.000136 -0.000057 -0.000414 -0.000269 -0.000418 -0.001521
  0C   1dx2y2    -0.000340 -0.000848 -0.001356 -0.001923 -0.002947 -0.004510
  0C   1dxy       0.000198 -0.000386  0.003679  0.000716  0.003646  0.006987
  1C   1s         0.018711  0.012916  0.113774  0.104312  0.036459  0.096693
  1C   2s        -0.035895 -0.023897 -0.218476 -0.204301 -0.077621 -0.197090
  1C   1pz       -0.006997 -0.007703 -0.053564  0.038926  0.008650  0.055734
  1C   1px       -0.020653 -0.003798  0.003794  0.010900 -0.170206 -0.051704
  1C   1py       -0.011185 -0.015395  0.071474 -0.118688 -0.000064  0.019105
  1C   3s        -0.010010 -0.014507 -0.135433 -0.191472 -0.067599 -0.211648
  1C   2pz        0.002281 -0.008430 -0.000548  0.007757  0.003781  0.022212
  1C   2px       -0.000933  0.017930  0.006622  0.008608 -0.032635 -0.007471
  1C   2py        0.001670 -0.012942 -0.000581 -0.032430 -0.002826  0.000569
  1C   1dz2       0.002018  0.000604 -0.000622  0.001242 -0.001857 -0.007456
  1C   1dxz      -0.001515 -0.001076  0.000358  0.000525 -0.004629 -0.001151
  1C   1dyz      -0.000635 -0.001459  0.010155 -0.010019 -0.000825 -0.002398
  1C   1dx2y2    -0.002328  0.002389  0.007241 -0.010092 -0.001811  0.005225
  1C   1dxy      -0.003403 -0.002312 -0.000042  0.003151 -0.009925 -0.003051
  2H   1s        -0.000624 -0.002364 -0.020582 -0.071467  0.092487  0.082304
  2H   2s         0.003385 -0.004680 -0.004798 -0.010201  0.031901  0.032507
  3H   1s        -0.002400 -0.003069 -0.015510 -0.078470  0.080360  0.068150
  3H   2s        -0.000986 -0.001073  0.001646 -0.016126  0.025269  0.028773
  4H   1s        -0.002390 -0.003315 -0.019926 -0.071051  0.084220  0.081437
  4H   2s        -0.001313 -0.001826 -0.005180 -0.012823  0.027054  0.034769
  5C   1s         0.115561  0.054911  0.015264  0.046883  0.096724 -0.035968
  5C   2s        -0.223367 -0.105918 -0.032068 -0.100917 -0.209257  0.080195
  5C   1pz       -0.019632 -0.074245  0.018082  0.052843  0.062538  0.003756
  5C   1px       -0.082713  0.099850  0.047704  0.073759 -0.010956  0.233830
  5C   1py       -0.043949 -0.190265  0.065504  0.093863  0.152114 -0.037960
  5C   3s        -0.049045 -0.042769 -0.024235 -0.056890 -0.145861  0.054954
  5C   2pz        0.002529  0.010463 -0.000658  0.013597  0.017762  0.004801
  5C   2px        0.033220 -0.010382  0.004728  0.011059  0.009487  0.032453
  5C   2py        0.004555  0.027453  0.008156  0.016477  0.041373 -0.004372
  5C   1dz2       0.012592  0.001011  0.001678  0.001913  0.004379 -0.004763
  5C   1dxz       0.003753 -0.001675 -0.001486 -0.002384  0.001245 -0.007694
  5C   1dyz      -0.009801 -0.014062  0.000987  0.000221 -0.002033  0.000089
  5C   1dx2y2    -0.000695  0.027274 -0.002970 -0.007514 -0.003664  0.004793
  5C   1dxy       0.010556 -0.005141 -0.005907 -0.002483  0.003816 -0.017709
  6N   1s         0.006881  0.003700  0.168751 -0.101819 -0.012214 -0.023031
  6N   2s        -0.013176 -0.009274 -0.348554  0.216344  0.025881  0.048479
  6N   1pz        0.001914 -0.000142  0.007900  0.053486  0.022591  0.097832
  6N   1px       -0.000616  0.001331  0.062439 -0.058740 -0.053863 -0.044745
  6N   1py       -0.006449 -0.003996 -0.070435 -0.045931 -0.033550 -0.078088
  6N   3s        -0.012286 -0.004787 -0.357572  0.254493  0.032982  0.072911
  6N   2pz       -0.000623  0.004436 -0.001761  0.024647  0.008055  0.042990
  6N   2px       -0.000374  0.003727  0.034989 -0.032148 -0.024613 -0.023393
  6N   2py       -0.003270  0.002895 -0.031653 -0.013729 -0.010935 -0.030148
  6N   1dz2       0.000091 -0.000413 -0.003859  0.005652  0.000341  0.002213
  6N   1dxz      -0.000026 -0.000112 -0.002968  0.000296  0.000973 -0.002546
  6N   1dyz       0.000554  0.000177  0.000703  0.007071  0.002567  0.007529
  6N   1dx2y2     0.000666  0.000446  0.004627  0.004746  0.003748  0.006337
  6N   1dxy      -0.000371  0.000113 -0.006673  0.007781 -0.002077  0.003496
  7H   1s        -0.005743 -0.003911 -0.048938 -0.071541 -0.033009 -0.103727
  7H   2s         0.000813 -0.001010 -0.004476 -0.016601 -0.010520 -0.041665
  8O   1s         0.165347 -0.129734 -0.011904 -0.010345 -0.026682  0.008106
  8O   2s        -0.360555  0.286971  0.026849  0.023083  0.059400 -0.015279
  8O   1pz       -0.032386  0.017094  0.004461  0.014735  0.023996 -0.001194
  8O   1px        0.035268  0.012775  0.020337  0.074097  0.286411 -0.357609
  8O   1py       -0.082795  0.042326  0.015595  0.021538  0.041650  0.002667
  8O   3s        -0.367831  0.304281  0.030955  0.031494  0.087771 -0.029168
  8O   2pz       -0.017402  0.006666  0.002713  0.006687  0.011916 -0.000369
  8O   2px        0.020617  0.002421  0.007383  0.031415  0.128171 -0.173746
  8O   2py       -0.046070  0.017532  0.007799  0.009213  0.020493 -0.000206
  8O   1dz2       0.009931 -0.005327 -0.000410 -0.000466 -0.001922  0.002991
  8O   1dxz      -0.001033  0.003574  0.000528  0.001118  0.006007 -0.008117
  8O   1dyz      -0.004708  0.001910  0.000865  0.001487  0.002989 -0.001197
  8O   1dx2y2    -0.007970  0.006202 -0.000841 -0.002051 -0.001910 -0.003320
  8O   1dxy      -0.000727  0.007784  0.000578  0.003847  0.015214 -0.019099
  9O   1s         0.100452  0.166853 -0.026432 -0.036497 -0.038786  0.013393
  9O   2s        -0.219431 -0.364414  0.058594  0.084309  0.089143 -0.030009
  9O   1pz        0.035090  0.047862 -0.006097  0.005407  0.010922  0.001692
  9O   1px       -0.018017 -0.000824  0.011367  0.028653 -0.000335  0.060046
  9O   1py        0.088530  0.119797 -0.011524  0.001612  0.025653 -0.014189
  9O   3s        -0.189564 -0.346112  0.058197  0.084583  0.095577 -0.041183
  9O   2pz        0.010965  0.016061 -0.001639  0.003539  0.007550  0.000030
  9O   2px       -0.014066  0.002069  0.003833  0.012839 -0.002875  0.029346
  9O   2py        0.028639  0.039762 -0.003345  0.006597  0.018961 -0.007442
  9O   1dz2       0.001497  0.001304 -0.000006  0.000409  0.000637 -0.000792
  9O   1dxz       0.001383 -0.000067 -0.000435 -0.001071  0.000385 -0.002790
  9O   1dyz      -0.004176 -0.004547  0.000429 -0.001258 -0.001827 -0.000278
  9O   1dx2y2     0.006402  0.007176 -0.000362  0.000706  0.002646 -0.000056
  9O   1dxy       0.003324 -0.000333 -0.001338 -0.002516  0.000896 -0.007043
 10H   1s        -0.090260  0.084159  0.016936  0.041030  0.147101 -0.165530
 10H   2s         0.002313 -0.000877  0.002408  0.012205  0.049001 -0.071155
 11H   1s        -0.002286 -0.001230 -0.100783  0.092205  0.034099  0.045575
 11H   2s        -0.000198  0.002720 -0.003713  0.016618  0.012939  0.020633
 12H   1s        -0.002803 -0.003265 -0.101524  0.088785  0.018672  0.062102
 12H   2s         0.000348 -0.002456 -0.002163  0.014886  0.007452  0.027953
                     12        13        14        15        16        17   
                  -0.52315  -0.47276  -0.45698  -0.43231  -0.40940  -0.40298
                   2.00000   2.00000   2.00000   2.00000   2.00000   2.00000
                  --------  --------  --------  --------  --------  --------
  0C   1s        -0.005892 -0.001979 -0.002982 -0.004165 -0.000555 -0.005969
  0C   2s         0.011528  0.004838  0.000716  0.006428  0.002170  0.014214
  0C   1pz        0.092445  0.077535 -0.024765  0.122744 -0.241820 -0.017766
  0C   1px        0.032295 -0.034391 -0.018562 -0.034102 -0.044807 -0.297088
  0C   1py        0.066509 -0.093316  0.099198  0.064240  0.094253  0.174347
  0C   3s         0.015897  0.004575  0.032409  0.019406 -0.007273 -0.001508
  0C   2pz        0.031423  0.028498 -0.009954  0.067408 -0.125933 -0.012789
  0C   2px        0.008050 -0.014711  0.021536  0.001124 -0.024450 -0.149569
  0C   2py        0.021042 -0.037623  0.038723  0.042133  0.052077  0.090688
  0C   1dz2       0.003892  0.000628  0.001629  0.005025 -0.006402  0.004520
  0C   1dxz       0.002486  0.003096 -0.001274  0.002017  0.000651  0.004280
  0C   1dyz      -0.002749  0.004231 -0.002977  0.000411 -0.007935 -0.004445
  0C   1dx2y2     0.002448 -0.000318 -0.001661  0.000345 -0.004194 -0.007184
  0C   1dxy       0.000188 -0.001924  0.001572  0.002120  0.003350  0.012434
  1C   1s         0.021516 -0.025184  0.012780  0.022199  0.004707  0.027935
  1C   2s        -0.047519  0.051627 -0.025695 -0.039482 -0.012334 -0.065551
  1C   1pz        0.219366  0.148473 -0.075706  0.120728 -0.142409 -0.017979
  1C   1px        0.111456 -0.058284  0.088041  0.094748  0.046515  0.277370
  1C   1py        0.151875 -0.218570  0.047362 -0.001023  0.023901 -0.213443
  1C   3s        -0.031521  0.073812 -0.045654 -0.098267 -0.000456 -0.031836
  1C   2pz        0.105326  0.069116 -0.037528  0.034970 -0.072081  0.010006
  1C   2px        0.057867 -0.014393  0.069366  0.005090  0.008551  0.099679
  1C   2py        0.071883 -0.089013  0.003763 -0.031563  0.014272 -0.069919
  1C   1dz2      -0.003881  0.002770  0.001662 -0.013975  0.006917 -0.000669
  1C   1dxz       0.005672  0.002475 -0.000857  0.001646  0.009977  0.005681
  1C   1dyz      -0.001983 -0.009117  0.000758  0.005681  0.003757 -0.008395
  1C   1dx2y2     0.004241 -0.001923  0.002660 -0.006039  0.002785 -0.008582
  1C   1dxy       0.002135 -0.009051 -0.000700  0.006359 -0.004092  0.001291
  2H   1s        -0.042002  0.031627 -0.018340 -0.016848  0.030676  0.094663
  2H   2s        -0.034853  0.017613 -0.005949  0.001525  0.024463  0.074987
  3H   1s         0.007388 -0.065133  0.058337 -0.004225  0.129550  0.109254
  3H   2s         0.002275 -0.045068  0.053934 -0.008201  0.090331  0.085764
  4H   1s         0.059430  0.032964  0.004569  0.083128 -0.125062  0.039147
  4H   2s         0.040625  0.029486  0.013836  0.051775 -0.088635  0.023678
  5C   1s        -0.034645  0.052601  0.056592 -0.021294 -0.001871 -0.020812
  5C   2s         0.080174 -0.118414 -0.137418  0.045161  0.002878  0.048584
  5C   1pz        0.059877  0.134739 -0.154044  0.118315  0.220396 -0.070018
  5C   1px       -0.197479  0.125129 -0.081307 -0.147328 -0.002358 -0.043210
  5C   1py       -0.052078 -0.110890 -0.173798 -0.083496 -0.087351  0.053680
  5C   3s         0.039136 -0.096908 -0.064092  0.084749  0.012669  0.032427
  5C   2pz        0.028500  0.076370 -0.043250  0.043031  0.122557 -0.050856
  5C   2px       -0.036378  0.041571 -0.011297 -0.077797  0.000330  0.011776
  5C   2py       -0.014627 -0.003061 -0.010664 -0.072600 -0.049078 -0.000801
  5C   1dz2       0.001606 -0.000731  0.001024  0.001423  0.005214  0.000587
  5C   1dxz      -0.000326 -0.000714 -0.004573  0.000267  0.014963 -0.000345
  5C   1dyz      -0.004069  0.001110 -0.000074  0.003054  0.005089  0.000155
  5C   1dx2y2     0.000941 -0.001781 -0.003807 -0.002970  0.000036 -0.013621
  5C   1dxy       0.004000 -0.001469 -0.009955 -0.006473 -0.002746  0.011924
  6N   1s        -0.003301  0.011095 -0.008910 -0.002382 -0.006675 -0.032775
  6N   2s         0.005692 -0.020070  0.016719  0.006925  0.012607  0.079730
  6N   1pz        0.244896 -0.099424  0.085889 -0.296730  0.087938 -0.114224
  6N   1px        0.100183  0.123340  0.030612 -0.112366  0.057632  0.188522
  6N   1py        0.098895  0.284029 -0.065240 -0.150434 -0.080817  0.088980
  6N   3s         0.011380 -0.058436  0.035724 -0.001569  0.027455  0.097947
  6N   2pz        0.116026 -0.043329  0.046330 -0.156983  0.046979 -0.063273
  6N   2px        0.048267  0.071660  0.020185 -0.051178  0.046498  0.114810
  6N   2py        0.050082  0.137981 -0.031856 -0.083129 -0.041170  0.029901
  6N   1dz2       0.007131 -0.002415  0.005208 -0.018626  0.007865  0.005566
  6N   1dxz      -0.011579  0.001512 -0.004150  0.012409 -0.002747  0.001195
  6N   1dyz       0.009969 -0.006171  0.002809 -0.005253  0.001864 -0.004950
  6N   1dx2y2    -0.008437 -0.013301  0.001645  0.007738  0.001182 -0.007918
  6N   1dxy      -0.003377 -0.014031  0.005278  0.013176  0.007231  0.005667
  7H   1s        -0.143667 -0.032942  0.027756 -0.093869  0.081816  0.017441
  7H   2s        -0.077148 -0.025112  0.027478 -0.078406  0.060459  0.027543
  8O   1s        -0.000388 -0.008074 -0.043194 -0.017874  0.005871  0.019752
  8O   2s        -0.001785  0.020527  0.101997  0.039503 -0.013670 -0.047995
  8O   1pz        0.035554  0.104149 -0.167077  0.074972  0.312518 -0.080679
  8O   1px        0.121156 -0.073552 -0.032977  0.030169  0.009787  0.095784
  8O   1py       -0.045556 -0.066978 -0.240548 -0.190263 -0.100090  0.080770
  8O   3s         0.008572  0.025949  0.148680  0.074215 -0.026217 -0.087988
  8O   2pz        0.021549  0.063221 -0.109413  0.051694  0.210880 -0.055074
  8O   2px        0.059109 -0.041236 -0.012381  0.019136  0.004286  0.055102
  8O   2py       -0.026086 -0.047533 -0.160301 -0.116901 -0.069604  0.050292
  8O   1dz2       0.000371  0.004910  0.002195  0.005383  0.009202 -0.005753
  8O   1dxz       0.000786 -0.004467  0.003128 -0.002082 -0.005089  0.003280
  8O   1dyz       0.000486  0.004083 -0.012036  0.001247  0.013067 -0.002306
  8O   1dx2y2     0.005599  0.001798  0.012150  0.010466  0.005186 -0.002388
  8O   1dxy       0.007039 -0.000455  0.002854  0.003037  0.002614  0.003780
  9O   1s         0.029117 -0.050501 -0.082284  0.006609  0.000756  0.013092
  9O   2s        -0.067693  0.117274  0.186247 -0.017577 -0.001084 -0.029748
  9O   1pz        0.012698  0.171912  0.072100  0.090150  0.191535 -0.114533
  9O   1px       -0.092470  0.058166 -0.122043 -0.126608  0.013061  0.028377
  9O   1py       -0.079504  0.130864  0.335763 -0.082559 -0.081498 -0.051958
  9O   3s        -0.095687  0.168884  0.304012 -0.009396 -0.006139 -0.042116
  9O   2pz        0.006134  0.096602  0.036137  0.051222  0.112693 -0.069474
  9O   2px       -0.052429  0.032007 -0.075657 -0.071470  0.008292  0.015777
  9O   2py       -0.043055  0.071846  0.178389 -0.052521 -0.045648 -0.028633
  9O   1dz2      -0.003690 -0.002181  0.009018 -0.005825 -0.008911  0.002880
  9O   1dxz       0.003120 -0.001102  0.002988  0.003884  0.002705 -0.000970
  9O   1dyz       0.000315 -0.013225 -0.006929 -0.004711 -0.011170  0.006618
  9O   1dx2y2    -0.005293  0.004414  0.012473 -0.005816 -0.005328 -0.000973
  9O   1dxy       0.007599 -0.004188  0.008601  0.007075 -0.001628 -0.000406
 10H   1s         0.051098 -0.034939 -0.069292 -0.017082  0.013569  0.052275
 10H   2s         0.023299 -0.015122 -0.031808 -0.008892  0.010196  0.037917
 11H   1s        -0.112925 -0.149186  0.002612  0.171911 -0.004152 -0.069873
 11H   2s        -0.064279 -0.093581  0.002303  0.123384  0.003253 -0.054531
 12H   1s         0.144138 -0.041138  0.050658 -0.194401  0.050822 -0.036486
 12H   2s         0.084874 -0.024036  0.031927 -0.132098  0.043409 -0.033577
                     18        19        20        21        22        23   
                  -0.38836  -0.36479  -0.34934  -0.30467  -0.25995  -0.23312
                   2.00000   2.00000   2.00000   2.00000   2.00000   2.00000
                  --------  --------  --------  --------  --------  --------
  0C   1s         0.005385 -0.006955  0.000621 -0.001110 -0.015135  0.030121
  0C   2s        -0.015745  0.013020  0.000485  0.001734  0.034809 -0.059300
  0C   1pz       -0.083264 -0.255386 -0.189871  0.030059  0.000256 -0.007293
  0C   1px       -0.203881  0.140269 -0.057882  0.003764  0.043847 -0.127298
  0C   1py       -0.300397  0.096690 -0.107029 -0.024308 -0.004643  0.143493
  0C   3s        -0.012691  0.029445 -0.000580  0.006432  0.071362 -0.172618
  0C   2pz       -0.031298 -0.128246 -0.090243  0.038457 -0.011827  0.026387
  0C   2px       -0.076582  0.070413 -0.018756  0.003549 -0.030584 -0.096916
  0C   2py       -0.135640  0.057453 -0.051200 -0.019956 -0.024110  0.039125
  0C   1dz2      -0.011251 -0.011222 -0.014765 -0.000035  0.000281  0.001253
  0C   1dxz       0.006727  0.003042  0.008194 -0.000484 -0.000826  0.002356
  0C   1dyz       0.009345 -0.014720 -0.004767  0.000802 -0.002125 -0.007305
  0C   1dx2y2     0.009130 -0.007329  0.004566  0.001028  0.002575 -0.008664
  0C   1dxy       0.013637 -0.006813  0.007184  0.000331 -0.002855 -0.000923
  1C   1s         0.013813  0.005035 -0.004514  0.001066 -0.021921 -0.007213
  1C   2s        -0.021654 -0.002321  0.016283  0.003668  0.039526  0.022038
  1C   1pz       -0.013491  0.187440  0.205890  0.018981  0.077245  0.003288
  1C   1px        0.000140 -0.161644  0.083045 -0.006659  0.078684  0.110058
  1C   1py        0.006738 -0.063325  0.121410  0.003235  0.138705 -0.105550
  1C   3s        -0.108680 -0.076874  0.027663 -0.029215  0.196944 -0.028370
  1C   2pz       -0.011639  0.083531  0.075286 -0.040988  0.059098 -0.019843
  1C   2px       -0.039351 -0.099179  0.048027 -0.016454  0.095109  0.024075
  1C   2py       -0.020096 -0.026465  0.038835  0.014336  0.103540  0.013259
  1C   1dz2       0.000021 -0.011885 -0.017487 -0.003903 -0.007614  0.011630
  1C   1dxz       0.001896  0.004944  0.006984 -0.002140  0.001658 -0.006663
  1C   1dyz       0.000833 -0.013060 -0.006181 -0.002840  0.000826 -0.004372
  1C   1dx2y2     0.009042 -0.011663  0.008082 -0.000926  0.006599  0.000970
  1C   1dxy       0.007603 -0.008732  0.008586  0.000306 -0.000281  0.022140
  2H   1s         0.231098 -0.061761  0.118179  0.003394 -0.008535 -0.018253
  2H   2s         0.217586 -0.061769  0.125445  0.002573 -0.047014  0.006765
  3H   1s        -0.137898  0.157356  0.011326 -0.021761  0.004608  0.081441
  3H   2s        -0.114173  0.134453  0.017437  0.007270 -0.028854  0.142039
  4H   1s        -0.092438 -0.160080 -0.149874  0.013234  0.002982 -0.001389
  4H   2s        -0.077953 -0.155359 -0.141325 -0.017011 -0.036261  0.027146
  5C   1s        -0.015030  0.013228 -0.024482  0.000021 -0.010908 -0.014476
  5C   2s         0.029717 -0.032177  0.058730  0.000454  0.028966  0.039219
  5C   1pz        0.021458  0.017480 -0.103567 -0.126214 -0.013084 -0.014328
  5C   1px       -0.121239  0.022016 -0.068143  0.001672 -0.042740 -0.040893
  5C   1py        0.059764  0.138363 -0.211836  0.049518 -0.034508 -0.038895
  5C   3s         0.075279 -0.024705  0.089530  0.013983  0.007897  0.056652
  5C   2pz       -0.029748 -0.032727 -0.007234 -0.066066  0.000395 -0.018115
  5C   2px       -0.053009 -0.011148 -0.050803 -0.012676  0.125846 -0.002806
  5C   2py       -0.071208 -0.007989  0.019920  0.024071 -0.004098 -0.026413
  5C   1dz2       0.002865 -0.005413 -0.004485 -0.020656  0.003904  0.003133
  5C   1dxz      -0.003109 -0.011025 -0.000626  0.018836  0.014666  0.004480
  5C   1dyz       0.004843 -0.001997 -0.010504 -0.025378  0.003074  0.002460
  5C   1dx2y2    -0.013246 -0.007991  0.017337 -0.012486 -0.013815 -0.005970
  5C   1dxy      -0.006034 -0.010220  0.011149 -0.007163  0.039632  0.008595
  6N   1s         0.011980 -0.015841  0.002110 -0.004477 -0.000756  0.055474
  6N   2s        -0.027641  0.036235 -0.005944  0.002348 -0.000245 -0.127923
  6N   1pz        0.075697 -0.112806 -0.063879 -0.014322 -0.011096  0.081175
  6N   1px       -0.014543  0.009571 -0.064604  0.011773  0.031375 -0.462255
  6N   1py       -0.000731  0.152718 -0.022982  0.013371 -0.092866  0.266922
  6N   3s        -0.044203  0.081307 -0.004224  0.056851 -0.003093 -0.201866
  6N   2pz        0.042384 -0.067487 -0.019045 -0.009232 -0.002952  0.049867
  6N   2px       -0.006055  0.011412 -0.040992  0.024682  0.029946 -0.385520
  6N   2py        0.005614  0.088091  0.000384  0.032085 -0.069097  0.250623
  6N   1dz2       0.001391 -0.005676 -0.011575 -0.001160 -0.004542 -0.010007
  6N   1dxz      -0.003048  0.005264  0.003151  0.000104  0.000428 -0.007639
  6N   1dyz       0.001769 -0.003079  0.000854 -0.000997  0.000915  0.002040
  6N   1dx2y2     0.002478 -0.005746  0.000224 -0.001018 -0.000189  0.010831
  6N   1dxy      -0.002186 -0.007235  0.004437 -0.000177  0.007416 -0.014981
  7H   1s        -0.003661 -0.130825 -0.162129 -0.022369 -0.062436  0.048143
  7H   2s         0.004714 -0.110687 -0.176738 -0.059318 -0.077854  0.057544
  8O   1s        -0.029027 -0.032516  0.034216 -0.000880  0.011393  0.002604
  8O   2s         0.066427  0.075134 -0.079541  0.001602 -0.026364 -0.003647
  8O   1pz       -0.108259 -0.161477  0.053828  0.427257 -0.085061  0.024043
  8O   1px        0.041715 -0.037446  0.008077 -0.012130  0.121422  0.033388
  8O   1py       -0.252861 -0.159339  0.287222 -0.173657 -0.199852 -0.064801
  8O   3s         0.107607  0.139333 -0.131561  0.007509 -0.120970 -0.033398
  8O   2pz       -0.069823 -0.108218  0.034769  0.331946 -0.068132  0.017780
  8O   2px        0.043185 -0.008985 -0.019714 -0.011621  0.092402  0.032033
  8O   2py       -0.160456 -0.101449  0.196093 -0.133207 -0.161038 -0.038875
  8O   1dz2       0.003214  0.001008 -0.006863  0.009642  0.000284  0.001447
  8O   1dxz       0.000446 -0.001186  0.001793  0.001212  0.001368  0.001237
  8O   1dyz      -0.007608 -0.008953  0.004509  0.011959 -0.004209  0.001268
  8O   1dx2y2     0.010342  0.002960 -0.006618  0.005868  0.007503  0.004804
  8O   1dxy       0.000721 -0.003878  0.003611 -0.001063  0.003697 -0.000516
  9O   1s         0.007851  0.011939 -0.018659 -0.000225  0.000845  0.000261
  9O   2s        -0.018442 -0.026923  0.041332  0.001055 -0.003103 -0.001490
  9O   1pz       -0.050311 -0.123985  0.055140 -0.415643  0.023896  0.005160
  9O   1px       -0.069604 -0.031028 -0.046402  0.003179  0.584315  0.080821
  9O   1py       -0.134913 -0.106540  0.249233  0.167670  0.044364  0.006417
  9O   3s        -0.008634 -0.036817  0.056021 -0.002132 -0.000099  0.007051
  9O   2pz       -0.031464 -0.081021  0.031649 -0.292671  0.015309  0.007370
  9O   2px       -0.039936 -0.021164 -0.018732  0.004809  0.403673  0.061142
  9O   2py       -0.087041 -0.064035  0.155858  0.119259  0.029943  0.002647
  9O   1dz2      -0.001034  0.000819  0.004121  0.014662 -0.000719  0.000361
  9O   1dxz       0.001287 -0.000254  0.001586 -0.000926 -0.007993 -0.000780
  9O   1dyz       0.004025  0.006862 -0.003818  0.017788 -0.001546 -0.000950
  9O   1dx2y2    -0.007290 -0.003030  0.007827  0.008685  0.003849  0.000098
  9O   1dxy       0.003891 -0.000229  0.004426 -0.000073 -0.020291 -0.002580
 10H   1s        -0.051516 -0.077224  0.088301 -0.000783 -0.003664  0.003483
 10H   2s        -0.034422 -0.061848  0.071993  0.000082  0.059115  0.012843
 11H   1s        -0.010897 -0.035362  0.062725 -0.006004  0.035226  0.061574
 11H   2s         0.006674 -0.045663  0.067299  0.003389  0.049097  0.057063
 12H   1s         0.037470 -0.052815 -0.059326 -0.009646 -0.029267  0.061703
 12H   2s         0.030738 -0.067573 -0.075983 -0.014961 -0.033076  0.060455
                     24        25        26        27        28        29   
                   0.00499   0.07072   0.08676   0.11665   0.13957   0.15632
                   0.00000   0.00000   0.00000   0.00000   0.00000   0.00000
                  --------  --------  --------  --------  --------  --------
  0C   1s        -0.010864  0.003838  0.066218  0.027132 -0.104004  0.061688
  0C   2s         0.009791 -0.006871 -0.073808 -0.036450  0.118290 -0.055518
  0C   1pz        0.006166  0.028586 -0.017182  0.146200  0.103787 -0.093215
  0C   1px       -0.018973 -0.073273  0.120945  0.071936 -0.008562  0.122674
  0C   1py       -0.011799  0.055088  0.008321  0.042708  0.126938  0.233819
  0C   3s         0.157391 -0.064364 -1.015343 -0.441828  1.700626 -1.037863
  0C   2pz        0.078299  0.055604 -0.049846  0.244887  0.417446 -0.164581
  0C   2px       -0.051091 -0.196823  0.340675  0.202306  0.090222  0.256931
  0C   2py       -0.048126  0.189224 -0.071237  0.118757  0.361917  0.832321
  0C   1dz2      -0.002328 -0.001458 -0.000074 -0.000296 -0.006740 -0.000694
  0C   1dxz      -0.002447 -0.000382  0.003900  0.003960  0.000458 -0.008212
  0C   1dyz      -0.000431  0.001145 -0.004937 -0.000385 -0.002282  0.014299
  0C   1dx2y2     0.001770  0.007987 -0.002135  0.004246 -0.004603  0.009094
  0C   1dxy       0.000876  0.002013  0.003114  0.004046 -0.001543  0.003150
  1C   1s        -0.001809 -0.041584  0.017469  0.053998 -0.024796 -0.062996
  1C   2s         0.002200  0.051817 -0.014490 -0.073500  0.054917  0.066927
  1C   1pz       -0.043908  0.004767  0.102915  0.192932 -0.001825 -0.199182
  1C   1px        0.000133  0.082871  0.024993 -0.009924  0.093251 -0.003810
  1C   1py        0.039292  0.097233  0.008432  0.132260 -0.094985  0.074151
  1C   3s         0.077492  0.590722 -0.337731 -0.856326  0.280716  1.087438
  1C   2pz       -0.234532  0.069363  0.177380  0.543787 -0.137829 -0.596030
  1C   2px        0.092754  0.031097 -0.014125 -0.081190  0.251642 -0.250749
  1C   2py        0.172739  0.234644  0.114672  0.335098 -0.411395 -0.002909
  1C   1dz2      -0.015394  0.008345 -0.003077  0.014117 -0.000471  0.001853
  1C   1dxz      -0.020761  0.003969 -0.001639 -0.003347 -0.007078  0.011046
  1C   1dyz      -0.020369  0.002580 -0.001523 -0.003590  0.003414 -0.005604
  1C   1dx2y2    -0.008566 -0.011411 -0.008797 -0.004306  0.003773 -0.014406
  1C   1dxy       0.008325  0.003578 -0.001038 -0.002694 -0.009387 -0.007233
  2H   1s         0.009485  0.025833  0.017062  0.038090 -0.008262  0.060310
  2H   2s        -0.074466  0.045080  0.680012  0.634224 -0.214869  1.229737
  3H   1s        -0.012165 -0.024278  0.033920 -0.014135  0.005907 -0.076667
  3H   2s        -0.037069 -0.163437  0.413524  0.231117 -0.718134 -0.728430
  4H   1s        -0.002458 -0.002869 -0.001865 -0.010195 -0.066746  0.047608
  4H   2s        -0.076177 -0.136032  0.447427 -0.283550 -1.258333  0.545680
  5C   1s         0.002205  0.036826  0.011125  0.012033  0.027395  0.028838
  5C   2s         0.003257 -0.045295 -0.060531 -0.048197 -0.012519 -0.028448
  5C   1pz       -0.471436  0.115661 -0.179944  0.035857 -0.067269  0.067158
  5C   1px        0.006916 -0.092793 -0.001590  0.027930  0.046708  0.031339
  5C   1py        0.193232  0.051997  0.128530  0.038810  0.035477  0.022558
  5C   3s        -0.115205 -0.443053  0.151697 -0.021777 -0.446221 -0.320719
  5C   2pz       -0.402793  0.096974 -0.138186 -0.095211 -0.104975  0.181933
  5C   2px        0.043389  0.115721  0.094115  0.084699 -0.011866 -0.083559
[...]
 5 C  dx2y2           0.0       0.3       1.0       0.2       0.3       0.4
 5 C  dxy             1.6       0.9       3.2       0.2       5.8       8.8
 6 N  s               1.1       0.2       3.1      10.8       1.0       3.1
 6 N  pz              0.1       0.1       0.4       1.3       1.0       1.3
 6 N  px              0.3       0.2       1.2       0.4       0.1       0.1
 6 N  py              0.0       0.3       0.4       1.0       0.2       0.5
 6 N  dz2             0.3       7.3       0.0       2.5       0.9       0.0
 6 N  dxz             6.8       6.4      15.8       0.7       0.3       8.5
 6 N  dyz             0.7       1.1       1.9       6.7       8.4       5.1
 6 N  dx2y2           0.1       7.6       0.5       0.2       2.0       2.1
 6 N  dxy             1.7       1.4       0.9      16.2      10.1       0.4
 7 H  s               2.7       0.5       0.5       3.0       0.3       4.4
 8 O  s               1.8       0.3       0.5       1.9       0.6       0.4
 8 O  pz              1.8       0.3       0.5       0.0       0.4       0.1
 8 O  px              0.1       0.4       0.1       0.1       0.0       0.1
 8 O  py              0.1       0.0       0.7       0.0       0.1       0.3
 8 O  dz2             9.3       1.3       1.5       3.8       0.4       0.2
 8 O  dxz             0.3       3.7       0.0       0.2       0.1       1.1
 8 O  dyz             0.5       0.1       2.9       0.4       0.1       0.9
 8 O  dx2y2           1.9       1.5       1.7       0.1       1.2       0.9
 8 O  dxy             0.3       0.5       1.5       0.7       1.7       2.4
 9 O  s               3.2       0.4       0.0       2.9       0.8       0.5
 9 O  pz              1.4       0.1       0.0       0.4       1.0       0.7
 9 O  px              0.2       0.0       0.0       0.0       0.7       0.0
 9 O  py              0.1       0.0       0.4       0.1       0.0       0.1
 9 O  dz2             6.0       0.1       0.0       0.6       0.2       0.1
 9 O  dxz             1.0       4.0       0.7       0.1       3.7       0.1
 9 O  dyz             1.2       0.0       5.7       0.9       0.5       3.4
 9 O  dx2y2           0.0       2.3       0.2       0.3       1.0       1.9
 9 O  dxy             6.9       9.5       0.3       1.2       2.8       3.0
10 H  s               0.0       0.0       0.0       0.0       0.7       0.4
11 H  s               0.6       0.1       2.4       1.8       0.2       0.1
12 H  s               0.4       0.6       0.9       0.4       1.4       2.0

                     84        85        86        87        88        89   
                   2.18500   2.28731   2.34521   2.35475   2.40962   2.45932
                   0.00000   0.00000   0.00000   0.00000   0.00000   0.00000
                  --------  --------  --------  --------  --------  --------
 0 C  s               0.3       0.2       0.3       0.2       0.0       0.0
 0 C  pz              0.8       0.8       0.1       0.2       0.0       0.0
 0 C  px              0.3       0.8       0.4       0.1       0.0       0.1
 0 C  py              1.6       0.2       0.1       0.1       0.1       0.2
 0 C  dz2             1.4      11.9       2.9       4.2       0.4       0.4
 0 C  dxz            11.4       7.9       2.5       0.0       0.0       0.0
 0 C  dyz            27.0       1.0      14.0       1.2       1.1      10.1
 0 C  dx2y2           4.6       4.4       0.4       0.1       2.4       5.7
 0 C  dxy             1.6      23.0       2.1       0.5       1.8       0.7
 1 C  s               0.5       1.5       1.1       5.0       0.7       0.4
 1 C  pz              0.0       0.0       0.8       0.9       0.2       0.1
 1 C  px              0.1       0.2       1.4       0.0       0.0       0.6
 1 C  py              0.2       0.2       0.2       0.5       0.0       0.1
 1 C  dz2             0.8       1.0       0.2      21.8       0.1       1.0
 1 C  dxz             1.2       0.3       3.1       7.8       0.0       9.7
 1 C  dyz             2.0       0.1       0.7       0.7       0.4       0.0
 1 C  dx2y2           3.3       2.2       0.4       0.8       3.1       3.9
 1 C  dxy             0.0       0.2       1.8       5.6       0.3       0.6
 2 H  s               2.6       6.2       0.1       0.0       0.2       0.3
 3 H  s               8.3       0.0       0.8       0.1       0.1       2.3
 4 H  s               0.6       4.3       1.7       0.8       0.1       0.2
 5 C  s               0.2       0.1       0.0       1.7       0.3       0.8
 5 C  pz              0.0       0.7       0.5       0.6       0.0       0.3
 5 C  px              0.0       0.2       0.6       2.3       0.5       0.2
 5 C  py              0.0       1.0       0.1       1.3       0.1       0.1
 5 C  dz2             1.5       0.3       0.4       0.2       0.9       0.6
 5 C  dxz             0.5       0.2       1.5       0.6       0.1       0.8
 5 C  dyz             0.2       0.3       1.2       0.0       0.2       0.0
 5 C  dx2y2           0.0       5.1       7.4       3.5       9.0       2.7
 5 C  dxy             2.0       0.1       0.6       2.7       4.5       2.6
 6 N  s               0.6       0.1       0.1       0.2       0.0       0.1
 6 N  pz              0.1       0.2       0.2       0.4       0.5       0.0
 6 N  px              0.0       0.2       0.0       0.2       1.8       0.4
 6 N  py              0.1       0.1       0.1       0.0       0.9       0.0
 6 N  dz2             4.7       0.3       5.7       0.6      16.4       5.3
 6 N  dxz             0.0       0.0       0.1       0.0       0.3       2.4
 6 N  dyz             1.2       1.0       2.9       5.4       0.3       0.5
 6 N  dx2y2           6.3       2.8       4.1       0.2      18.0       0.7
 6 N  dxy             5.5       0.1       2.3       0.6       3.2       5.3
 7 H  s               0.5       0.2       0.1       2.9       0.0       0.0
 8 O  s               1.0       0.1       1.6       5.3       0.2       3.9
 8 O  pz              0.1       0.3       0.7       0.8       0.1       0.6
 8 O  px              0.1       0.0       1.3       0.1       0.0       1.8
 8 O  py              0.0       0.4       0.1       0.1       0.7       0.2
 8 O  dz2             0.0       1.9       1.1       0.3       0.9       0.4
 8 O  dxz             0.6       1.0      11.8       0.4       0.6      11.4
 8 O  dyz             0.0       3.3       0.5       1.9       6.3       1.0
 8 O  dx2y2           0.2       3.3       0.0       2.6       3.5       0.2
 8 O  dxy             0.8       0.7       6.6       2.2       0.0       9.6
 9 O  s               0.3       1.0       1.3       0.3       0.5       0.1
 9 O  pz              0.3       0.1       0.0       0.1       0.1       0.1
 9 O  px              0.1       0.2       0.0       0.2       0.4       0.1
 9 O  py              0.0       0.2       0.3       0.1       0.0       0.0
 9 O  dz2             0.0       1.4       0.1       4.0       0.7       0.1
 9 O  dxz             0.2       3.3       0.8       1.5       1.9       1.3
 9 O  dyz             0.0       1.8       3.9       1.1       1.2       0.0
 9 O  dx2y2           0.1       0.0       0.3       1.1       1.3       0.9
 9 O  dxy             0.8       0.2       0.2       1.2       1.1       0.1
10 H  s               0.6       0.4       4.6       2.2       0.4       7.9
11 H  s               1.1       0.4       0.2       0.0       7.9       0.0
12 H  s               1.5       0.4       1.5       0.2       3.9       0.8

                     90        91        92        93        94        95   
                   2.54539   2.62265   2.66094   2.69914   2.78092   2.87041
                   0.00000   0.00000   0.00000   0.00000   0.00000   0.00000
                  --------  --------  --------  --------  --------  --------
 0 C  s               0.3       0.4       0.5       0.0       1.0       0.0
 0 C  px              0.2       0.4       0.9       0.0       0.6       0.0
 0 C  py              0.1       0.4       0.6       0.0       0.3       0.1
 0 C  dz2             2.6       2.1       2.9       0.0       1.4       0.0
 0 C  dxz             2.7       0.3       0.1       0.0       0.0       0.0
 0 C  dyz             0.8       0.3       0.0       0.9       0.2       0.1
 0 C  dx2y2           4.1       0.1       0.0       3.0       0.5       0.1
 0 C  dxy             0.1       2.9      11.3       0.0       2.9       0.3
 1 C  s               0.1       0.3       1.0       0.4       0.5       0.8
 1 C  pz              0.2       0.8       0.0       0.6       0.4       0.0
 1 C  px              0.5       0.2       1.2       0.1       0.8       0.1
 1 C  py              0.3       2.3       0.1       0.6       0.6       0.6
 1 C  dz2             2.2       9.2       5.1       0.1       0.0       0.6
 1 C  dxz             4.1       0.1       0.0       1.4       0.0       6.5
 1 C  dyz             2.5       2.1      11.2       5.0       0.9       5.4
 1 C  dx2y2           7.4       0.7       0.4      11.6       0.0       2.8
 1 C  dxy             1.4       1.8      13.9       0.2      14.0       1.8
 2 H  s               0.4       0.0       0.3       0.0       0.0       0.0
 3 H  s               0.0       0.1       0.1       0.1       0.0       0.0
 4 H  s               0.5       0.1       0.0       0.0       0.0       0.0
 5 C  s               1.1       0.3       0.8       0.8       4.0       5.8
 5 C  pz              0.3       0.3       0.0       0.0       4.0       0.0
 5 C  px              1.0       0.1       1.1       0.8       0.4       0.4
 5 C  py              0.7       0.2       1.1       0.1       0.6       0.3
 5 C  dz2             0.1       0.9       0.0      12.3       0.2       7.1
 5 C  dxz             0.5      14.0       0.3       1.1       2.6       9.1
 5 C  dyz             5.2       9.5       6.0      13.0       0.0       0.5
 5 C  dx2y2           5.1       0.2       4.9       0.3       1.7       0.0
 5 C  dxy             4.6       0.3       0.1       1.2       6.8       7.1
 6 N  s               0.0       1.7       0.5       1.0       0.8       0.9
 6 N  pz              0.3       0.7       0.9       0.5       0.3       0.6
 6 N  px              0.6       0.3       0.0       0.5       0.0       0.0
 6 N  py              0.2       1.3       0.1       0.8       0.2       0.6
 6 N  dz2            16.7       0.5       3.5       0.6       0.1       0.6
 6 N  dxz             0.0       0.5       1.0       1.6       0.1       0.0
 6 N  dyz             1.2       8.7       6.3       5.6       2.4       5.2
 6 N  dx2y2           1.7       7.1       0.8       2.1       1.0       1.8
 6 N  dxy             0.9       0.5       3.2       2.1       0.0       0.4
 7 H  s               0.1       0.3       1.0       0.1       0.1       0.0
 8 O  s               0.4       0.9       2.1       0.5      18.4       1.1
 8 O  pz              0.1       0.1       0.2       0.0       2.2       0.9
 8 O  px              0.3       0.6       0.6       0.0       1.1       0.2
 8 O  py              1.3       0.0       0.2       0.1       0.9       0.2
 8 O  dz2             0.1       0.1       0.4       2.1       2.9       9.3
 8 O  dxz             0.7       3.3       1.1       0.5       5.1       3.4
 8 O  dyz             9.0       0.0       0.0       0.0       6.0       4.3
 8 O  dx2y2           4.5       3.7       0.0       0.7       0.3       0.8
 8 O  dxy             0.3       1.4       0.2       4.6       4.8       0.6
 9 O  s               0.1       1.3       0.2       2.1       1.9       8.0
 9 O  pz              0.0       0.6       0.0       1.2       0.6       2.0
 9 O  px              0.1       0.4       0.1       0.4       0.4       0.2
 9 O  py              0.1       0.4       0.6       0.5       0.1       0.0
 9 O  dz2             0.5       0.2       0.8       4.0       0.0       4.5
 9 O  dxz             0.8       4.3       0.0       3.9       4.5       2.7
 9 O  dyz             2.6       7.9       7.5       7.8       1.0       0.2
 9 O  dx2y2           0.4       1.9       0.5       1.3       0.2       0.2
 9 O  dxy             1.2       0.4       1.4       0.7       0.0       0.1
10 H  s               1.7       0.1       0.1       0.7       0.1       1.0
11 H  s               2.4       0.2       0.8       0.2       0.0       0.2
12 H  s               3.0       0.2       1.8       0.0       0.0       0.0

                     96        97   
                   2.99096   3.09977
                   0.00000   0.00000
                  --------  --------
 0 C  s               0.1       0.1
 0 C  dxy             0.4       0.1
 1 C  s               0.2       0.2
 1 C  px              0.1       0.7
 1 C  py              0.0       0.8
 1 C  dz2             0.8       1.9
 1 C  dxz             0.9       0.6
 1 C  dyz             0.3       1.7
 1 C  dx2y2           0.0       1.4
 1 C  dxy             2.8       2.5
 5 C  s               8.1       1.4
 5 C  pz              8.7       0.2
 5 C  px              0.5       0.9
 5 C  py              0.0       0.4
 5 C  dz2             4.5      20.0
 5 C  dxz             8.2      10.4
 5 C  dyz             1.4      10.2
 5 C  dx2y2           0.4       1.9
 5 C  dxy             0.0       2.8
 6 N  s               0.2       0.4
 6 N  pz              0.0       0.1
 6 N  py              0.0       0.2
 6 N  dz2             0.2       0.0
 6 N  dxz             0.2       0.2
 6 N  dyz             0.5       0.4
 6 N  dx2y2           0.1       0.6
 6 N  dxy             0.3       0.1
 8 O  s               0.1       1.3
 8 O  pz              0.3       0.5
 8 O  px              0.0       2.2
 8 O  py              0.0       1.2
 8 O  dz2             1.4       1.1
 8 O  dxz             0.2       6.8
 8 O  dyz             0.4       3.3
 8 O  dx2y2           0.1       0.0
 8 O  dxy             0.2       2.6
 9 O  s              13.2       0.2
 9 O  pz              6.3       0.2
 9 O  px              0.3       1.1
 9 O  py              0.0       0.6
 9 O  dz2            32.0       0.9
 9 O  dxz             5.9      10.2
 9 O  dyz             0.1       5.3
 9 O  dx2y2           0.1       0.6
 9 O  dxy             0.0       0.9
10 H  s               0.1       0.4


                      *****************************
                      * MAYER POPULATION ANALYSIS *
                      *****************************

  NA   - Mulliken gross atomic population
  ZA   - Total nuclear charge
  QA   - Mulliken gross atomic charge
  VA   - Mayer's total valence
  BVA  - Mayer's bonded valence
  FA   - Mayer's free valence

  ATOM       NA         ZA         QA         VA         BVA        FA
  0 C      6.4639     6.0000    -0.4639     3.8238     3.8238    -0.0000
  1 C      6.0303     6.0000    -0.0303     3.8687     3.8687     0.0000
  2 H      0.8489     1.0000     0.1511     0.9354     0.9354     0.0000
  3 H      0.8393     1.0000     0.1607     0.9350     0.9350    -0.0000
  4 H      0.8445     1.0000     0.1555     0.9375     0.9375    -0.0000
  5 C      5.4444     6.0000     0.5556     3.9566     3.9566     0.0000
  6 N      7.7137     7.0000    -0.7137     2.7537     2.7537     0.0000
  7 H      0.8385     1.0000     0.1615     0.9254     0.9254    -0.0000
  8 O      8.5743     8.0000    -0.5743     1.9233     1.9233     0.0000
  9 O      8.4293     8.0000    -0.4293     2.1038     2.1038     0.0000
 10 H      0.5846     1.0000     0.4154     0.8153     0.8153     0.0000
 11 H      0.7034     1.0000     0.2966     0.8682     0.8682    -0.0000
 12 H      0.6849     1.0000     0.3151     0.8718     0.8718    -0.0000

  Mayer bond orders larger than 0.1
B(  0-C ,  1-C ) :   0.9808 B(  0-C ,  2-H ) :   0.9463 B(  0-C ,  3-H ) :   0.9357 
B(  0-C ,  4-H ) :   0.9452 B(  1-C ,  5-C ) :   0.9390 B(  1-C ,  6-N ) :   1.0353 
B(  1-C ,  7-H ) :   0.9168 B(  5-C ,  8-O ) :   1.0791 B(  5-C ,  9-O ) :   1.9229 
B(  6-N , 11-H ) :   0.8604 B(  6-N , 12-H ) :   0.8346 B(  8-O , 10-H ) :   0.7587 


-------
TIMINGS
-------

Total SCF time: 0 days 0 hours 0 min 12 sec 

Total time                  ....      12.696 sec
Sum of individual times     ....      12.398 sec  ( 97.6%)

Fock matrix formation       ....      10.878 sec  ( 85.7%)
  XC integration            ....       2.327 sec  ( 21.4% of F)
    Basis function eval.    ....       0.878 sec  ( 37.7% of XC)
    Density eval.           ....       0.607 sec  ( 26.1% of XC)
    XC-Functional eval.     ....       0.208 sec  (  8.9% of XC)
    XC-Potential eval.      ....       0.481 sec  ( 20.7% of XC)
Diagonalization             ....       0.002 sec  (  0.0%)
Density matrix formation    ....       0.001 sec  (  0.0%)
Population analysis         ....       0.031 sec  (  0.2%)
Initial guess               ....       0.002 sec  (  0.0%)
Orbital Transformation      ....       0.000 sec  (  0.0%)
Orbital Orthonormalization  ....       0.001 sec  (  0.0%)
DIIS solution               ....       0.000 sec  (  0.0%)
SOSCF solution              ....       0.011 sec  (  0.1%)
Grid generation             ....       1.472 sec  ( 11.6%)

-------------------------   --------------------
FINAL SINGLE POINT ENERGY      -323.553473363542
-------------------------   --------------------

                                *** OPTIMIZATION RUN DONE ***

                            ***************************************
                            *     ORCA property calculations      *
                            ***************************************

                                    ---------------------
                                    Active property flags
                                    ---------------------
   (+) Dipole Moment


------------------------------------------------------------------------------
                       ORCA ELECTRIC PROPERTIES CALCULATION
------------------------------------------------------------------------------

Dipole Moment Calculation                       ... on
Quadrupole Moment Calculation                   ... off
Polarizability Calculation                      ... off
GBWName                                         ... /Users/lailaal-madhagi/Desktop/Testing_XAS_Analysis_code/Alanine//Results_dir_Alanine_geom_element_C_2019-11-03_21-44-41//GTE1_Alanine_geom_2019-11-03_21-44-56//opt.gbw
Electron density file                           ... /Users/lailaal-madhagi/Desktop/Testing_XAS_Analysis_code/Alanine//Results_dir_Alanine_geom_element_C_2019-11-03_21-44-41//GTE1_Alanine_geom_2019-11-03_21-44-56//opt.scfp.tmp
The origin for moment calculation is the CENTER OF MASS  = (-3.451527,  1.144559  0.370724)

-------------
DIPOLE MOMENT
-------------
                                X             Y             Z
Electronic contribution:      5.85776       0.85059       1.14558
Nuclear contribution   :     -6.36950      -0.38119      -1.55924
                        -----------------------------------------
Total Dipole Moment    :     -0.51174       0.46940      -0.41366
                        -----------------------------------------
Magnitude (a.u.)       :      0.80829
Magnitude (Debye)      :      2.05451



--------------------
Rotational spectrum 
--------------------
 
Rotational constants in cm-1:     0.167579     0.100804     0.077855 
Rotational constants in MHz :  5023.887107  3022.021251  2334.032902 

 Dipole components along the rotational axes: 
x,y,z [a.u.] :    -0.210050     0.747005     0.226267 
x,y,z [Debye]:    -0.533905     1.898735     0.575124 

 

Timings for individual modules:

Sum of individual times         ...      588.520 sec (=   9.809 min)
GTO integral calculation        ...        9.015 sec (=   0.150 min)   1.5 %
SCF iterations                  ...      380.514 sec (=   6.342 min)  64.7 %
SCF Gradient evaluation         ...      196.864 sec (=   3.281 min)  33.5 %
Geometry relaxation             ...        2.127 sec (=   0.035 min)   0.4 %
                             ****ORCA TERMINATED NORMALLY****
TOTAL RUN TIME: 0 days 0 hours 9 minutes 50 seconds 596 msec
