6
	Energy:      -0.1606568
C         -2.79041        0.49996        0.00001
C         -1.32710        0.49883        0.00001
H         -3.16068        0.48251        1.04568
H         -3.16082       -0.39675       -0.53800
H         -3.16044        1.41441       -0.50767
N         -0.16994        0.49759       -0.00001
