
                                 *****************
                                 * O   R   C   A *
                                 *****************

           --- An Ab Initio, DFT and Semiempirical electronic structure package ---

                  #######################################################
                  #                        -***-                        #
                  #          Department of theory and spectroscopy      #
                  #               Directorship: Frank Neese             #
                  #        Max Planck Institute fuer Kohlenforschung    #
                  #                Kaiser Wilhelm Platz 1               #
                  #                 D-45470 Muelheim/Ruhr               #
                  #                      Germany                        #
                  #                                                     #
                  #                  All rights reserved                #
                  #                        -***-                        #
                  #######################################################


                         Program Version 4.1.0  - RELEASE  -


 With contributions from (in alphabetic order):
   Daniel Aravena         : Magnetic Properties
   Michael Atanasov       : Ab Initio Ligand Field Theory
   Alexander A. Auer      : GIAO ZORA
   Ute Becker             : Parallelization
   Giovanni Bistoni       : ED, Open-shell LED
   Martin Brehm           : Molecular dynamics
   Dmytro Bykov           : SCF Hessian
   Vijay G. Chilkuri      : MRCI spin determinant printing
   Dipayan Datta          : RHF DLPNO-CCSD density
   Achintya Kumar Dutta   : EOM-CC, STEOM-CC
   Dmitry Ganyushin       : Spin-Orbit,Spin-Spin,Magnetic field MRCI
   Miquel Garcia          : C-PCM Hessian
   Yang Guo               : DLPNO-NEVPT2, CIM, IAO-localization
   Andreas Hansen         : Spin unrestricted coupled pair/coupled cluster methods
   Benjamin Helmich-Paris : CASSCF linear response (MC-RPA)
   Lee Huntington         : MR-EOM, pCC
   Robert Izsak           : Overlap fitted RIJCOSX, COSX-SCS-MP3, EOM
   Christian Kollmar      : KDIIS, OOCD, Brueckner-CCSD(T), CCSD density
   Simone Kossmann        : Meta GGA functionals, TD-DFT gradient, OOMP2, MP2 Hessian
   Martin Krupicka        : AUTO-CI
   Lucas Lang             : DCDCAS
   Dagmar Lenk            : GEPOL surface, SMD
   Dimitrios Liakos       : Extrapolation schemes; parallel MDCI
   Dimitrios Manganas     : ROCIS; embedding schemes
   Dimitrios Pantazis     : SARC Basis sets
   Taras Petrenko         : DFT Hessian,TD-DFT gradient, ASA, ECA, R-Raman, ABS, FL, XAS/XES, NRVS
   Peter Pinski           : DLPNO-MP2, DLPNO-MP2 Gradient
   Christoph Reimann      : Effective Core Potentials
   Marius Retegan         : Local ZFS, SOC
   Christoph Riplinger    : Optimizer, TS searches, QM/MM, DLPNO-CCSD(T), (RO)-DLPNO pert. Triples
   Tobias Risthaus        : Range-separated hybrids, TD-DFT gradient, RPA, STAB
   Michael Roemelt        : Restricted open shell CIS
   Masaaki Saitow         : Open-shell DLPNO
   Barbara Sandhoefer     : DKH picture change effects
   Avijit Sen             : IP-ROCIS
   Kantharuban Sivalingam : CASSCF convergence, NEVPT2, FIC-MRCI
   Bernardo de Souza      : ESD, SOC TD-DFT
   Georgi Stoychev        : AutoAux, RI-MP2 NMR
   Willem Van den Heuvel  : Paramagnetic NMR
   Boris Wezisla          : Elementary symmetry handling
   Frank Wennmohs         : Technical directorship


 We gratefully acknowledge several colleagues who have allowed us to
 interface, adapt or use parts of their codes:
   Stefan Grimme, W. Hujo, H. Kruse,             : VdW corrections, initial TS optimization,
                  C. Bannwarth                     DFT functionals, gCP, sTDA/sTD-DF
   Ed Valeev                                     : LibInt (2-el integral package), F12 methods
   Garnet Chan, S. Sharma, J. Yang, R. Olivares  : DMRG
   Ulf Ekstrom                                   : XCFun DFT Library
   Mihaly Kallay                                 : mrcc  (arbitrary order and MRCC methods)
   Andreas Klamt, Michael Diedenhofen            : otool_cosmo (COSMO solvation model)
   Jiri Pittner, Ondrej Demel                    : Mk-CCSD
   Frank Weinhold                                : gennbo (NPA and NBO analysis)
   Christopher J. Cramer and Donald G. Truhlar   : smd solvation model
   Lars Goerigk                                  : TD-DFT with DH, B97 family of functionals
   V. Asgeirsson, H. Jonsson                     : NEB implementation
   FAccTs GmbH                                   : IRC, NEB, NEB-TS, Multilevel


 Your calculation uses the libint2 library for the computation of 2-el integrals
 For citations please refer to: http://libint.valeyev.net

 This ORCA versions uses:
   CBLAS   interface :  Fast vector & matrix operations
   LAPACKE interface :  Fast linear algebra routines
   SCALAPACK package :  Parallel linear algebra routines




***************************************
The coordinates will be read from file: /Users/lailaal-madhagi/Desktop/Testing_XAS_Analysis_code/1-4_Benzoquinone/Benzoquinone_geom.xyz
***************************************


----- Orbital basis set information -----
Your calculation utilizes the basis: 6-31G*
   H-He, Li-Ne : W. J. Hehre, R. Ditchfield and J.A. Pople, J. Chem. Phys. 56, 2257 (1972).
                 Note: He and Ne are unpublished basis sets taken from the Gaussian program.
                 Note: Li and B from J. D. Dill and J. A. Pople, J. Chem. Phys. 62, 2921 (1975).
   Na - Ar     : M. M. Francl, W. J. Pietro, W. J. Hehre, J. S. Binkley, M. S. Gordon, 
                 D. J. DeFrees and J. A. Pople, J. Chem. Phys. 77, 3654 (1982).
   K - Zn      : V. A. Rassolov, J. A. Pople, M. A. Ratner, and T. L. Windus, J. Chem. Phys. 109, 1223 (1998).

================================================================================
                                        WARNINGS
                       Please study these warnings very carefully!
================================================================================


WARNING: Geometry Optimization
  ===> : Switching off AutoStart
         For restart on a previous wavefunction, please use MOREAD

INFO   : the flag for use of LIBINT has been found!

================================================================================
                                       INPUT FILE
================================================================================
NAME = /Users/lailaal-madhagi/Desktop/Testing_XAS_Analysis_code/1-4_Benzoquinone//Results_dir_Benzoquinone_geom_element_O_2019-11-13_07-56-29//GTE1_Benzoquinone_geom_2019-11-13_07-56-47//opt.inp
|  1> ! B3LYP 6-31G* TIGHTSCF Grid3 FinalGrid5 Opt 
|  2> !NormalPrint 
|  3> %output 
|  4> Print[P_Basis] 2 
|  5> Print[P_MOS] 1 
|  6> end 
|  7> *xyzfile 0 1 /Users/lailaal-madhagi/Desktop/Testing_XAS_Analysis_code/1-4_Benzoquinone/Benzoquinone_geom.xyz                           ****END OF INPUT****
================================================================================

                       *****************************
                       * Geometry Optimization Run *
                       *****************************

Geometry optimization settings:
Update method            Update   .... BFGS
Choice of coordinates    CoordSys .... Z-matrix Internals
Initial Hessian          InHess   .... Almoef's Model

Convergence Tolerances:
Energy Change            TolE     ....  5.0000e-06 Eh
Max. Gradient            TolMAXG  ....  3.0000e-04 Eh/bohr
RMS Gradient             TolRMSG  ....  1.0000e-04 Eh/bohr
Max. Displacement        TolMAXD  ....  4.0000e-03 bohr
RMS Displacement         TolRMSD  ....  2.0000e-03 bohr

------------------------------------------------------------------------------
                        ORCA OPTIMIZATION COORDINATE SETUP
------------------------------------------------------------------------------

The optimization will be done in new redundant internal coordinates
Making redundant internal coordinates   ...  (new redundants) done
Evaluating the initial hessian          ...  (Almloef) done
Evaluating the coordinates              ...  done
Calculating the B-matrix                .... done
Calculating the G-matrix                .... done
Diagonalizing the G-matrix              .... done
The first mode is                       ....   24
The number of degrees of freedom        ....   30

    -----------------------------------------------------------------
                    Redundant Internal Coordinates


    -----------------------------------------------------------------
         Definition                    Initial Value    Approx d2E/dq
    -----------------------------------------------------------------
      1. B(C   1,O   0)                  1.1977         1.134212   
      2. B(C   2,C   1)                  1.3259         0.790648   
      3. B(C   3,C   2)                  1.4875         0.436642   
      4. B(C   4,C   3)                  1.3259         0.790655   
      5. B(C   5,C   4)                  1.4670         0.470801   
      6. B(C   6,C   5)                  1.3476         0.730105   
      7. B(C   6,C   1)                  1.4670         0.470792   
      8. B(H   7,C   2)                  1.0859         0.365551   
      9. B(H   8,C   3)                  1.0859         0.365544   
     10. B(H   9,C   5)                  1.0870         0.364104   
     11. B(H  10,C   6)                  1.0870         0.364102   
     12. B(O  11,C   4)                  1.1977         1.134190   
     13. A(O   0,C   1,C   2)          130.1961         0.503555   
     14. A(C   2,C   1,C   6)          111.9922         0.431563   
     15. A(O   0,C   1,C   6)          117.8116         0.457656   
     16. A(C   1,C   2,C   3)          124.2254         0.425774   
     17. A(C   3,C   2,H   7)          117.4332         0.333606   
     18. A(C   1,C   2,H   7)          118.3414         0.368789   
     19. A(C   2,C   3,C   4)          124.2254         0.425774   
     20. A(C   4,C   3,H   8)          118.3416         0.368788   
     21. A(C   2,C   3,H   8)          117.4331         0.333605   
     22. A(C   5,C   4,O  11)          117.8115         0.457656   
     23. A(C   3,C   4,O  11)          130.1961         0.503554   
     24. A(C   3,C   4,C   5)          111.9924         0.431565   
     25. A(C   4,C   5,C   6)          123.7824         0.425443   
     26. A(C   6,C   5,H   9)          117.9905         0.363542   
     27. A(C   4,C   5,H   9)          118.2270         0.337589   
     28. A(C   1,C   6,H  10)          118.2264         0.337587   
     29. A(C   5,C   6,H  10)          117.9915         0.363542   
     30. A(C   1,C   6,C   5)          123.7821         0.425441   
     31. D(H   7,C   2,C   1,O   0)      0.0101         0.045059   
     32. D(H   7,C   2,C   1,C   6)   -179.9897         0.045059   
     33. D(C   3,C   2,C   1,C   6)      0.0092         0.045059   
     34. D(C   3,C   2,C   1,O   0)   -179.9910         0.045059   
     35. D(H   8,C   3,C   2,C   1)    179.9963         0.013014   
     36. D(C   4,C   3,C   2,C   1)     -0.0046         0.013014   
     37. D(C   4,C   3,C   2,H   7)    179.9943         0.013014   
     38. D(H   8,C   3,C   2,H   7)     -0.0048         0.013014   
     39. D(O  11,C   4,C   3,H   8)     -0.0026         0.045060   
     40. D(O  11,C   4,C   3,C   2)    179.9983         0.045060   
     41. D(C   5,C   4,C   3,H   8)    179.9961         0.045060   
     42. D(C   5,C   4,C   3,C   2)     -0.0030         0.045060   
     43. D(H   9,C   5,C   4,C   3)   -179.9957         0.015093   
     44. D(C   6,C   5,C   4,O  11)   -179.9963         0.015093   
     45. D(C   6,C   5,C   4,C   3)      0.0048         0.015093   
     46. D(H   9,C   5,C   4,O  11)      0.0032         0.015093   
     47. D(H  10,C   6,C   5,H   9)     -0.0007         0.037823   
     48. D(C   1,C   6,C   5,H   9)   -179.9991         0.037823   
     49. D(C   1,C   6,C   5,C   4)      0.0004         0.037823   
     50. D(H  10,C   6,C   1,C   2)    179.9942         0.015092   
     51. D(H  10,C   6,C   1,O   0)     -0.0056         0.015092   
     52. D(H  10,C   6,C   5,C   4)    179.9988         0.037823   
     53. D(C   5,C   6,C   1,C   2)     -0.0073         0.015092   
     54. D(C   5,C   6,C   1,O   0)    179.9928         0.015092   
    -----------------------------------------------------------------

Number of atoms                         .... 12
Number of degrees of freedom            .... 54

         *************************************************************
         *                GEOMETRY OPTIMIZATION CYCLE   1            *
         *************************************************************
---------------------------------
CARTESIAN COORDINATES (ANGSTROEM)
---------------------------------
  O      1.868500    2.100940   -0.524740
  C      2.498930    3.117880   -0.578140
  C      2.229700    4.318570   -0.084270
  C      3.118310    5.502380   -0.231680
  C      4.278570    5.488650   -0.873280
  C      4.586290    4.164100   -1.423790
  C      3.781260    3.091660   -1.290280
  H      1.302510    4.454230    0.464470
  H      2.788800    6.434350    0.217840
  H      5.516870    4.038440   -1.971310
  H      4.102310    2.154020   -1.736720
  O      5.071370    6.367630   -1.055860

----------------------------
CARTESIAN COORDINATES (A.U.)
----------------------------
  NO LB      ZA    FRAG     MASS         X           Y           Z
   0 O     8.0000    0    15.999    3.530953    3.970201   -0.991615
   1 C     6.0000    0    12.011    4.722293    5.891939   -1.092526
   2 C     6.0000    0    12.011    4.213522    8.160915   -0.159247
   3 C     6.0000    0    12.011    5.892752   10.397991   -0.437812
   4 C     6.0000    0    12.011    8.085326   10.372045   -1.650260
   5 C     6.0000    0    12.011    8.666832    7.869009   -2.690573
   6 C     6.0000    0    12.011    7.145546    5.842391   -2.438276
   7 H     1.0000    0     1.008    2.461387    8.417275    0.877721
   8 H     1.0000    0     1.008    5.270068   12.159159    0.411658
   9 H     1.0000    0     1.008   10.425373    7.631546   -3.725236
  10 H     1.0000    0     1.008    7.752242    4.070508   -3.281925
  11 O     8.0000    0    15.999    9.583500   12.033077   -1.995286

--------------------------------
INTERNAL COORDINATES (ANGSTROEM)
--------------------------------
 O      0   0   0     0.000000000000     0.00000000     0.00000000
 C      1   0   0     1.197689654502     0.00000000     0.00000000
 C      2   1   0     1.325914343350   130.19611143     0.00000000
 C      3   2   1     1.487536068907   124.22544736   180.00902476
 C      4   3   2     1.325911890172   124.22538601     0.00000000
 C      5   4   3     1.467032910674   111.99237852     0.00000000
 C      6   5   4     1.347600005417   123.78243320     0.00000000
 H      3   2   1     1.085909995948   118.34139730     0.00000000
 H      4   3   2     1.085915812299   117.43305105   179.99632663
 H      6   5   4     1.086990212651   118.22703305   180.00426016
 H      7   6   5     1.086991511328   117.99147867   179.99882278
 O      5   4   3     1.197694926432   130.19611539   179.99832341

---------------------------
INTERNAL COORDINATES (A.U.)
---------------------------
 O      0   0   0     0.000000000000     0.00000000     0.00000000
 C      1   0   0     2.263305440439     0.00000000     0.00000000
 C      2   1   0     2.505614985969   130.19611143     0.00000000
 C      3   2   1     2.811035784564   124.22544736   180.00902476
 C      4   3   2     2.505610350135   124.22538601     0.00000000
 C      5   4   3     2.772290430623   111.99237852     0.00000000
 C      6   5   4     2.546594948309   123.78243320     0.00000000
 H      3   2   1     2.052072498429   118.34139730     0.00000000
 H      4   3   2     2.052083489739   117.43305105   179.99632663
 H      6   5   4     2.054113812164   118.22703305   180.00426016
 H      7   6   5     2.054116266308   117.99147867   179.99882278
 O      5   4   3     2.263315402943   130.19611539   179.99832341

---------------------
BASIS SET INFORMATION
---------------------
There are 3 groups of distinct atoms

 Group   1 Type O   : 10s4p1d contracted to 3s2p1d pattern {631/31/1}
 Group   2 Type C   : 10s4p1d contracted to 3s2p1d pattern {631/31/1}
 Group   3 Type H   : 4s contracted to 2s pattern {31}

Atom   0O    basis set group =>   1
Atom   1C    basis set group =>   2
Atom   2C    basis set group =>   2
Atom   3C    basis set group =>   2
Atom   4C    basis set group =>   2
Atom   5C    basis set group =>   2
Atom   6C    basis set group =>   2
Atom   7H    basis set group =>   3
Atom   8H    basis set group =>   3
Atom   9H    basis set group =>   3
Atom  10H    basis set group =>   3
Atom  11O    basis set group =>   1

-------------------------
BASIS SET IN INPUT FORMAT
-------------------------

 # Basis set for element : H 
 NewGTO H 
 S 3 
   1      18.7311370000      0.0334945995
   2       2.8253937000      0.2347269467
   3       0.6401217000      0.8137573184
 S 1 
   1       0.1612778000      1.0000000000
  end;

 # Basis set for element : C 
 NewGTO C 
 S 6 
   1    3047.5249000000      0.0018347002
   2     457.3695100000      0.0140373012
   3     103.9486900000      0.0688426061
   4      29.2101550000      0.2321844206
   5       9.2866630000      0.4679413416
   6       3.1639270000      0.3623120322
 S 3 
   1       7.8682724000     -0.1193324086
   2       1.8812885000     -0.1608542116
   3       0.5442493000      1.1434564826
 P 3 
   1       7.8682724000      0.0689990956
   2       1.8812885000      0.3164239798
   3       0.5442493000      0.7443082524
 S 1 
   1       0.1687144000      1.0000000000
 P 1 
   1       0.1687144000      1.0000000000
 D 1 
   1       0.8000000000      1.0000000000
  end;

 # Basis set for element : O 
 NewGTO O 
 S 6 
   1    5484.6717000000      0.0018310998
   2     825.2349500000      0.0139500985
   3     188.0469600000      0.0684450927
   4      52.9645000000      0.2327142753
   5      16.8975700000      0.4701929501
   6       5.7996353000      0.3585208619
 S 3 
   1      15.5396160000     -0.1107775038
   2       3.5999336000     -0.1480263051
   3       1.0137618000      1.1307670390
 P 3 
   1      15.5396160000      0.0708742995
   2       3.5999336000      0.3397527978
   3       1.0137618000      0.7271585953
 S 1 
   1       0.2700058000      1.0000000000
 P 1 
   1       0.2700058000      1.0000000000
 D 1 
   1       0.8000000000      1.0000000000
  end;

------------------------------------------------------------------------------
                           ORCA GTO INTEGRAL CALCULATION
------------------------------------------------------------------------------

                         BASIS SET STATISTICS AND STARTUP INFO

 # of primitive gaussian shells          ...  136
 # of primitive gaussian functions       ...  232
 # of contracted shells                  ...   56
 # of contracted basis functions         ...  120
 Highest angular momentum                ...    2
 Maximum contraction depth               ...    6
 Integral package used                   ... LIBINT
 Integral threshhold            Thresh   ...  2.500e-11
 Primitive cut-off              TCut     ...  2.500e-12


------------------------------ INTEGRAL EVALUATION ----------------------------


 * One electron integrals 
 Pre-screening matrix                    ... done
 Shell pair data                         ... done (   0.002 sec)

-------------------------------------------------------------------------------
                                 ORCA SCF
-------------------------------------------------------------------------------

------------
SCF SETTINGS
------------
Hamiltonian:
 Density Functional     Method          .... DFT(GTOs)
 Exchange Functional    Exchange        .... B88
   X-Alpha parameter    XAlpha          ....  0.666667
   Becke's b parameter  XBeta           ....  0.004200
 Correlation Functional Correlation     .... LYP
 LDA part of GGA corr.  LDAOpt          .... VWN-5
 Gradients option       PostSCFGGA      .... off
 Hybrid DFT is turned on
   Fraction HF Exchange ScalHFX         ....  0.200000
   Scaling of DF-GGA-X  ScalDFX         ....  0.720000
   Scaling of DF-GGA-C  ScalDFC         ....  0.810000
   Scaling of DF-LDA-C  ScalLDAC        ....  1.000000
   Perturbative correction              ....  0.000000
   Density functional embedding theory  .... OFF
   NL short-range parameter             ....  4.800000


General Settings:
 Integral files         IntName         .... /Users/lailaal-madhagi/Desktop/Testing_XAS_Analysis_code/1-4_Benzoquinone//Results_dir_Benzoquinone_geom_element_O_2019-11-13_07-56-29//GTE1_Benzoquinone_geom_2019-11-13_07-56-47//opt
 Hartree-Fock type      HFTyp           .... RHF
 Total Charge           Charge          ....    0
 Multiplicity           Mult            ....    1
 Number of Electrons    NEL             ....   56
 Basis Dimension        Dim             ....  120
 Nuclear Repulsion      ENuc            ....    328.5751794996 Eh

Convergence Acceleration:
 DIIS                   CNVDIIS         .... on
   Start iteration      DIISMaxIt       ....    12
   Startup error        DIISStart       ....  0.200000
   # of expansion vecs  DIISMaxEq       ....     5
   Bias factor          DIISBfac        ....   1.050
   Max. coefficient     DIISMaxC        ....  10.000
 Newton-Raphson         CNVNR           .... off
 SOSCF                  CNVSOSCF        .... on
   Start iteration      SOSCFMaxIt      ....   150
   Startup grad/error   SOSCFStart      ....  0.003300
 Level Shifting         CNVShift        .... on
   Level shift para.    LevelShift      ....    0.2500
   Turn off err/grad.   ShiftErr        ....    0.0010
 Zerner damping         CNVZerner       .... off
 Static damping         CNVDamp         .... on
   Fraction old density DampFac         ....    0.7000
   Max. Damping (<1)    DampMax         ....    0.9800
   Min. Damping (>=0)   DampMin         ....    0.0000
   Turn off err/grad.   DampErr         ....    0.1000
 Fernandez-Rico         CNVRico         .... off

SCF Procedure:
 Maximum # iterations   MaxIter         ....   125
 SCF integral mode      SCFMode         .... Direct
   Integral package                     .... LIBINT
 Reset frequency        DirectResetFreq ....    20
 Integral Threshold     Thresh          ....  2.500e-11 Eh
 Primitive CutOff       TCut            ....  2.500e-12 Eh

Convergence Tolerance:
 Convergence Check Mode ConvCheckMode   .... Total+1el-Energy
 Convergence forced     ConvForced      .... 0
 Energy Change          TolE            ....  1.000e-08 Eh
 1-El. energy change                    ....  1.000e-05 Eh
 Orbital Gradient       TolG            ....  1.000e-05
 Orbital Rotation angle TolX            ....  1.000e-05
 DIIS Error             TolErr          ....  5.000e-07


Diagonalization of the overlap matrix:
Smallest eigenvalue                        ... 5.678e-04
Time for diagonalization                   ...    0.003 sec
Threshold for overlap eigenvalues          ... 1.000e-08
Number of eigenvalues below threshold      ... 0
Time for construction of square roots      ...    0.001 sec
Total time needed                          ...    0.005 sec

-------------------
DFT GRID GENERATION
-------------------

General Integration Accuracy     IntAcc      ...  4.340
Radial Grid Type                 RadialGrid  ... Gauss-Chebyshev
Angular Grid (max. acc.)         AngularGrid ... Lebedev-194
Angular grid pruning method      GridPruning ... 3 (G Style)
Weight generation scheme         WeightScheme... Becke
Basis function cutoff            BFCut       ...    1.0000e-11
Integration weight cutoff        WCut        ...    1.0000e-14
Grids for H and He will be reduced by one unit

# of grid points (after initial pruning)     ...  32480 (   0.0 sec)
# of grid points (after weights+screening)   ...  30363 (   0.0 sec)
nearest neighbour list constructed           ...    0.0 sec
Grid point re-assignment to atoms done       ...    0.0 sec
Grid point division into batches done        ...    0.1 sec
Reduced shell lists constructed in    0.2 sec

Total number of grid points                  ...    30363
Total number of batches                      ...      482
Average number of points per batch           ...       62
Average number of grid points per atom       ...     2530
Average number of shells per batch           ...    39.62 (70.75%)
Average number of basis functions per batch  ...    87.73 (73.11%)
Average number of large shells per batch     ...    31.72 (80.05%)
Average number of large basis fcns per batch ...    69.89 (79.67%)
Maximum spatial batch extension              ...  19.78, 17.60, 19.85 au
Average spatial batch extension              ...   3.46,  3.21,  3.82 au

Time for grid setup =    0.266 sec

------------------------------
INITIAL GUESS: MODEL POTENTIAL
------------------------------
Loading Hartree-Fock densities                     ... done
Calculating cut-offs                               ... done
Setting up the integral package                    ... done
Initializing the effective Hamiltonian             ... done
Starting the Coulomb interaction                   ... done (   0.0 sec)
Reading the grid                                   ... done
Mapping shells                                     ... done
Starting the XC term evaluation                    ... done (   0.2 sec)
  promolecular density results
     # of electrons  =     55.997233506
     EX              =    -48.453235433
     EC              =     -1.931874823
     EX+EC           =    -50.385110256
Transforming the Hamiltonian                       ... done (   0.0 sec)
Diagonalizing the Hamiltonian                      ... done (   0.0 sec)
Back transforming the eigenvectors                 ... done (   0.0 sec)
Now organizing SCF variables                       ... done
                      ------------------
                      INITIAL GUESS DONE (   0.6 sec)
                      ------------------
--------------
SCF ITERATIONS
--------------
               ***  Starting incremental Fock matrix formation  ***

                         ----------------------------
                         !        ITERATION     0   !
                         ----------------------------
   Total Energy        :    -380.993625339976 Eh
   Energy Change       :    -380.993625339976 Eh
   MAX-DP              :       0.081124789517
   RMS-DP              :       0.003521768454
   Actual Damping      :       0.7000
   Actual Level Shift  :       0.2500 Eh
   Int. Num. El.       :    55.99948675 (UP=   27.99974338 DN=   27.99974338)
   Exchange            :   -39.60557417
   Correlation         :    -2.29927511


                         ----------------------------
                         !        ITERATION     1   !
                         ----------------------------
   Total Energy        :    -381.075368722175 Eh
   Energy Change       :      -0.081743382200 Eh
   MAX-DP              :       0.049680816797
   RMS-DP              :       0.002260422578
   Actual Damping      :       0.7000
   Actual Level Shift  :       0.2500 Eh
   Int. Num. El.       :    55.99940319 (UP=   27.99970160 DN=   27.99970160)
   Exchange            :   -39.33102084
   Correlation         :    -2.29068499

                               ***Turning on DIIS***

                         ----------------------------
                         !        ITERATION     2   !
                         ----------------------------
   Total Energy        :    -381.106608610428 Eh
   Energy Change       :      -0.031239888253 Eh
   MAX-DP              :       0.051242280078
   RMS-DP              :       0.003153095368
   Actual Damping      :       0.0000
   Actual Level Shift  :       0.2500 Eh
   Int. Num. El.       :    55.99933966 (UP=   27.99966983 DN=   27.99966983)
   Exchange            :   -39.16140475
   Correlation         :    -2.28482016
   DIIS-Error          :       0.030990631878


                         ----------------------------
                         !        ITERATION     3   !
                         ----------------------------
   Total Energy        :    -381.161147642206 Eh
   Energy Change       :      -0.054539031778 Eh
   MAX-DP              :       0.040910080465
   RMS-DP              :       0.001725427500
   Actual Damping      :       0.0000
   Actual Level Shift  :       0.2500 Eh
   Int. Num. El.       :    55.99922339 (UP=   27.99961169 DN=   27.99961169)
   Exchange            :   -38.92469415
   Correlation         :    -2.27527509
   DIIS-Error          :       0.042496107712
   DIIS coefficients:
      0.50533   0.49467


                         ----------------------------
                         !        ITERATION     4   !
                         ----------------------------
   Total Energy        :    -381.169240349900 Eh
   Energy Change       :      -0.008092707694 Eh
   MAX-DP              :       0.008120971305
   RMS-DP              :       0.000429532319
   Actual Damping      :       0.0000
   Actual Level Shift  :       0.2500 Eh
   Int. Num. El.       :    55.99926005 (UP=   27.99963003 DN=   27.99963003)
   Exchange            :   -39.03618153
   Correlation         :    -2.27914678
   DIIS-Error          :       0.012484836013
   DIIS coefficients:
      0.25809   0.19147   0.55043

                      *** Initiating the SOSCF procedure ***
                           *** Shutting down DIIS ***
                      *** Re-Reading the Fockian *** 
                      *** Removing any level shift *** 

                         ----------------------------
                         !        ITERATION     5   !
                         ----------------------------
   Total Energy        :    -381.170357925656 Eh
   Energy Change       :      -0.001117575756 Eh
   MAX-DP              :       0.002487202364
   RMS-DP              :       0.000104617025
   Orbital gradient    :       0.000670864724
   Orbital Rotation    :       0.000670864724
   Actual Damping      :       0.0000
   Int. Num. El.       :    55.99927023 (UP=   27.99963511 DN=   27.99963511)
   Exchange            :   -39.04134387
   Correlation         :    -2.27977992

               *** Restarting incremental Fock matrix formation ***

                         ----------------------------
                         !        ITERATION     6   !
                         ----------------------------
   Total Energy        :    -381.170377404278 Eh
   Energy Change       :      -0.000019478622 Eh
   MAX-DP              :       0.000965513534
   RMS-DP              :       0.000048210228
   Orbital gradient    :       0.000223637042
   Orbital Rotation    :       0.000653231167
   Actual Damping      :       0.0000
   Int. Num. El.       :    55.99927249 (UP=   27.99963625 DN=   27.99963625)
   Exchange            :   -39.04489600
   Correlation         :    -2.27990896


                         ----------------------------
                         !        ITERATION     7   !
                         ----------------------------
   Total Energy        :    -381.170378468588 Eh
   Energy Change       :      -0.000001064310 Eh
   MAX-DP              :       0.000649584297
   RMS-DP              :       0.000021000700
   Orbital gradient    :       0.000151808380
   Orbital Rotation    :       0.000511149335
   Actual Damping      :       0.0000
   Int. Num. El.       :    55.99927302 (UP=   27.99963651 DN=   27.99963651)
   Exchange            :   -39.04471577
   Correlation         :    -2.27990893


                         ----------------------------
                         !        ITERATION     8   !
                         ----------------------------
   Total Energy        :    -381.170379066759 Eh
   Energy Change       :      -0.000000598171 Eh
   MAX-DP              :       0.000326743918
   RMS-DP              :       0.000014448451
   Orbital gradient    :       0.000160717216
   Orbital Rotation    :       0.000407657262
   Actual Damping      :       0.0000
   Int. Num. El.       :    55.99927305 (UP=   27.99963653 DN=   27.99963653)
   Exchange            :   -39.04509416
   Correlation         :    -2.27991451


                         ----------------------------
                         !        ITERATION     9   !
                         ----------------------------
   Total Energy        :    -381.170379050058 Eh
   Energy Change       :       0.000000016701 Eh
   MAX-DP              :       0.000106093405
   RMS-DP              :       0.000006292475
   Orbital gradient    :       0.000119297199
   Orbital Rotation    :       0.000106637323
   Actual Damping      :       0.0000
   Int. Num. El.       :    55.99927294 (UP=   27.99963647 DN=   27.99963647)
   Exchange            :   -39.04478397
   Correlation         :    -2.27991006


                         ----------------------------
                         !        ITERATION    10   !
                         ----------------------------
   Total Energy        :    -381.170379223075 Eh
   Energy Change       :      -0.000000173018 Eh
   MAX-DP              :       0.000097196312
   RMS-DP              :       0.000003499601
   Orbital gradient    :       0.000012216267
   Orbital Rotation    :       0.000054197508
   Actual Damping      :       0.0000
   Int. Num. El.       :    55.99927295 (UP=   27.99963648 DN=   27.99963648)
   Exchange            :   -39.04491476
   Correlation         :    -2.27991198


                         ----------------------------
                         !        ITERATION    11   !
                         ----------------------------
   Total Energy        :    -381.170379227834 Eh
   Energy Change       :      -0.000000004758 Eh
   MAX-DP              :       0.000030585357
   RMS-DP              :       0.000001176805
   Orbital gradient    :       0.000015589743
   Orbital Rotation    :       0.000064369858
   Actual Damping      :       0.0000
   Int. Num. El.       :    55.99927297 (UP=   27.99963649 DN=   27.99963649)
   Exchange            :   -39.04491372
   Correlation         :    -2.27991153


                         ----------------------------
                         !        ITERATION    12   !
                         ----------------------------
   Total Energy        :    -381.170379225709 Eh
   Energy Change       :       0.000000002124 Eh
   MAX-DP              :       0.000042297752
   RMS-DP              :       0.000001512792
   Orbital gradient    :       0.000025380773
   Orbital Rotation    :       0.000039985482
   Actual Damping      :       0.0000
   Int. Num. El.       :    55.99927297 (UP=   27.99963649 DN=   27.99963649)
   Exchange            :   -39.04491783
   Correlation         :    -2.27991183

                  ***Gradient check signals convergence***
              ***Rediagonalizing the Fockian in SOSCF/NRSCF***

               *****************************************************
               *                     SUCCESS                       *
               *           SCF CONVERGED AFTER  13 CYCLES          *
               *****************************************************

Setting up the final grid:

General Integration Accuracy     IntAcc      ...  5.010
Radial Grid Type                 RadialGrid  ... Gauss-Chebyshev
Angular Grid (max. acc.)         AngularGrid ... Lebedev-434
Angular grid pruning method      GridPruning ... 3 (G Style)
Weight generation scheme         WeightScheme... Becke
Basis function cutoff            BFCut       ...    1.0000e-11
Integration weight cutoff        WCut        ...    1.0000e-14
Grids for H and He will be reduced by one unit

# of grid points (after initial pruning)     ... 112640 (   0.0 sec)
# of grid points (after weights+screening)   ... 104574 (   0.1 sec)
nearest neighbour list constructed           ...    0.0 sec
Grid point re-assignment to atoms done       ...    0.0 sec
Grid point division into batches done        ...    0.7 sec
Reduced shell lists constructed in    1.1 sec

Total number of grid points                  ...   104574
Total number of batches                      ...     1639
Average number of points per batch           ...       63
Average number of grid points per atom       ...     8714
Average number of shells per batch           ...    36.74 (65.60%)
Average number of basis functions per batch  ...    81.06 (67.55%)
Average number of large shells per batch     ...    28.85 (78.53%)
Average number of large basis fcns per batch ...    63.38 (78.18%)
Maximum spatial batch extension              ...  24.78, 21.55, 28.56 au
Average spatial batch extension              ...   2.32,  2.22,  2.45 au

Final grid set up in    1.3 sec
Final integration                            ... done (   0.8 sec)
Change in XC energy                          ...    -0.000119022
Integrated number of electrons               ...    55.999998193
Previous integrated no of electrons          ...    55.999272967

----------------
TOTAL SCF ENERGY
----------------

Total Energy       :         -381.17049825 Eh          -10372.17657 eV

Components:
Nuclear Repulsion  :          328.57517950 Eh            8940.98519 eV
Electronic Energy  :         -709.74567775 Eh          -19313.16175 eV
One Electron Energy:        -1168.29850123 Eh          -31791.01844 eV
Two Electron Energy:          458.55282348 Eh           12477.85669 eV

Virial components:
Potential Energy   :         -760.92357960 Eh          -20705.78326 eV
Kinetic Energy     :          379.75308135 Eh           10333.60669 eV
Virial Ratio       :            2.00373247


DFT components:
N(Alpha)           :       27.999999096449 electrons
N(Beta)            :       27.999999096449 electrons
N(Total)           :       55.999998192898 electrons
E(X)               :      -39.045067831033 Eh       
E(C)               :       -2.279883668037 Eh       
E(XC)              :      -41.324951499070 Eh       
DFET-embed. en.    :        0.000000000000 Eh       

---------------
SCF CONVERGENCE
---------------

  Last Energy change         ...   -4.1129e-09  Tolerance :   1.0000e-08
  Last MAX-Density change    ...    8.8676e-06  Tolerance :   1.0000e-07
  Last RMS-Density change    ...    3.8015e-07  Tolerance :   5.0000e-09
  Last Orbital Gradient      ...    2.1555e-06  Tolerance :   1.0000e-05
  Last Orbital Rotation      ...    6.7045e-06  Tolerance :   1.0000e-05

             **** THE GBW FILE WAS UPDATED (/Users/lailaal-madhagi/Desktop/Testing_XAS_Analysis_code/1-4_Benzoquinone//Results_dir_Benzoquinone_geom_element_O_2019-11-13_07-56-29//GTE1_Benzoquinone_geom_2019-11-13_07-56-47//opt.gbw) ****
             **** DENSITY FILE WAS UPDATED (/Users/lailaal-madhagi/Desktop/Testing_XAS_Analysis_code/1-4_Benzoquinone//Results_dir_Benzoquinone_geom_element_O_2019-11-13_07-56-29//GTE1_Benzoquinone_geom_2019-11-13_07-56-47//opt.scfp.tmp) ****
             **** ENERGY FILE WAS UPDATED (/Users/lailaal-madhagi/Desktop/Testing_XAS_Analysis_code/1-4_Benzoquinone//Results_dir_Benzoquinone_geom_element_O_2019-11-13_07-56-29//GTE1_Benzoquinone_geom_2019-11-13_07-56-47//opt.en.tmp) ****
----------------
ORBITAL ENERGIES
----------------

  NO   OCC          E(Eh)            E(eV) 
   0   2.0000     -19.159658      -521.3608 
   1   2.0000     -19.159644      -521.3604 
   2   2.0000     -10.274888      -279.5939 
   3   2.0000     -10.274863      -279.5932 
   4   2.0000     -10.235165      -278.5130 
   5   2.0000     -10.234963      -278.5075 
   6   2.0000     -10.200262      -277.5632 
   7   2.0000     -10.199582      -277.5447 
   8   2.0000      -1.076045       -29.2807 
   9   2.0000      -1.074028       -29.2258 
  10   2.0000      -0.875201       -23.8154 
  11   2.0000      -0.774780       -21.0828 
  12   2.0000      -0.758230       -20.6325 
  13   2.0000      -0.644765       -17.5450 
  14   2.0000      -0.603839       -16.4313 
  15   2.0000      -0.525937       -14.3115 
  16   2.0000      -0.502036       -13.6611 
  17   2.0000      -0.482870       -13.1396 
  18   2.0000      -0.457177       -12.4404 
  19   2.0000      -0.456806       -12.4303 
  20   2.0000      -0.438815       -11.9408 
  21   2.0000      -0.424767       -11.5585 
  22   2.0000      -0.410503       -11.1703 
  23   2.0000      -0.398763       -10.8509 
  24   2.0000      -0.300420        -8.1749 
  25   2.0000      -0.282894        -7.6979 
  26   2.0000      -0.274747        -7.4762 
  27   2.0000      -0.270439        -7.3590 
  28   0.0000      -0.153861        -4.1868 
  29   0.0000      -0.026316        -0.7161 
  30   0.0000       0.042002         1.1429 
  31   0.0000       0.088268         2.4019 
  32   0.0000       0.127425         3.4674 
  33   0.0000       0.152337         4.1453 
  34   0.0000       0.163121         4.4388 
  35   0.0000       0.174810         4.7568 
  36   0.0000       0.206472         5.6184 
  37   0.0000       0.228268         6.2115 
  38   0.0000       0.283344         7.7102 
  39   0.0000       0.326143         8.8748 
  40   0.0000       0.331972         9.0334 
  41   0.0000       0.386920        10.5286 
  42   0.0000       0.441823        12.0226 
  43   0.0000       0.479012        13.0346 
  44   0.0000       0.503987        13.7142 
  45   0.0000       0.519105        14.1256 
  46   0.0000       0.549915        14.9639 
  47   0.0000       0.562956        15.3188 
  48   0.0000       0.566750        15.4221 
  49   0.0000       0.590899        16.0792 
  50   0.0000       0.618344        16.8260 
  51   0.0000       0.635502        17.2929 
  52   0.0000       0.643706        17.5161 
  53   0.0000       0.652711        17.7612 
  54   0.0000       0.678203        18.4549 
  55   0.0000       0.711919        19.3723 
  56   0.0000       0.743909        20.2428 
  57   0.0000       0.758756        20.6468 
  58   0.0000       0.787975        21.4419 
  59   0.0000       0.808190        21.9920 
  60   0.0000       0.842142        22.9159 
  61   0.0000       0.852978        23.2107 
  62   0.0000       0.889275        24.1984 
  63   0.0000       0.906052        24.6549 
  64   0.0000       0.923591        25.1322 
  65   0.0000       0.959020        26.0963 
  66   0.0000       0.988349        26.8943 
  67   0.0000       0.991500        26.9801 
  68   0.0000       1.009038        27.4573 
  69   0.0000       1.015017        27.6200 
  70   0.0000       1.048373        28.5277 
  71   0.0000       1.129865        30.7452 
  72   0.0000       1.149258        31.2729 
  73   0.0000       1.198848        32.6223 
  74   0.0000       1.203519        32.7494 
  75   0.0000       1.256174        34.1822 
  76   0.0000       1.256516        34.1915 
  77   0.0000       1.352411        36.8010 
  78   0.0000       1.399865        38.0923 
  79   0.0000       1.418001        38.5858 
  80   0.0000       1.431179        38.9444 
  81   0.0000       1.452740        39.5311 
  82   0.0000       1.495999        40.7082 
  83   0.0000       1.614839        43.9420 
  84   0.0000       1.677235        45.6399 
  85   0.0000       1.749917        47.6177 
  86   0.0000       1.753072        47.7035 
  87   0.0000       1.806426        49.1553 
  88   0.0000       1.820128        49.5282 
  89   0.0000       1.846939        50.2578 
  90   0.0000       1.872453        50.9520 
  91   0.0000       1.884789        51.2877 
  92   0.0000       1.889201        51.4078 
  93   0.0000       1.932603        52.5888 
  94   0.0000       1.949712        53.0544 
  95   0.0000       1.991156        54.1821 
  96   0.0000       2.018069        54.9145 
  97   0.0000       2.020667        54.9852 
  98   0.0000       2.088254        56.8243 
  99   0.0000       2.091381        56.9094 
 100   0.0000       2.094006        56.9808 
 101   0.0000       2.142029        58.2876 
 102   0.0000       2.291001        62.3413 
 103   0.0000       2.292637        62.3858 
 104   0.0000       2.318373        63.0861 
 105   0.0000       2.373008        64.5728 
 106   0.0000       2.511253        68.3347 
 107   0.0000       2.538015        69.0629 
 108   0.0000       2.597970        70.6944 
 109   0.0000       2.642537        71.9071 
 110   0.0000       2.704435        73.5914 
 111   0.0000       2.717692        73.9522 
 112   0.0000       2.766747        75.2870 
 113   0.0000       2.801053        76.2205 
 114   0.0000       2.839461        77.2657 
 115   0.0000       2.979830        81.0853 
 116   0.0000       3.044634        82.8487 
 117   0.0000       3.094945        84.2177 
 118   0.0000       3.279111        89.2292 
 119   0.0000       3.409522        92.7778 
------------------
MOLECULAR ORBITALS
------------------
                      0         1         2         3         4         5   
                 -19.15966 -19.15964 -10.27489 -10.27486 -10.23517 -10.23496
                   2.00000   2.00000   2.00000   2.00000   2.00000   2.00000
                  --------  --------  --------  --------  --------  --------
  0O   1s        -0.321509  0.941836  0.000027 -0.000017  0.000018  0.000004
  0O   2s        -0.010177  0.029467  0.001244 -0.001599  0.000202  0.000082
  0O   1pz        0.000027 -0.000079  0.000043 -0.000061  0.000024  0.000000
  0O   1px       -0.000384  0.001144 -0.000386  0.000582 -0.000048 -0.000001
  0O   1py       -0.000640  0.001908 -0.000587  0.000897 -0.000010 -0.000001
  0O   3s         0.010262 -0.027152 -0.009760  0.012571 -0.000550 -0.000331
  0O   2pz       -0.000095  0.000328  0.000242 -0.000407  0.000097  0.000223
  0O   2px        0.001285 -0.003864 -0.002070  0.003222 -0.000270 -0.000118
  0O   2py        0.002122 -0.006231 -0.003108  0.004732 -0.000178  0.000549
  0O   1dz2       0.000015  0.000033  0.000565 -0.000939  0.000127  0.000034
  0O   1dxz       0.000039 -0.000080  0.000126 -0.000237  0.000110  0.000121
  0O   1dyz      -0.000015  0.000045  0.000093 -0.000141  0.000003 -0.000014
  0O   1dx2y2    -0.000015  0.000082  0.000331 -0.000531 -0.000000 -0.000088
  0O   1dxy       0.000008 -0.000124 -0.000879  0.001436 -0.000153  0.000003
  1C   1s        -0.000194  0.000408  0.525927 -0.844867  0.006700  0.007280
  1C   2s        -0.001084  0.001891  0.021658 -0.033492  0.002178  0.002294
  1C   1pz        0.000028 -0.000012  0.000183 -0.000350  0.000499  0.000504
  1C   1px       -0.000112  0.000197 -0.000565  0.001062 -0.000283 -0.000329
  1C   1py       -0.000117  0.000335 -0.000443  0.000813  0.001193  0.001122
  1C   3s         0.004969  0.002001 -0.020107  0.020688 -0.004785 -0.014987
  1C   2pz       -0.000460  0.000547  0.000235 -0.000089 -0.000893 -0.001417
  1C   2px        0.005592 -0.010134 -0.007866  0.008039  0.000474 -0.000957
  1C   2py        0.009067 -0.017430 -0.014187  0.015024 -0.002196 -0.006745
  1C   1dz2      -0.000204  0.000484 -0.000712  0.001184 -0.000345 -0.000261
  1C   1dxz       0.000003 -0.000126 -0.000144  0.000335 -0.000096 -0.000257
  1C   1dyz      -0.000004  0.000105  0.000206 -0.000446  0.000576  0.000680
  1C   1dx2y2    -0.000201  0.000521 -0.000730  0.001199 -0.000758 -0.000591
  1C   1dxy       0.000297 -0.000852  0.000727 -0.001057 -0.000222 -0.000514
  2C   1s         0.000076 -0.000054  0.005038 -0.008100 -0.678881 -0.727542
  2C   2s         0.000470 -0.000472 -0.001409  0.002067 -0.023827 -0.028057
  2C   1pz        0.000073 -0.000033  0.000295 -0.000672  0.000396  0.000577
  2C   1px       -0.000164 -0.000070 -0.000037  0.000637 -0.000106 -0.000915
  2C   1py       -0.000060 -0.000249  0.000953 -0.001116  0.001174  0.000257
  2C   3s        -0.012698  0.009820  0.019920 -0.013683  0.013436  0.032757
  2C   2pz        0.003371 -0.003990 -0.004899  0.003882 -0.000509 -0.004550
  2C   2px       -0.006378  0.007204  0.008009 -0.005505 -0.000089  0.007354
  2C   2py       -0.000467 -0.000106 -0.001725  0.002973 -0.001938 -0.001764
  2C   1dz2       0.000037  0.000025  0.000166 -0.000360 -0.000120  0.000675
  2C   1dxz       0.000160 -0.000335  0.000128 -0.000150  0.000128  0.000149
  2C   1dyz      -0.000024  0.000133 -0.000518  0.000724 -0.000514 -0.000304
  2C   1dx2y2    -0.000120  0.000277  0.000494 -0.000848  0.000208  0.000777
  2C   1dxy       0.000024 -0.000293  0.000418 -0.000393  0.000822 -0.000555
  3C   1s        -0.000089  0.000027 -0.008097 -0.005044 -0.727477  0.678950
  3C   2s        -0.000661  0.000083  0.002177  0.001232 -0.025706  0.026346
  3C   1pz       -0.000089 -0.000015 -0.000726 -0.000489  0.000594 -0.000458
  3C   1px        0.000157  0.000144  0.001306  0.000655 -0.001127  0.000362
  3C   1py       -0.000011  0.000223 -0.000028 -0.000447 -0.000088 -0.000900
  3C   3s         0.015535 -0.004042 -0.023915 -0.003480  0.015660 -0.031750
  3C   2pz       -0.003947  0.000079  0.005302  0.001429 -0.001079  0.003802
  3C   2px        0.001939  0.000256 -0.004750 -0.002058  0.001975 -0.003114
  3C   2py       -0.010006  0.000762  0.009344  0.001034  0.000022  0.007258
  3C   1dz2      -0.000054  0.000037 -0.000127 -0.000139 -0.000162 -0.000571
  3C   1dxz      -0.000146 -0.000046 -0.000946 -0.000546  0.000509 -0.000604
  3C   1dyz       0.000327  0.000092  0.000054 -0.000026 -0.000180 -0.000175
  3C   1dx2y2    -0.000188  0.000004  0.000880  0.000496 -0.000563  0.000270
  3C   1dxy      -0.000356 -0.000176 -0.000164  0.000067  0.000595  0.000844
  4C   1s         0.000442  0.000097 -0.844939 -0.525812  0.007187 -0.006801
  4C   2s         0.002159  0.000298 -0.034220 -0.020486  0.002331 -0.002138
  4C   1pz        0.000053  0.000036 -0.000078 -0.000061  0.000686 -0.000586
  4C   1px       -0.000258 -0.000096 -0.000477 -0.000333 -0.001230  0.001019
  4C   1py       -0.000308 -0.000058 -0.001180 -0.000848  0.000036 -0.000090
  4C   3s        -0.001456  0.005155  0.027176  0.009683 -0.005805  0.014621
  4C   2pz       -0.003702 -0.000788  0.004064  0.001604 -0.001339  0.002479
  4C   2px        0.015196  0.002801 -0.015404 -0.005788  0.002523 -0.005810
  4C   2py        0.016144  0.002609 -0.015288 -0.005475  0.000164 -0.002479
  4C   1dz2       0.000448  0.000117  0.001000  0.000641 -0.000199  0.000113
  4C   1dxz       0.000150 -0.000002  0.000957  0.000683 -0.000803  0.000769
  4C   1dyz       0.000326  0.000130  0.000268  0.000117 -0.000037 -0.000142
  4C   1dx2y2    -0.000023 -0.000001 -0.000325 -0.000236  0.000734 -0.000617
  4C   1dxy      -0.000982 -0.000322 -0.001461 -0.000851  0.000089  0.000236
  5C   1s        -0.000070  0.000000 -0.001225 -0.000748  0.000259  0.000095
  5C   2s        -0.000628 -0.000141  0.001366  0.000872  0.000529  0.000196
  5C   1pz        0.000000 -0.000075  0.000187  0.000271  0.000125 -0.000007
  5C   1px       -0.000021  0.000190 -0.000039 -0.000411 -0.000187 -0.000034
  5C   1py       -0.000040  0.000102  0.000575  0.000157  0.000078 -0.000090
  5C   3s         0.010958 -0.004568 -0.018922 -0.000408 -0.000041 -0.004687
  5C   2pz        0.004102 -0.000215 -0.005120 -0.001040 -0.000477 -0.001188
  5C   2px       -0.008078  0.000443  0.009351  0.001277  0.000750  0.002290
  5C   2py       -0.001168  0.000099  0.000065 -0.001174 -0.000226  0.000244
  5C   1dz2      -0.000008 -0.000012 -0.000263 -0.000132  0.000073  0.000014
  5C   1dxz      -0.000286 -0.000079 -0.000038  0.000008  0.000134 -0.000040
  5C   1dyz       0.000055  0.000043  0.000563  0.000244 -0.000058 -0.000001
  5C   1dx2y2     0.000260  0.000037 -0.000731 -0.000361 -0.000024  0.000060
  5C   1dxy      -0.000139 -0.000057 -0.000308 -0.000100  0.000005 -0.000030
  6C   1s         0.000043 -0.000056  0.000769 -0.001213  0.000265 -0.000076
  6C   2s         0.000273 -0.000583 -0.000840  0.001386  0.000541 -0.000159
  6C   1pz       -0.000022 -0.000028 -0.000135  0.000336  0.000111  0.000033
  6C   1px       -0.000060 -0.000006  0.000377 -0.000447 -0.000108 -0.000083
  6C   1py       -0.000192 -0.000110  0.000251  0.000314  0.000180 -0.000043
  6C   3s        -0.010315  0.005878  0.016797 -0.008722 -0.000363  0.004673
  6C   2pz       -0.001875  0.002193  0.003036 -0.002668 -0.000473  0.000824
  6C   2px        0.000444 -0.000562 -0.001203  0.002106  0.000392 -0.000256
  6C   2py       -0.005664  0.006541  0.008247 -0.005246 -0.000893  0.002374
  6C   1dz2       0.000021 -0.000056  0.000071 -0.000099  0.000080  0.000003
  6C   1dxz       0.000006 -0.000096  0.000486 -0.000581  0.000103  0.000002
  6C   1dyz      -0.000102  0.000241  0.000031 -0.000078 -0.000085 -0.000048
  6C   1dx2y2     0.000108 -0.000168 -0.000500  0.000621  0.000042  0.000044
  6C   1dxy       0.000093 -0.000235  0.000007  0.000061  0.000017  0.000054
  7H   1s        -0.000164  0.000348  0.000129 -0.000080  0.000963  0.000799
  7H   2s        -0.001507  0.002452  0.001727 -0.001861 -0.002872 -0.001301
  8H   1s         0.000375  0.000083 -0.000151 -0.000014  0.001016 -0.000730
  8H   2s         0.002862  0.000307 -0.002371 -0.000907 -0.002956  0.001100
  9H   1s         0.000316  0.000079 -0.000143 -0.000045 -0.000042 -0.000075
  9H   2s         0.002474  0.000373 -0.002317 -0.000934 -0.000652 -0.000394
 10H   1s        -0.000131  0.000298  0.000108 -0.000104 -0.000047  0.000072
 10H   2s        -0.001217  0.002186  0.001666 -0.001861 -0.000677  0.000348
 11O   1s         0.941840  0.321498 -0.000032 -0.000004  0.000019 -0.000002
 11O   2s         0.029540  0.009965 -0.001822 -0.000885  0.000207 -0.000067
 11O   1pz        0.000357  0.000124  0.000152  0.000092  0.000016  0.000001
 11O   1px       -0.001490 -0.000518 -0.000712 -0.000423 -0.000001 -0.000001
 11O   1py       -0.001604 -0.000556 -0.000830 -0.000486  0.000053  0.000002
 11O   3s        -0.027760 -0.008483  0.014309  0.006970 -0.000571  0.000292
 11O   2pz       -0.001125 -0.000372  0.000768  0.000433  0.000055 -0.000288
 11O   2px        0.004859  0.001656 -0.003746 -0.002196  0.000066  0.000536
 11O   2py        0.005365  0.001868 -0.004482 -0.002687  0.000319  0.000021
 11O   1dz2       0.000006  0.000028 -0.000900 -0.000581  0.000142 -0.000044
 11O   1dxz      -0.000043 -0.000001 -0.000310 -0.000209  0.000068 -0.000034
 11O   1dyz       0.000088  0.000032 -0.000234 -0.000135 -0.000046  0.000089
 11O   1dx2y2    -0.000026  0.000000 -0.000329 -0.000217  0.000106 -0.000087
 11O   1dxy      -0.000126 -0.000078  0.001469  0.000926 -0.000127 -0.000053
                      6         7         8         9        10        11   
                 -10.20026 -10.19958  -1.07604  -1.07403  -0.87520  -0.77478
                   2.00000   2.00000   2.00000   2.00000   2.00000   2.00000
                  --------  --------  --------  --------  --------  --------
  0O   1s        -0.000009 -0.000006 -0.132911  0.135612 -0.050363  0.000752
  0O   2s        -0.000216  0.000027  0.288625 -0.293999  0.115525 -0.002503
  0O   1pz        0.000020  0.000016 -0.004899  0.004968 -0.002052 -0.016789
  0O   1px       -0.000058  0.000016  0.061012 -0.061993  0.011626  0.022421
  0O   1py       -0.000042  0.000087  0.099334 -0.100966  0.015039 -0.015511
  0O   3s         0.000157  0.000511  0.272399 -0.282156  0.100323  0.003716
  0O   2pz        0.000003 -0.000361 -0.001651  0.001718 -0.001219 -0.006892
  0O   2px        0.000021  0.000747  0.021106 -0.022056 -0.000004  0.009224
  0O   2py        0.000049  0.000172  0.034511 -0.036095 -0.004222 -0.006342
  0O   1dz2      -0.000058  0.000001 -0.003680  0.003771  0.000612  0.000357
  0O   1dxz      -0.000099  0.000081  0.001203 -0.001289  0.000375 -0.001168
  0O   1dyz       0.000070 -0.000114 -0.001400  0.001461 -0.000547 -0.001639
  0O   1dx2y2    -0.000010  0.000014 -0.003691  0.003822  0.000682  0.003148
  0O   1dxy      -0.000031  0.000158  0.007270 -0.007497 -0.000109  0.001096
  1C   1s        -0.001047  0.001108 -0.090490  0.088556  0.058115  0.004996
  1C   2s        -0.001205  0.001154  0.167024 -0.162666 -0.113129 -0.012240
  1C   1pz        0.000384 -0.000301  0.006901 -0.007374 -0.003582 -0.066758
  1C   1px       -0.000708  0.000538 -0.064888  0.069385 -0.068620  0.085531
  1C   1py       -0.000016 -0.000019 -0.099789  0.106722 -0.143301 -0.068585
  1C   3s         0.004176 -0.011464  0.057010 -0.046871 -0.053416  0.007906
  1C   2pz       -0.000803  0.002339 -0.000715  0.000631  0.004124 -0.006765
  1C   2px        0.001577 -0.004933  0.019051 -0.020497 -0.015412  0.015815
  1C   2py        0.000221 -0.001289  0.033839 -0.036877 -0.015121  0.006677
  1C   1dz2       0.000091 -0.000029 -0.010117  0.009860  0.000120  0.000290
  1C   1dxz       0.000663 -0.000651 -0.001477  0.001218  0.004109 -0.004162
  1C   1dyz      -0.000004  0.000075 -0.000941  0.000992 -0.004363 -0.003445
  1C   1dx2y2    -0.000646  0.000629 -0.007459  0.007449 -0.000484  0.008068
  1C   1dxy       0.000072 -0.000241  0.015095 -0.014867  0.006241  0.002456
  2C   1s         0.000138  0.000076 -0.021870  0.015564  0.106433  0.095009
  2C   2s        -0.000568 -0.000054  0.043692 -0.030733 -0.200468 -0.186725
  2C   1pz        0.000146 -0.000047 -0.009407  0.006267  0.036398 -0.002136
  2C   1px       -0.000226 -0.000010  0.004571  0.003379 -0.058307 -0.005492
  2C   1py        0.000075 -0.000183 -0.023930  0.028201  0.015104 -0.017914
  2C   3s        -0.000091  0.003485  0.008585  0.014333 -0.142365 -0.159068
  2C   2pz       -0.000502 -0.000862  0.005841 -0.004620  0.006959 -0.002084
  2C   2px        0.000846  0.001913 -0.011392  0.014409 -0.011288  0.003128
  2C   2py       -0.000130  0.000657 -0.001460  0.011435  0.002667 -0.001206
  2C   1dz2      -0.000085  0.000028 -0.002180  0.001594  0.005375  0.004822
  2C   1dxz      -0.000132  0.000046 -0.000458  0.000059  0.007251  0.003816
  2C   1dyz       0.000045  0.000025  0.001949 -0.002148 -0.003619 -0.000854
  2C   1dx2y2     0.000023 -0.000046 -0.003415  0.003463  0.000516  0.001278
  2C   1dxy       0.000028 -0.000057  0.000652  0.000303 -0.001199 -0.004722
  3C   1s         0.000138 -0.000074 -0.021929 -0.015484  0.106448  0.095066
  3C   2s        -0.000568  0.000046  0.043815  0.030576 -0.200517 -0.186903
  3C   1pz        0.000127  0.000078 -0.012492 -0.010942  0.031162 -0.005547
  3C   1px       -0.000116 -0.000167  0.023043  0.025021 -0.026766  0.015128
  3C   1py        0.000219 -0.000048  0.000588  0.009743  0.057148  0.009633
  3C   3s        -0.000047 -0.003486  0.008472 -0.014400 -0.142321 -0.158698
  3C   2pz       -0.000419  0.000510  0.004153  0.001004  0.005931 -0.001950
  3C   2px        0.000304  0.000183 -0.001175  0.007292 -0.004873  0.001939
  3C   2py       -0.000876  0.002119  0.012195  0.017414  0.011223 -0.003137
  3C   1dz2      -0.000093 -0.000042 -0.001573 -0.000909  0.005506  0.004908
  3C   1dxz      -0.000095  0.000007 -0.003034 -0.002903  0.006696  0.003424
  3C   1dyz       0.000080  0.000028 -0.000505 -0.000579 -0.004151 -0.001227
  3C   1dx2y2    -0.000059 -0.000075  0.002292  0.002870  0.001746  0.002138
  3C   1dxy       0.000009  0.000030  0.001944  0.001125 -0.000920 -0.004519
  4C   1s        -0.001032 -0.001121 -0.090818 -0.088221  0.058126  0.005056
  4C   2s        -0.001190 -0.001170  0.167618  0.162042 -0.113133 -0.012325
  4C   1pz        0.000288  0.000238 -0.016704 -0.017738 -0.034238 -0.066175
  4C   1px       -0.000140 -0.000138  0.077427  0.082197  0.116212  0.081894
  4C   1py        0.000731  0.000564  0.089744  0.095257  0.102892 -0.073506
  4C   3s         0.004028  0.011519  0.057188  0.046657 -0.053399  0.007402
  4C   2pz       -0.000546 -0.001513  0.006943  0.007605 -0.000247 -0.003765
  4C   2px        0.000147 -0.000089 -0.026963 -0.029198  0.010538 -0.002412
  4C   2py       -0.001615 -0.005425 -0.027339 -0.029294  0.019293 -0.017715
  4C   1dz2       0.000224  0.000155 -0.009552 -0.009210 -0.000026 -0.001481
  4C   1dxz       0.000092  0.000136 -0.004012 -0.003791  0.004712  0.003307
  4C   1dyz      -0.000540 -0.000576 -0.003361 -0.003451 -0.003789  0.003673
  4C   1dx2y2     0.000611  0.000527 -0.001877 -0.001704 -0.001824 -0.008495
  4C   1dxy       0.000352  0.000505  0.016417  0.016103  0.005945 -0.001288
  5C   1s         0.698928  0.708347 -0.018890 -0.012620  0.080979 -0.127082
  5C   2s         0.023927  0.027887  0.037308  0.023468 -0.150670  0.245286
  5C   1pz        0.000150  0.000444  0.008273  0.005020 -0.028336  0.000417
  5C   1px        0.000142 -0.001366 -0.005280  0.003149  0.055803 -0.036921
  5C   1py        0.000791 -0.001066  0.018655  0.023445  0.008093 -0.069009
  5C   3s        -0.012689 -0.032054  0.014506 -0.010768 -0.095163  0.185757
  5C   2pz       -0.000448 -0.004071 -0.004598 -0.002194 -0.006381 -0.005277
  5C   2px        0.000051  0.007187  0.010715  0.012142  0.012387  0.005941
  5C   2py       -0.001458 -0.000424  0.004494  0.015539  0.001452 -0.006912
  5C   1dz2       0.000108 -0.000820 -0.001866 -0.001443  0.004145 -0.006277
  5C   1dxz      -0.000062 -0.000190 -0.000772 -0.000431  0.006027 -0.005529
  5C   1dyz       0.000199 -0.000024  0.002103  0.002359 -0.002830  0.000546
  5C   1dx2y2    -0.000005 -0.000573 -0.002896 -0.003093 -0.000052 -0.000518
  5C   1dxy      -0.000409  0.001140 -0.000074 -0.000882 -0.000747  0.006649
  6C   1s         0.708138 -0.699140 -0.018843  0.012691  0.080976 -0.127109
  6C   2s         0.024289 -0.027571  0.037232 -0.023615 -0.150703  0.245395
  6C   1pz        0.000290 -0.000101  0.010392 -0.009029 -0.019893 -0.014838
  6C   1px       -0.000685 -0.000684 -0.018197  0.020866  0.004931  0.055050
  6C   1py       -0.000301 -0.001657  0.001380  0.008450 -0.059683  0.053560
  6C   3s        -0.013104  0.031885  0.014529  0.010751 -0.095027  0.185431
  6C   2pz       -0.000704  0.003198 -0.002540 -0.001724 -0.004528 -0.005583
  6C   2px        0.001373 -0.001960 -0.001669  0.011551  0.001332  0.007697
  6C   2py        0.000175  0.007365 -0.012030  0.016067 -0.013144 -0.004796
  6C   1dz2       0.000119  0.000776 -0.001322  0.000819  0.004330 -0.006651
  6C   1dxz      -0.000156  0.000379 -0.003037  0.003091  0.005232 -0.003929
  6C   1dyz       0.000111  0.000208 -0.000074  0.000173 -0.003586  0.002072
  6C   1dx2y2     0.000191  0.000153  0.002153 -0.002799  0.001704 -0.004060
  6C   1dxy      -0.000348 -0.001240  0.001071 -0.000455 -0.000347  0.005843
  7H   1s         0.000047  0.000072  0.006776 -0.005941 -0.039388 -0.061539
  7H   2s         0.000690  0.000239 -0.004366  0.001296 -0.004402 -0.011276
  8H   1s         0.000047 -0.000072  0.006799  0.005917 -0.039401 -0.061577
  8H   2s         0.000693 -0.000230 -0.004357 -0.001265 -0.004469 -0.011274
  9H   1s        -0.000977 -0.000808  0.005585  0.004965 -0.027087  0.071999
  9H   2s         0.002886  0.001456 -0.004291 -0.000437 -0.004250  0.011041
 10H   1s        -0.000987  0.000795  0.005568 -0.004988 -0.027090  0.072019
 10H   2s         0.002905 -0.001418 -0.004279  0.000444 -0.004245  0.011052
 11O   1s        -0.000009  0.000006 -0.133412 -0.135118 -0.050369  0.000716
 11O   2s        -0.000216 -0.000030  0.289707  0.292924  0.115547 -0.002412
 11O   1pz        0.000006 -0.000032  0.018145  0.018315  0.001732 -0.016255
 11O   1px        0.000025  0.000077 -0.077862 -0.078561 -0.011216  0.019186
 11O   1py        0.000069  0.000037 -0.085581 -0.086324 -0.015388 -0.019834
 11O   3s         0.000164 -0.000508  0.273461  0.281152  0.100291  0.003741
 11O   2pz        0.000010  0.000238  0.006335  0.006585 -0.001852 -0.006671
 11O   2px       -0.000041 -0.000008 -0.027071 -0.028107  0.003879  0.007859
 11O   2py       -0.000043  0.000813 -0.029660 -0.030769  0.000956 -0.008161
 11O   1dz2      -0.000056  0.000007 -0.003343 -0.003394  0.000497 -0.000332
 11O   1dxz      -0.000103 -0.000121 -0.000276 -0.000251  0.000866  0.001731
 11O   1dyz       0.000064  0.000078 -0.002823 -0.002923 -0.000079  0.001129
 11O   1dx2y2     0.000001  0.000072 -0.000414 -0.000401 -0.000404 -0.003286
 11O   1dxy      -0.000026 -0.000139  0.008044  0.008243 -0.000358 -0.000360
                     12        13        14        15        16        17   
                  -0.75823  -0.64477  -0.60384  -0.52594  -0.50204  -0.48287
                   2.00000   2.00000   2.00000   2.00000   2.00000   2.00000
                  --------  --------  --------  --------  --------  --------
  0O   1s        -0.057427  0.019711 -0.032406 -0.020135 -0.062674 -0.025569
  0O   2s         0.133227 -0.046763  0.076878  0.045645  0.145751  0.060828
  0O   1pz       -0.007481 -0.046887  0.003644 -0.073428  0.050059 -0.005401
  0O   1px        0.006062  0.072111 -0.030204  0.071853 -0.173940 -0.054484
  0O   1py       -0.014406 -0.025216 -0.044958 -0.117796 -0.157829 -0.122883
  0O   3s         0.136584 -0.050577  0.089962  0.076655  0.216410  0.071031
  0O   2pz       -0.003909 -0.024793  0.001166 -0.043577  0.029319 -0.003581
  0O   2px       -0.001403  0.038494 -0.018006  0.045406 -0.094700 -0.030828
  0O   2py       -0.016242 -0.012692 -0.030330 -0.064678 -0.078737 -0.071392
  0O   1dz2       0.002136 -0.000420  0.002836  0.002891  0.006615  0.003664
  0O   1dxz       0.000399 -0.003408  0.000471 -0.003397  0.004054 -0.000682
  0O   1dyz      -0.001319 -0.003849  0.000105 -0.005789  0.002657 -0.000108
  0O   1dx2y2     0.002861  0.006898  0.002174  0.011913 -0.000433  0.004476
  0O   1dxy      -0.001353  0.004173 -0.004025  0.001768 -0.011389 -0.005288
  1C   1s         0.091952 -0.026769  0.076268  0.018134  0.045694  0.060587
  1C   2s        -0.185042  0.055928 -0.161999 -0.038425 -0.102194 -0.126381
  1C   1pz       -0.028400 -0.118163  0.004414 -0.131553  0.049897 -0.013966
  1C   1px       -0.044907  0.175497 -0.051569  0.188659 -0.012613  0.013360
  1C   1py       -0.184206 -0.075436 -0.083050 -0.096755  0.149303 -0.023301
  1C   3s        -0.132558  0.073278 -0.097417 -0.019175 -0.108991 -0.185665
  1C   2pz        0.005971 -0.007845  0.007285 -0.017474  0.010260  0.002899
  1C   2px       -0.022822  0.023915 -0.019738  0.031095 -0.023562 -0.041316
  1C   2py       -0.022773  0.018422 -0.012232 -0.001340 -0.009271 -0.068812
  1C   1dz2      -0.000672  0.000432 -0.000305 -0.001804 -0.001965  0.002438
  1C   1dxz       0.004444 -0.004045 -0.000227  0.002656  0.002525 -0.003630
  1C   1dyz      -0.006483 -0.000810 -0.000310 -0.000913 -0.003754  0.003299
  1C   1dx2y2     0.000296  0.005675  0.000234 -0.003904 -0.001324  0.003435
  1C   1dxy       0.009993 -0.000850  0.000736  0.004443  0.008018 -0.008473
  2C   1s         0.099844  0.058779 -0.050014 -0.010069 -0.002658 -0.044400
  2C   2s        -0.196330 -0.118110  0.103644  0.022485 -0.000261  0.086912
  2C   1pz        0.033881 -0.022210  0.100904 -0.003748 -0.074635  0.114973
  2C   1px        0.011382  0.068744 -0.076756  0.136932  0.127194 -0.168625
  2C   1py        0.139346  0.054059  0.203846  0.248249 -0.016326  0.077167
  2C   3s        -0.154195 -0.127070  0.095884 -0.006220  0.026901  0.183792
  2C   2pz       -0.007312 -0.004889  0.033250 -0.004490 -0.041971  0.013786
  2C   2px        0.022462  0.032621 -0.028433  0.055531  0.064706 -0.022180
  2C   2py        0.017444  0.045215  0.061050  0.090363 -0.022153  0.005516
  2C   1dz2       0.001374  0.001320 -0.002254  0.000553 -0.000258  0.000818
  2C   1dxz       0.004941  0.002620 -0.002750 -0.001422  0.000488 -0.009965
  2C   1dyz      -0.008037 -0.000848 -0.003795 -0.003496 -0.000701 -0.003811
  2C   1dx2y2     0.003179 -0.000843  0.004306  0.005319 -0.000159  0.015385
  2C   1dxy       0.009074 -0.000098  0.006909  0.002951  0.001351  0.000414
  3C   1s        -0.099768 -0.058783 -0.050002 -0.010081 -0.002657  0.044376
  3C   2s         0.196206  0.118159  0.103684  0.022475 -0.000302 -0.086918
  3C   1pz       -0.056531  0.005134  0.121995  0.051684 -0.060715 -0.104861
  3C   1px        0.125242  0.034331 -0.203860 -0.197282  0.043143  0.108056
  3C   1py        0.042661  0.083312  0.034538 -0.196992 -0.128410 -0.158001
  3C   3s         0.153919  0.126923  0.095486 -0.006153  0.027063 -0.183490
  3C   2pz        0.001735 -0.006189  0.038987  0.016442 -0.037061 -0.011771
  3C   2px        0.010985  0.034161 -0.062545 -0.070543  0.034751  0.010108
  3C   2py        0.027069  0.043834  0.016112 -0.077587 -0.062388 -0.021839
  3C   1dz2      -0.000393 -0.001546 -0.003499 -0.000658 -0.000292  0.002377
  3C   1dxz      -0.009039 -0.001658  0.002538  0.003661  0.000606 -0.003514
  3C   1dyz       0.004113  0.001760  0.001247  0.001366 -0.000581 -0.009065
  3C   1dx2y2     0.005939 -0.001281 -0.007415 -0.005976 -0.000435  0.014527
  3C   1dxy      -0.007012 -0.000381  0.004255  0.000394  0.001288  0.006359
  4C   1s        -0.091940  0.026777  0.076264  0.018136  0.045694 -0.060586
  4C   2s         0.185012 -0.055948 -0.161992 -0.038468 -0.102200  0.126379
  4C   1pz        0.062157  0.106965 -0.014897 -0.121877  0.071008  0.015885
  4C   1px       -0.158869 -0.107972  0.064747  0.130416 -0.139702 -0.024259
  4C   1py       -0.087359  0.165405  0.071838 -0.174338 -0.019959  0.008700
  4C   3s         0.132555 -0.073139 -0.097163 -0.019090 -0.109150  0.185550
  4C   2pz        0.000479  0.001980  0.003044 -0.013676  0.005811  0.012847
  4C   2px       -0.015875  0.011564  0.006649  0.008052  0.003293 -0.053810
  4C   2py       -0.028666  0.028898  0.023203 -0.032123  0.026507 -0.058117
  4C   1dz2       0.001158  0.000704 -0.000396 -0.001228 -0.002074 -0.002140
  4C   1dxz      -0.006475 -0.000740  0.000144  0.000238  0.002997  0.002390
  4C   1dyz       0.004543 -0.003753  0.000047 -0.003223 -0.003304 -0.004483
  4C   1dx2y2     0.004216  0.004938 -0.000595  0.001466 -0.002374 -0.000685
  4C   1dxy      -0.008976  0.003252  0.000551  0.005655  0.007778  0.009093
  5C   1s        -0.040430  0.098575 -0.039443  0.012625 -0.004324  0.047385
  5C   2s         0.077545 -0.197193  0.078311 -0.028034  0.002861 -0.093333
  5C   1pz        0.021517  0.000409 -0.072517  0.061490  0.040166  0.075570
  5C   1px       -0.005448 -0.065183  0.048413 -0.020982 -0.155786 -0.126382
  5C   1py        0.064322 -0.122964 -0.159446  0.173503 -0.157771  0.021161
  5C   3s         0.078018 -0.169690  0.076048  0.002796 -0.006529 -0.156085
  5C   2pz        0.004342  0.008749 -0.025339  0.024526  0.025763  0.007206
  5C   2px       -0.014991 -0.041780  0.026435 -0.008464 -0.069407 -0.022617
  5C   2py       -0.013545 -0.049287 -0.037469  0.069019 -0.043027 -0.018137
  5C   1dz2      -0.000678  0.001397 -0.001782  0.000344  0.000041 -0.000552
  5C   1dxz      -0.003283  0.005564 -0.000851  0.000476 -0.000207  0.007384
  5C   1dyz       0.005178 -0.005140 -0.003003  0.000947 -0.002886  0.002471
  5C   1dx2y2    -0.001731 -0.000136  0.001934 -0.001057  0.002901 -0.011030
  5C   1dxy      -0.006173  0.005783  0.005859 -0.001474  0.003317  0.000036
  6C   1s         0.040361 -0.098575 -0.039423  0.012617 -0.004341 -0.047365
  6C   2s        -0.077432  0.197228  0.078295 -0.028023  0.002880  0.093322
  6C   1pz       -0.030607  0.026679 -0.090519  0.085159 -0.003945 -0.062480
  6C   1px        0.060213 -0.098298  0.156897 -0.163708  0.110168  0.047380
  6C   1py        0.008604 -0.094862 -0.014933 -0.016634  0.196505 -0.126643
  6C   3s        -0.077847  0.169607  0.075982  0.002948 -0.006426  0.155929
  6C   2pz       -0.000333  0.004151 -0.027646  0.034001  0.010201 -0.001516
  6C   2px       -0.009127 -0.035907  0.040362 -0.065247  0.024106 -0.011537
  6C   2py       -0.018556 -0.054238 -0.019106 -0.006397  0.081555 -0.027516
  6C   1dz2       0.000091 -0.001244 -0.002477  0.000631 -0.000697 -0.001725
  6C   1dxz       0.005732 -0.006196  0.002098 -0.000751  0.002890  0.002223
  6C   1dyz      -0.002835  0.004531 -0.000189 -0.000224  0.000076  0.006709
  6C   1dx2y2    -0.003716  0.001554 -0.004608  0.001667 -0.003982 -0.010299
  6C   1dxy       0.004945 -0.005457  0.004378 -0.000856  0.001754 -0.004867
  7H   1s        -0.056267 -0.072245  0.109142 -0.031469 -0.078839  0.172305
  7H   2s        -0.000122 -0.025342  0.053627 -0.013866 -0.036212  0.131566
  8H   1s         0.056230  0.072274  0.109149 -0.031468 -0.078890 -0.172351
  8H   2s         0.000196  0.025401  0.053605 -0.013884 -0.036200 -0.131655
  9H   1s         0.018615 -0.093014  0.074072 -0.046607 -0.067750 -0.133854
  9H   2s         0.004697 -0.025992  0.031831 -0.022221 -0.029212 -0.098769
 10H   1s        -0.018577  0.093037  0.074060 -0.046594 -0.067731  0.133954
 10H   2s        -0.004689  0.026057  0.031839 -0.022178 -0.029224  0.098905
 11O   1s         0.057421 -0.019712 -0.032403 -0.020145 -0.062687  0.025577
 11O   2s        -0.133219  0.046772  0.076870  0.045648  0.145784 -0.060842
 11O   1pz        0.008878  0.041411 -0.007101 -0.082052  0.003636  0.031189
 11O   1px       -0.014535 -0.039072  0.034543  0.123908  0.106234 -0.100580
 11O   1py        0.003087  0.069241  0.041267 -0.048470  0.215408 -0.083773
 11O   3s        -0.136557  0.050551  0.089973  0.076791  0.216474 -0.071081
 11O   2pz        0.006550  0.021757 -0.005803 -0.047542  0.005141  0.018475
 11O   2px       -0.014581 -0.020141  0.023846  0.069329  0.051247 -0.058619
 11O   2py       -0.005062  0.037136  0.025372 -0.032810  0.115672 -0.047806
 11O   1dz2      -0.001669  0.002043  0.002643  0.000432  0.007394 -0.003070
 11O   1dxz      -0.002368 -0.003416  0.001287  0.006940  0.000783 -0.001818
 11O   1dyz      -0.000561 -0.002667  0.000884  0.004083 -0.000466 -0.002280
 11O   1dx2y2     0.001507  0.008255  0.000366 -0.011031  0.006842  0.001072
 11O   1dxy       0.002345 -0.000744 -0.004437 -0.003425 -0.009743  0.006548
                     18        19        20        21        22        23   
                  -0.45718  -0.45681  -0.43881  -0.42477  -0.41050  -0.39876
                   2.00000   2.00000   2.00000   2.00000   2.00000   2.00000
                  --------  --------  --------  --------  --------  --------
  0O   1s        -0.000254 -0.060282  0.010534  0.000008  0.025748  0.004886
  0O   2s         0.000595  0.141496 -0.025094 -0.000021 -0.059887 -0.011376
  0O   1pz       -0.198756  0.020364  0.001082 -0.268690  0.018292  0.114928
  0O   1px       -0.110037 -0.186828  0.040316 -0.147609  0.102772 -0.138677
  0O   1py        0.056076 -0.289707  0.080695  0.077492  0.258868  0.134359
  0O   3s         0.000834  0.192329 -0.022293 -0.000002 -0.069521 -0.021198
  0O   2pz       -0.112553  0.011664 -0.000857 -0.162647  0.011586  0.070847
  0O   2px       -0.062308 -0.103868  0.025188 -0.089359  0.059755 -0.085908
  0O   2py        0.031789 -0.159944  0.045143  0.046922  0.153835  0.082057
  0O   1dz2       0.001126  0.008712 -0.001724  0.001330 -0.005832 -0.001774
  0O   1dxz      -0.007728  0.001804 -0.000210 -0.009687  0.001476  0.004150
  0O   1dyz      -0.013398  0.001005 -0.001191 -0.016825  0.000707  0.006661
  0O   1dx2y2    -0.008222  0.005783 -0.000378 -0.010338 -0.008017 -0.012446
  0O   1dxy      -0.004992 -0.013001  0.003809 -0.006211  0.007913 -0.004175
  1C   1s         0.000087  0.018170 -0.001726 -0.000001 -0.002051  0.005465
  1C   2s        -0.000153 -0.036082  0.001293  0.000026 -0.001063 -0.012502
  1C   1pz       -0.222453  0.000898 -0.035396 -0.236451  0.039885  0.115547
  1C   1px       -0.121732  0.118568  0.014448 -0.129968 -0.143594 -0.173166
  1C   1py        0.064997  0.224655 -0.095294  0.068082 -0.135900  0.070761
  1C   3s        -0.000427 -0.053195  0.019945 -0.000024 -0.000070 -0.047903
  1C   2pz       -0.108664  0.002199  0.015984 -0.119972  0.006313  0.028062
  1C   2px       -0.059875 -0.031444 -0.002803 -0.065921  0.019115 -0.048331
  1C   2py        0.031061 -0.054580  0.050133  0.034609  0.058136  0.005243
  1C   1dz2      -0.001874  0.001291 -0.000777 -0.002617 -0.005921  0.000305
  1C   1dxz       0.002593  0.001045 -0.003894  0.006450  0.004964 -0.001683
  1C   1dyz       0.002620  0.000602 -0.006038  0.009071 -0.005125 -0.002603
  1C   1dx2y2     0.002415 -0.000481  0.009085  0.006484 -0.006703  0.004551
  1C   1dxy       0.000334 -0.002245  0.007142  0.002649  0.016000  0.002162
  2C   1s        -0.000031 -0.005461  0.020438 -0.000004 -0.011309  0.018246
  2C   2s         0.000060  0.006944 -0.044527  0.000036  0.027799 -0.033618
  2C   1pz       -0.143634 -0.074892  0.101551 -0.077611 -0.066208 -0.072876
  2C   1px       -0.078397  0.101288 -0.167129 -0.042569  0.206450  0.087314
  2C   1py        0.041044 -0.069686  0.033569  0.022402  0.163917 -0.086313
  2C   3s         0.000486  0.109988 -0.111754 -0.000115  0.006768 -0.084475
  2C   2pz       -0.073792 -0.054332  0.045152 -0.040442 -0.009937 -0.023740
  2C   2px       -0.039977  0.093692 -0.061785 -0.022307  0.050660  0.000990
  2C   2py        0.021068 -0.011393  0.038783  0.011662  0.062028 -0.080497
  2C   1dz2       0.007369  0.000556  0.000700  0.004689 -0.002428 -0.002064
  2C   1dxz      -0.002831  0.002007 -0.004198  0.001621  0.006050  0.008647
  2C   1dyz       0.003681  0.004239  0.001358  0.008862 -0.004885  0.001677
  2C   1dx2y2    -0.001457 -0.005518  0.004133  0.002849 -0.004680 -0.013200
  2C   1dxy       0.004153 -0.005331 -0.003858  0.005263  0.011057  0.003506
  3C   1s         0.000034  0.005475  0.020468 -0.000005 -0.011315 -0.018241
  3C   2s        -0.000077 -0.006954 -0.044554  0.000017  0.027763  0.033614
  3C   1pz       -0.143093  0.073675  0.084950  0.077549 -0.014657  0.074689
  3C   1px       -0.079174 -0.085746 -0.067596  0.042605 -0.104605 -0.098480
  3C   1py        0.041629  0.089231  0.165802 -0.022418 -0.250431  0.071403
  3C   3s        -0.000431 -0.110099 -0.112334  0.000011  0.007087  0.084339
  3C   2pz       -0.073221  0.044631  0.043203  0.040402  0.005890  0.035873
  3C   2px       -0.040528 -0.030948 -0.049400  0.022191 -0.045550 -0.074094
  3C   2py        0.021599  0.094478  0.055710 -0.011778 -0.066476 -0.016767
  3C   1dz2       0.007485 -0.002005  0.000020 -0.007255 -0.001976 -0.000482
  3C   1dxz      -0.003237  0.003855 -0.001316  0.006510  0.004143  0.002066
  3C   1dyz       0.003041  0.001307  0.004101  0.003473 -0.006698  0.008550
  3C   1dx2y2    -0.001887 -0.007422 -0.002252  0.005495 -0.000464 -0.010574
  3C   1dxy       0.003987  0.002361 -0.005303 -0.001282  0.012017 -0.008881
  4C   1s        -0.000096 -0.018164 -0.001755 -0.000005 -0.002033 -0.005474
  4C   2s         0.000181  0.036066  0.001311  0.000022 -0.001098  0.012485
  4C   1pz       -0.222716 -0.048439 -0.047901  0.236420  0.000573 -0.103926
  4C   1px       -0.121467  0.180622  0.090434  0.129950  0.092732  0.103217
  4C   1py        0.064821  0.171898  0.006015 -0.068005  0.179206 -0.163922
  4C   3s         0.000372  0.053277  0.020627 -0.000004 -0.000418  0.048021
  4C   2pz       -0.108691  0.011119  0.023368  0.119989  0.017557 -0.022584
  4C   2px       -0.059914 -0.042653 -0.046873  0.065871 -0.049019  0.015351
  4C   2py        0.031099 -0.045067 -0.008455 -0.034582 -0.032489 -0.049166
  4C   1dz2      -0.000577 -0.001519 -0.002989 -0.001282 -0.005367  0.000718
  4C   1dxz      -0.001584 -0.000066  0.005399  0.005898  0.002640 -0.002632
  4C   1dyz      -0.003725  0.000341  0.002842  0.009673 -0.007343 -0.001523
  4C   1dx2y2    -0.001882 -0.001706 -0.011556  0.006190 -0.001544  0.005031
  4C   1dxy      -0.001680  0.001764  0.002478  0.003386  0.017165  0.000012
  5C   1s         0.000040  0.006867 -0.020972  0.000012  0.004643  0.026546
  5C   2s        -0.000069 -0.009954  0.044393 -0.000007 -0.007974 -0.049326
  5C   1pz       -0.109975 -0.025998  0.139761  0.049083 -0.020872  0.114847
  5C   1px       -0.060271  0.036620 -0.285202  0.027002 -0.051013 -0.155754
  5C   1py        0.031550 -0.022672 -0.058932 -0.014180 -0.169842  0.101593
  5C   3s        -0.000510 -0.104483  0.070740 -0.000188 -0.046327 -0.128181
  5C   2pz       -0.056786 -0.040850  0.045170  0.029722 -0.024935  0.035118
  5C   2px       -0.030684  0.078795 -0.076755  0.016453  0.007871 -0.024201
[...]
 5 C  dz2             1.9       3.3       0.0       0.1       1.5       0.4
 5 C  dxz             0.0       1.3       3.4       4.4       1.9       0.1
 5 C  dyz             3.3       2.6       1.0      13.1       1.8       0.1
 5 C  dx2y2           0.2       4.0       1.6       5.0       0.8       0.0
 5 C  dxy             1.5       0.1       4.0       1.8       0.1       0.1
 6 C  s               0.0       3.0       1.6       0.0       1.4       0.0
 6 C  pz              0.2       0.4       0.1       0.4       0.2       0.0
 6 C  px              0.1       0.8       0.8       0.1       0.6       0.0
 6 C  py              0.0       0.8       1.1       0.0       0.2       0.0
 6 C  dz2             3.4       2.2       0.0       1.3       1.1       0.4
 6 C  dxz             1.9       6.5       1.2       5.9       4.1       0.1
 6 C  dyz             0.1       0.1       3.1      10.6       0.5       0.1
 6 C  dx2y2           1.2       1.4       0.2       5.8       0.3       0.0
 6 C  dxy             0.3       1.1       5.7       0.8       0.0       0.1
 7 H  s               0.0       0.1       0.9       0.0       0.1       0.0
 8 H  s               0.0       0.1       0.9       0.0       0.1       0.0
 9 H  s               0.0       0.1       0.9       0.0       0.1       0.0
10 H  s               0.0       0.1       0.9       0.0       0.1       0.0
11 O  s               0.0       0.0       0.0       0.0       1.5       0.0
11 O  pz              0.0       0.2       0.2       0.0       0.0       0.8
11 O  px              0.0       0.3       0.3       0.0       0.3       0.3
11 O  py              0.0       0.2       0.2       0.0       0.5       0.1
11 O  dz2             4.6       0.1       0.1       0.0       0.0       0.5
11 O  dxz             0.8       1.3       2.3       0.0       0.4       5.1
11 O  dyz             0.9       1.2       2.1       0.0       0.4      11.7
11 O  dx2y2           0.2       6.3      11.5       0.0       0.0       5.4
11 O  dxy             1.4       0.3       0.6       0.0       0.7       1.2

                    108       109       110       111       112       113   
                   2.56925   2.59586   2.59649   2.62294   2.67120   2.74947
                   0.00000   0.00000   0.00000   0.00000   0.00000   0.00000
                  --------  --------  --------  --------  --------  --------
 0 O  s               0.0       0.0       0.0       3.7       2.7       2.2
 0 O  pz              0.0       0.1       0.8       0.0       0.0       0.0
 0 O  px              0.0       0.1       0.2       0.8       0.3       0.3
 0 O  py              0.0       0.1       0.1       1.4       0.5       0.5
 0 O  dz2             0.9       0.0       0.4       0.9       0.5       0.4
 0 O  dxz             0.2       0.3       4.5       0.6       0.0       0.0
 0 O  dyz             0.2       0.3      10.3       0.1       0.1       0.2
 0 O  dx2y2           0.0       1.2       4.9       0.1       0.1       0.2
 0 O  dxy             0.3       0.1       1.1       0.7       1.6       2.2
 1 C  s               0.0       0.0       0.0       0.4       4.1       2.2
 1 C  pz              0.0       0.0       0.4       0.0       0.0       0.0
 1 C  px              0.0       0.0       0.1       0.0       0.7       0.1
 1 C  py              0.0       0.0       0.0       0.0       1.2       0.1
 1 C  dz2             7.7       0.0       0.5       1.0       2.5       1.1
 1 C  dxz             1.3       0.7       4.7       2.4       2.1       0.5
 1 C  dyz             1.6       0.7      11.0       3.6       0.3       0.0
 1 C  dx2y2           0.4       3.1       5.3       0.9       0.2       0.2
 1 C  dxy             2.3       0.1       1.2      17.3       1.3       1.2
 2 C  s               0.0       3.8       0.0       0.0       0.9       3.9
 2 C  pz              0.1       0.1       0.1       0.0       0.0       0.1
 2 C  px              0.0       0.8       0.0       0.0       0.2       0.8
 2 C  py              0.0       0.3       0.0       0.9       1.7       0.7
 2 C  dz2             0.5       3.7       1.3       0.5       0.0       2.6
 2 C  dxz             1.5       7.9       0.5       1.0       1.0       4.2
 2 C  dyz            10.7       0.0       0.1       0.0       4.1       0.2
 2 C  dx2y2           2.3       1.2       0.2       3.1       0.5       1.3
 2 C  dxy             2.5       2.6       0.3       2.0       7.4       4.9
 3 C  s               0.0       3.8       0.0       0.0       0.9       3.9
 3 C  pz              0.1       0.0       0.1       0.1       0.2       0.0
 3 C  px              0.0       0.1       0.0       0.7       1.2       0.3
 3 C  py              0.0       1.0       0.0       0.1       0.6       1.3
 3 C  dz2             3.4       5.2       1.0       0.2       0.1       3.9
 3 C  dxz             5.3       1.7       0.1       0.0       4.3       0.2
 3 C  dyz             4.4       2.7       0.6       1.5       1.0       1.2
 3 C  dx2y2           4.4       5.2       0.0       0.8       2.8       5.9
 3 C  dxy             0.0       0.7       0.5       4.1       4.7       2.0
 4 C  s               0.0       0.0       0.0       0.4       4.1       2.2
 4 C  pz              0.0       0.0       0.4       0.0       0.0       0.0
 4 C  px              0.0       0.0       0.1       0.0       0.7       0.1
 4 C  py              0.0       0.0       0.0       0.0       1.2       0.1
 4 C  dz2             7.6       0.0       0.5       1.0       2.5       1.1
 4 C  dxz             1.3       0.7       4.7       2.4       2.1       0.5
 4 C  dyz             1.6       0.7      10.9       3.7       0.3       0.0
 4 C  dx2y2           0.4       3.1       5.3       0.9       0.2       0.2
 4 C  dxy             2.3       0.1       1.2      17.3       1.3       1.2
 5 C  s               0.0       3.8       0.0       0.0       0.9       3.9
 5 C  pz              0.1       0.1       0.1       0.0       0.0       0.1
 5 C  px              0.0       0.8       0.0       0.0       0.2       0.8
 5 C  py              0.0       0.3       0.0       0.9       1.7       0.7
 5 C  dz2             0.6       3.7       1.3       0.5       0.0       2.6
 5 C  dxz             1.5       7.9       0.5       1.0       1.0       4.2
 5 C  dyz            10.7       0.0       0.1       0.0       4.1       0.2
 5 C  dx2y2           2.3       1.2       0.2       3.1       0.5       1.3
 5 C  dxy             2.5       2.6       0.3       2.0       7.4       4.9
 6 C  s               0.0       3.8       0.0       0.0       0.9       3.9
 6 C  pz              0.1       0.0       0.1       0.1       0.2       0.0
 6 C  px              0.0       0.1       0.0       0.7       1.2       0.3
 6 C  py              0.0       1.0       0.0       0.1       0.6       1.3
 6 C  dz2             3.4       5.2       1.0       0.2       0.1       3.9
 6 C  dxz             5.3       1.7       0.1       0.0       4.3       0.2
 6 C  dyz             4.4       2.7       0.7       1.5       1.0       1.2
 6 C  dx2y2           4.4       5.2       0.0       0.8       2.8       5.9
 6 C  dxy             0.0       0.7       0.5       4.1       4.7       2.0
 7 H  s               0.0       1.2       0.0       0.4       0.0       0.5
 8 H  s               0.0       1.2       0.0       0.4       0.0       0.5
 9 H  s               0.0       1.2       0.0       0.4       0.0       0.5
10 H  s               0.0       1.2       0.0       0.4       0.0       0.5
11 O  s               0.0       0.0       0.0       3.7       2.7       2.2
11 O  pz              0.0       0.1       0.8       0.0       0.0       0.0
11 O  px              0.0       0.1       0.2       0.8       0.3       0.3
11 O  py              0.0       0.1       0.1       1.4       0.5       0.5
11 O  dz2             0.9       0.0       0.4       0.9       0.5       0.4
11 O  dxz             0.2       0.3       4.4       0.6       0.0       0.0
11 O  dyz             0.2       0.3      10.3       0.1       0.1       0.2
11 O  dx2y2           0.0       1.2       4.9       0.1       0.1       0.2
11 O  dxy             0.3       0.1       1.1       0.7       1.6       2.2

                    114       115       116       117       118       119   
                   2.80738   2.94880   2.94937   3.00809   3.16774   3.29059
                   0.00000   0.00000   0.00000   0.00000   0.00000   0.00000
                  --------  --------  --------  --------  --------  --------
 0 O  s               0.0       0.0       8.2       7.5       0.0       0.4
 0 O  pz              0.1       0.3       0.0       0.0       0.2       0.0
 0 O  px              0.1       0.4       1.3       1.0       0.3       0.2
 0 O  py              0.1       0.3       2.2       1.8       0.2       0.4
 0 O  dz2             0.0       0.1       5.1       4.6       0.1       0.0
 0 O  dxz             0.3       1.8       0.2       0.3       1.1       0.1
 0 O  dyz             0.3       1.6       0.5       0.3       1.0       0.1
 0 O  dx2y2           1.5       8.9       1.2       1.1       5.3       0.0
 0 O  dxy             0.1       0.4      15.5      12.3       0.3       0.4
 1 C  s               0.0       0.0       5.8       7.4       0.0       0.5
 1 C  pz              1.1       0.0       0.0       0.0       0.0       0.0
 1 C  px              1.8       0.1       1.7       1.1       0.1       0.2
 1 C  py              1.3       0.1       3.0       2.0       0.1       0.3
 1 C  dz2             0.0       0.2       1.0       1.5       0.1       0.2
 1 C  dxz             0.0       3.7       0.0       0.9       2.6       2.3
 1 C  dyz             0.0       3.4       0.1       0.1       2.3       2.6
 1 C  dx2y2           0.2      18.1       0.3       0.2      12.7       0.4
 1 C  dxy             0.0       1.0       2.8       1.2       0.6       8.6
 2 C  s               2.1       0.5       0.0       1.5       0.5       1.3
 2 C  pz              0.1       0.2       0.0       0.0       0.0       0.0
 2 C  px              0.2       0.2       0.0       0.2       0.2       0.1
 2 C  py              0.7       0.3       0.0       0.0       2.0       0.1
 2 C  dz2             2.0       0.0       0.0       0.5       0.4       1.6
 2 C  dxz             0.3       0.2       0.0       0.6       0.1       1.1
 2 C  dyz             2.9       1.0       0.0       0.3       1.8       0.6
 2 C  dx2y2          12.7       0.1       0.0       0.1       0.1       9.9
 2 C  dxy             0.0       2.4       0.3       0.0       6.5       1.3
 3 C  s               2.1       0.5       0.0       1.5       0.5       1.3
 3 C  pz              0.2       0.2       0.0       0.0       0.2       0.0
 3 C  px              0.6       0.3       0.0       0.0       1.5       0.1
 3 C  py              0.1       0.2       0.1       0.2       0.5       0.1
 3 C  dz2             0.5       0.1       0.0       0.4       0.6       0.5
 3 C  dxz             5.4       0.9       0.0       0.9       1.2       1.8
 3 C  dyz             1.1       0.2       0.0       0.2       0.4       2.2
 3 C  dx2y2           8.2       0.9       0.0       0.0       2.0       4.6
 3 C  dxy             2.6       1.6       0.3       0.0       4.6       5.5
 4 C  s               0.0       0.0       5.8       7.4       0.0       0.5
 4 C  pz              1.1       0.0       0.0       0.0       0.0       0.0
 4 C  px              1.8       0.1       1.7       1.1       0.1       0.2
 4 C  py              1.3       0.0       3.0       2.0       0.1       0.3
 4 C  dz2             0.0       0.2       1.0       1.5       0.1       0.2
 4 C  dxz             0.0       3.7       0.1       0.9       2.6       2.3
 4 C  dyz             0.0       3.3       0.1       0.1       2.4       2.6
 4 C  dx2y2           0.2      18.2       0.2       0.2      12.7       0.4
 4 C  dxy             0.0       0.9       2.9       1.2       0.7       8.6
 5 C  s               2.1       0.5       0.0       1.5       0.5       1.3
 5 C  pz              0.1       0.2       0.0       0.0       0.0       0.0
 5 C  px              0.2       0.2       0.0       0.2       0.2       0.1
 5 C  py              0.7       0.3       0.0       0.0       2.0       0.1
 5 C  dz2             2.0       0.0       0.0       0.5       0.4       1.6
 5 C  dxz             0.3       0.2       0.0       0.6       0.1       1.1
 5 C  dyz             2.9       1.0       0.0       0.3       1.8       0.6
 5 C  dx2y2          12.7       0.1       0.0       0.1       0.1       9.9
 5 C  dxy             0.0       2.4       0.2       0.0       6.4       1.3
 6 C  s               2.1       0.5       0.0       1.5       0.5       1.3
 6 C  pz              0.2       0.2       0.0       0.0       0.2       0.0
 6 C  px              0.6       0.3       0.0       0.0       1.5       0.1
 6 C  py              0.1       0.2       0.1       0.2       0.5       0.1
 6 C  dz2             0.5       0.1       0.0       0.4       0.6       0.5
 6 C  dxz             5.4       0.9       0.0       0.9       1.2       1.8
 6 C  dyz             1.1       0.2       0.0       0.2       0.4       2.2
 6 C  dx2y2           8.2       0.9       0.0       0.0       2.0       4.6
 6 C  dxy             2.6       1.6       0.3       0.0       4.6       5.5
 7 H  s               0.6       0.0       0.0       0.0       0.0       0.6
 8 H  s               0.6       0.0       0.0       0.0       0.0       0.6
 9 H  s               0.6       0.0       0.0       0.0       0.0       0.6
10 H  s               0.6       0.0       0.0       0.0       0.0       0.6
11 O  s               0.0       0.0       8.2       7.5       0.0       0.4
11 O  pz              0.1       0.3       0.0       0.0       0.2       0.0
11 O  px              0.1       0.4       1.3       1.0       0.3       0.2
11 O  py              0.1       0.3       2.3       1.8       0.2       0.4
11 O  dz2             0.0       0.1       5.1       4.6       0.1       0.0
11 O  dxz             0.3       1.8       0.2       0.3       1.1       0.1
11 O  dyz             0.3       1.6       0.5       0.3       1.0       0.1
11 O  dx2y2           1.5       8.8       1.4       1.1       5.3       0.0
11 O  dxy             0.1       0.5      15.4      12.3       0.3       0.4



                      *****************************
                      * MAYER POPULATION ANALYSIS *
                      *****************************

  NA   - Mulliken gross atomic population
  ZA   - Total nuclear charge
  QA   - Mulliken gross atomic charge
  VA   - Mayer's total valence
  BVA  - Mayer's bonded valence
  FA   - Mayer's free valence

  ATOM       NA         ZA         QA         VA         BVA        FA
  0 O      8.4054     8.0000    -0.4054     2.0680     2.0680    -0.0000
  1 C      5.6058     6.0000     0.3942     3.9653     3.9653     0.0000
  2 C      6.1652     6.0000    -0.1652     3.8177     3.8177     0.0000
  3 C      6.1644     6.0000    -0.1644     3.8177     3.8177    -0.0000
  4 C      5.6058     6.0000     0.3942     3.9653     3.9653    -0.0000
  5 C      6.1652     6.0000    -0.1652     3.8176     3.8176     0.0000
  6 C      6.1644     6.0000    -0.1644     3.8177     3.8177    -0.0000
  7 H      0.8295     1.0000     0.1705     0.9352     0.9352     0.0000
  8 H      0.8296     1.0000     0.1704     0.9352     0.9352     0.0000
  9 H      0.8295     1.0000     0.1705     0.9352     0.9352    -0.0000
 10 H      0.8296     1.0000     0.1704     0.9352     0.9352     0.0000
 11 O      8.4054     8.0000    -0.4054     2.0680     2.0680     0.0000

  Mayer bond orders larger than 0.1
B(  0-O ,  1-C ) :   1.8125 B(  1-C ,  2-C ) :   1.0402 B(  1-C ,  6-C ) :   1.0403 
B(  2-C ,  3-C ) :   1.7499 B(  2-C ,  7-H ) :   0.9163 B(  3-C ,  4-C ) :   1.0402 
B(  3-C ,  8-H ) :   0.9163 B(  4-C ,  5-C ) :   1.0402 B(  4-C , 11-O ) :   1.8125 
B(  5-C ,  6-C ) :   1.7498 B(  5-C ,  9-H ) :   0.9163 B(  6-C , 10-H ) :   0.9163 


-------
TIMINGS
-------

Total SCF time: 0 days 0 hours 0 min 12 sec 

Total time                  ....      12.566 sec
Sum of individual times     ....      12.316 sec  ( 98.0%)

Fock matrix formation       ....      10.865 sec  ( 86.5%)
  XC integration            ....       1.867 sec  ( 17.2% of F)
    Basis function eval.    ....       0.704 sec  ( 37.7% of XC)
    Density eval.           ....       0.466 sec  ( 24.9% of XC)
    XC-Functional eval.     ....       0.142 sec  (  7.6% of XC)
    XC-Potential eval.      ....       0.454 sec  ( 24.3% of XC)
Diagonalization             ....       0.002 sec  (  0.0%)
Density matrix formation    ....       0.001 sec  (  0.0%)
Population analysis         ....       0.037 sec  (  0.3%)
Initial guess               ....       0.002 sec  (  0.0%)
Orbital Transformation      ....       0.000 sec  (  0.0%)
Orbital Orthonormalization  ....       0.001 sec  (  0.0%)
DIIS solution               ....       0.001 sec  (  0.0%)
SOSCF solution              ....       0.007 sec  (  0.1%)
Grid generation             ....       1.400 sec  ( 11.1%)

-------------------------   --------------------
FINAL SINGLE POINT ENERGY      -381.236486427731
-------------------------   --------------------

                                *** OPTIMIZATION RUN DONE ***

                            ***************************************
                            *     ORCA property calculations      *
                            ***************************************

                                    ---------------------
                                    Active property flags
                                    ---------------------
   (+) Dipole Moment


------------------------------------------------------------------------------
                       ORCA ELECTRIC PROPERTIES CALCULATION
------------------------------------------------------------------------------

Dipole Moment Calculation                       ... on
Quadrupole Moment Calculation                   ... off
Polarizability Calculation                      ... off
GBWName                                         ... /Users/lailaal-madhagi/Desktop/Testing_XAS_Analysis_code/1-4_Benzoquinone//Results_dir_Benzoquinone_geom_element_O_2019-11-13_07-56-29//GTE1_Benzoquinone_geom_2019-11-13_07-56-47//opt.gbw
Electron density file                           ... /Users/lailaal-madhagi/Desktop/Testing_XAS_Analysis_code/1-4_Benzoquinone//Results_dir_Benzoquinone_geom_element_O_2019-11-13_07-56-29//GTE1_Benzoquinone_geom_2019-11-13_07-56-47//opt.scfp.tmp
The origin for moment calculation is the CENTER OF MASS  = ( 6.479188,  8.067972 -1.431147)

-------------
DIPOLE MOMENT
-------------
                                X             Y             Z
Electronic contribution:     -0.00001       0.00000       0.00000
Nuclear contribution   :     -0.00019       0.00016       0.00016
                        -----------------------------------------
Total Dipole Moment    :     -0.00020       0.00016       0.00016
                        -----------------------------------------
Magnitude (a.u.)       :      0.00030
Magnitude (Debye)      :      0.00078



--------------------
Rotational spectrum 
--------------------
 
Rotational constants in cm-1:     0.174427     0.054963     0.041794 
Rotational constants in MHz :  5229.200583  1647.755320  1252.944357 

 Dipole components along the rotational axes: 
x,y,z [a.u.] :    -0.000006     0.000305     0.000005 
x,y,z [Debye]:    -0.000016     0.000775     0.000012 

 

Timings for individual modules:

Sum of individual times         ...      273.478 sec (=   4.558 min)
GTO integral calculation        ...        4.397 sec (=   0.073 min)   1.6 %
SCF iterations                  ...      177.003 sec (=   2.950 min)  64.7 %
SCF Gradient evaluation         ...       90.912 sec (=   1.515 min)  33.2 %
Geometry relaxation             ...        1.167 sec (=   0.019 min)   0.4 %
                             ****ORCA TERMINATED NORMALLY****
TOTAL RUN TIME: 0 days 0 hours 4 minutes 34 seconds 382 msec
