13
	Energy:      10.9735850
C         -3.07149        1.34876       -0.00360
C         -2.40590        2.57919        0.00092
C         -1.00868        2.61844       -0.00286
C         -2.33882        0.15474       -0.01142
C         -0.93525        0.19560       -0.01466
C         -0.27499        1.42970       -0.01071
C         -0.15755       -1.01574       -0.02139
N          0.48419       -1.97878       -0.02682
H         -2.97084        3.50231        0.00736
H         -0.49187        3.56882        0.00051
H         -2.86568       -0.79240       -0.01462
H         -4.15406        1.32331       -0.00079
H          0.80733        1.47022       -0.01342
