
                                 *****************
                                 * O   R   C   A *
                                 *****************

           --- An Ab Initio, DFT and Semiempirical electronic structure package ---

                  #######################################################
                  #                        -***-                        #
                  #          Department of theory and spectroscopy      #
                  #               Directorship: Frank Neese             #
                  #        Max Planck Institute fuer Kohlenforschung    #
                  #                Kaiser Wilhelm Platz 1               #
                  #                 D-45470 Muelheim/Ruhr               #
                  #                      Germany                        #
                  #                                                     #
                  #                  All rights reserved                #
                  #                        -***-                        #
                  #######################################################


                         Program Version 4.1.0  - RELEASE  -


 With contributions from (in alphabetic order):
   Daniel Aravena         : Magnetic Properties
   Michael Atanasov       : Ab Initio Ligand Field Theory
   Alexander A. Auer      : GIAO ZORA
   Ute Becker             : Parallelization
   Giovanni Bistoni       : ED, Open-shell LED
   Martin Brehm           : Molecular dynamics
   Dmytro Bykov           : SCF Hessian
   Vijay G. Chilkuri      : MRCI spin determinant printing
   Dipayan Datta          : RHF DLPNO-CCSD density
   Achintya Kumar Dutta   : EOM-CC, STEOM-CC
   Dmitry Ganyushin       : Spin-Orbit,Spin-Spin,Magnetic field MRCI
   Miquel Garcia          : C-PCM Hessian
   Yang Guo               : DLPNO-NEVPT2, CIM, IAO-localization
   Andreas Hansen         : Spin unrestricted coupled pair/coupled cluster methods
   Benjamin Helmich-Paris : CASSCF linear response (MC-RPA)
   Lee Huntington         : MR-EOM, pCC
   Robert Izsak           : Overlap fitted RIJCOSX, COSX-SCS-MP3, EOM
   Christian Kollmar      : KDIIS, OOCD, Brueckner-CCSD(T), CCSD density
   Simone Kossmann        : Meta GGA functionals, TD-DFT gradient, OOMP2, MP2 Hessian
   Martin Krupicka        : AUTO-CI
   Lucas Lang             : DCDCAS
   Dagmar Lenk            : GEPOL surface, SMD
   Dimitrios Liakos       : Extrapolation schemes; parallel MDCI
   Dimitrios Manganas     : ROCIS; embedding schemes
   Dimitrios Pantazis     : SARC Basis sets
   Taras Petrenko         : DFT Hessian,TD-DFT gradient, ASA, ECA, R-Raman, ABS, FL, XAS/XES, NRVS
   Peter Pinski           : DLPNO-MP2, DLPNO-MP2 Gradient
   Christoph Reimann      : Effective Core Potentials
   Marius Retegan         : Local ZFS, SOC
   Christoph Riplinger    : Optimizer, TS searches, QM/MM, DLPNO-CCSD(T), (RO)-DLPNO pert. Triples
   Tobias Risthaus        : Range-separated hybrids, TD-DFT gradient, RPA, STAB
   Michael Roemelt        : Restricted open shell CIS
   Masaaki Saitow         : Open-shell DLPNO
   Barbara Sandhoefer     : DKH picture change effects
   Avijit Sen             : IP-ROCIS
   Kantharuban Sivalingam : CASSCF convergence, NEVPT2, FIC-MRCI
   Bernardo de Souza      : ESD, SOC TD-DFT
   Georgi Stoychev        : AutoAux, RI-MP2 NMR
   Willem Van den Heuvel  : Paramagnetic NMR
   Boris Wezisla          : Elementary symmetry handling
   Frank Wennmohs         : Technical directorship


 We gratefully acknowledge several colleagues who have allowed us to
 interface, adapt or use parts of their codes:
   Stefan Grimme, W. Hujo, H. Kruse,             : VdW corrections, initial TS optimization,
                  C. Bannwarth                     DFT functionals, gCP, sTDA/sTD-DF
   Ed Valeev                                     : LibInt (2-el integral package), F12 methods
   Garnet Chan, S. Sharma, J. Yang, R. Olivares  : DMRG
   Ulf Ekstrom                                   : XCFun DFT Library
   Mihaly Kallay                                 : mrcc  (arbitrary order and MRCC methods)
   Andreas Klamt, Michael Diedenhofen            : otool_cosmo (COSMO solvation model)
   Jiri Pittner, Ondrej Demel                    : Mk-CCSD
   Frank Weinhold                                : gennbo (NPA and NBO analysis)
   Christopher J. Cramer and Donald G. Truhlar   : smd solvation model
   Lars Goerigk                                  : TD-DFT with DH, B97 family of functionals
   V. Asgeirsson, H. Jonsson                     : NEB implementation
   FAccTs GmbH                                   : IRC, NEB, NEB-TS, Multilevel


 Your calculation uses the libint2 library for the computation of 2-el integrals
 For citations please refer to: http://libint.valeyev.net

 This ORCA versions uses:
   CBLAS   interface :  Fast vector & matrix operations
   LAPACKE interface :  Fast linear algebra routines
   SCALAPACK package :  Parallel linear algebra routines




***************************************
The coordinates will be read from file: /Users/lailaal-madhagi/Desktop/Testing_XAS_Analysis_code/Benzaldehyde/Benzaldehyde_geom.xyz
***************************************


----- Orbital basis set information -----
Your calculation utilizes the basis: 6-31G*
   H-He, Li-Ne : W. J. Hehre, R. Ditchfield and J.A. Pople, J. Chem. Phys. 56, 2257 (1972).
                 Note: He and Ne are unpublished basis sets taken from the Gaussian program.
                 Note: Li and B from J. D. Dill and J. A. Pople, J. Chem. Phys. 62, 2921 (1975).
   Na - Ar     : M. M. Francl, W. J. Pietro, W. J. Hehre, J. S. Binkley, M. S. Gordon, 
                 D. J. DeFrees and J. A. Pople, J. Chem. Phys. 77, 3654 (1982).
   K - Zn      : V. A. Rassolov, J. A. Pople, M. A. Ratner, and T. L. Windus, J. Chem. Phys. 109, 1223 (1998).

================================================================================
                                        WARNINGS
                       Please study these warnings very carefully!
================================================================================


WARNING: Geometry Optimization
  ===> : Switching off AutoStart
         For restart on a previous wavefunction, please use MOREAD

INFO   : the flag for use of LIBINT has been found!

================================================================================
                                       INPUT FILE
================================================================================
NAME = /Users/lailaal-madhagi/Desktop/Testing_XAS_Analysis_code/Benzaldehyde//Results_dir_Benzaldehyde_geom_element_C_2019-11-04_22-42-45//GTE1_Benzaldehyde_geom_2019-11-04_22-42-57//opt.inp
|  1> ! B3LYP 6-31G* TIGHTSCF Grid3 FinalGrid5 Opt 
|  2> !NormalPrint 
|  3> %output 
|  4> Print[P_Basis] 2 
|  5> Print[P_MOS] 1 
|  6> end 
|  7> *xyzfile 0 1 /Users/lailaal-madhagi/Desktop/Testing_XAS_Analysis_code/Benzaldehyde/Benzaldehyde_geom.xyz                           ****END OF INPUT****
================================================================================

                       *****************************
                       * Geometry Optimization Run *
                       *****************************

Geometry optimization settings:
Update method            Update   .... BFGS
Choice of coordinates    CoordSys .... Z-matrix Internals
Initial Hessian          InHess   .... Almoef's Model

Convergence Tolerances:
Energy Change            TolE     ....  5.0000e-06 Eh
Max. Gradient            TolMAXG  ....  3.0000e-04 Eh/bohr
RMS Gradient             TolRMSG  ....  1.0000e-04 Eh/bohr
Max. Displacement        TolMAXD  ....  4.0000e-03 bohr
RMS Displacement         TolRMSD  ....  2.0000e-03 bohr

------------------------------------------------------------------------------
                        ORCA OPTIMIZATION COORDINATE SETUP
------------------------------------------------------------------------------

The optimization will be done in new redundant internal coordinates
Making redundant internal coordinates   ...  (new redundants) done
Evaluating the initial hessian          ...  (Almloef) done
Evaluating the coordinates              ...  done
Calculating the B-matrix                .... done
Calculating the G-matrix                .... done
Diagonalizing the G-matrix              .... done
The first mode is                       ....   27
The number of degrees of freedom        ....   36

    -----------------------------------------------------------------
                    Redundant Internal Coordinates


    -----------------------------------------------------------------
         Definition                    Initial Value    Approx d2E/dq
    -----------------------------------------------------------------
      1. B(C   1,C   0)                  1.3973         0.608305   
      2. B(C   2,C   0)                  1.3973         0.608258   
      3. B(C   3,C   2)                  1.3986         0.605268   
      4. B(C   4,C   3)                  1.4070         0.586905   
      5. B(C   5,C   4)                  1.4044         0.592499   
      6. B(C   5,C   1)                  1.3986         0.605390   
      7. B(C   6,C   4)                  1.4778         0.452554   
      8. B(O   7,C   6)                  1.2212         1.040447   
      9. B(H   8,C   6)                  1.0856         0.365948   
     10. B(H   9,C   0)                  1.0824         0.370363   
     11. B(H  10,C   2)                  1.0824         0.370320   
     12. B(H  11,C   1)                  1.0824         0.370318   
     13. B(H  12,C   5)                  1.0832         0.369148   
     14. B(H  13,C   3)                  1.0829         0.369623   
     15. A(C   1,C   0,H   9)          120.0018         0.353451   
     16. A(C   1,C   0,C   2)          119.9971         0.431098   
     17. A(C   2,C   0,H   9)          120.0011         0.353446   
     18. A(C   5,C   1,H  11)          119.9615         0.353156   
     19. A(C   0,C   1,H  11)          119.9369         0.353443   
     20. A(C   0,C   1,C   5)          120.1016         0.430732   
     21. A(C   0,C   2,H  10)          119.9282         0.353439   
     22. A(C   0,C   2,C   3)          120.1110         0.430711   
     23. A(C   3,C   2,H  10)          119.9608         0.353144   
     24. A(C   2,C   3,C   4)          120.2449         0.427958   
     25. A(C   4,C   3,H  13)          120.7617         0.351197   
     26. A(C   2,C   3,H  13)          118.9935         0.353032   
     27. A(C   3,C   4,C   6)          121.2104         0.406369   
     28. A(C   3,C   4,C   5)          119.2263         0.426326   
     29. A(C   5,C   4,C   6)          119.5633         0.407051   
     30. A(C   1,C   5,C   4)          120.3191         0.428702   
     31. A(C   4,C   5,H  12)          120.4982         0.351684   
     32. A(C   1,C   5,H  12)          119.1828         0.352967   
     33. A(O   7,C   6,H   8)          118.9341         0.384350   
     34. A(C   4,C   6,H   8)          119.9549         0.335656   
     35. A(C   4,C   6,O   7)          121.1110         0.447307   
     36. D(H  11,C   1,C   0,C   2)    179.9992         0.025548   
     37. D(C   5,C   1,C   0,C   2)      0.0001         0.025548   
     38. D(C   5,C   1,C   0,H   9)   -179.9993         0.025548   
     39. D(H  11,C   1,C   0,H   9)     -0.0002         0.025548   
     40. D(C   3,C   2,C   0,C   1)      0.0000         0.025544   
     41. D(C   3,C   2,C   0,H   9)    179.9994         0.025544   
     42. D(H  10,C   2,C   0,H   9)     -0.0008         0.025544   
     43. D(H  10,C   2,C   0,C   1)    179.9998         0.025544   
     44. D(H  13,C   3,C   2,H  10)     -0.0001         0.025279   
     45. D(H  13,C   3,C   2,C   0)    179.9997         0.025279   
     46. D(C   4,C   3,C   2,H  10)   -179.9996         0.025279   
     47. D(C   4,C   3,C   2,C   0)      0.0001         0.025279   
     48. D(C   6,C   4,C   3,C   2)    179.9997         0.023692   
     49. D(C   5,C   4,C   3,H  13)   -179.9999         0.023692   
     50. D(C   5,C   4,C   3,C   2)     -0.0004         0.023692   
     51. D(C   6,C   4,C   3,H  13)      0.0002         0.023692   
     52. D(H  12,C   5,C   4,C   6)      0.0001         0.024169   
     53. D(C   1,C   5,C   4,C   6)   -179.9996         0.024169   
     54. D(C   1,C   5,C   4,C   3)      0.0004         0.024169   
     55. D(H  12,C   5,C   1,H  11)      0.0008         0.025290   
     56. D(H  12,C   5,C   1,C   0)    180.0000         0.025290   
     57. D(H  12,C   5,C   4,C   3)   -179.9999         0.024169   
     58. D(C   4,C   5,C   1,H  11)   -179.9995         0.025290   
     59. D(C   4,C   5,C   1,C   0)     -0.0003         0.025290   
     60. D(H   8,C   6,C   4,C   5)     -0.0008         0.013958   
     61. D(H   8,C   6,C   4,C   3)    179.9992         0.013958   
     62. D(O   7,C   6,C   4,C   5)   -179.9998         0.013958   
     63. D(O   7,C   6,C   4,C   3)      0.0001         0.013958   
    -----------------------------------------------------------------

Number of atoms                         .... 14
Number of degrees of freedom            .... 63

         *************************************************************
         *                GEOMETRY OPTIMIZATION CYCLE   1            *
         *************************************************************
---------------------------------
CARTESIAN COORDINATES (ANGSTROEM)
---------------------------------
  C     -1.664280    1.106220    0.000020
  C     -0.274180    1.247700    0.000760
  C     -2.236750   -0.168430   -0.000100
  C     -1.420520   -1.304200    0.000520
  C     -0.019870   -1.170360    0.001270
  C      0.546170    0.114970    0.001380
  C      0.862650   -2.355700    0.001940
  O      0.400840   -3.486190    0.001860
  H      1.940820   -2.228780    0.002500
  H     -2.297610    1.983930   -0.000470
  H     -3.313700   -0.276730   -0.000670
  H      0.168230    2.235540    0.000840
  H      1.621950    0.241920    0.001950
  H     -1.883360   -2.283200    0.000420

----------------------------
CARTESIAN COORDINATES (A.U.)
----------------------------
  NO LB      ZA    FRAG     MASS         X           Y           Z
   0 C     6.0000    0    12.011   -3.145033    2.090453    0.000038
   1 C     6.0000    0    12.011   -0.518125    2.357811    0.001436
   2 C     6.0000    0    12.011   -4.226845   -0.318287   -0.000189
   3 C     6.0000    0    12.011   -2.684394   -2.464581    0.000983
   4 C     6.0000    0    12.011   -0.037549   -2.211660    0.002400
   5 C     6.0000    0    12.011    1.032112    0.217262    0.002608
   6 C     6.0000    0    12.011    1.630172   -4.451628    0.003666
   7 O     8.0000    0    15.999    0.757478   -6.587944    0.003515
   8 H     1.0000    0     1.008    3.667618   -4.211784    0.004724
   9 H     1.0000    0     1.008   -4.341854    3.749084   -0.000888
  10 H     1.0000    0     1.008   -6.261985   -0.522944   -0.001266
  11 H     1.0000    0     1.008    0.317909    4.224558    0.001587
  12 H     1.0000    0     1.008    3.065041    0.457163    0.003685
  13 H     1.0000    0     1.008   -3.559035   -4.314623    0.000794

--------------------------------
INTERNAL COORDINATES (ANGSTROEM)
--------------------------------
 C      0   0   0     0.000000000000     0.00000000     0.00000000
 C      1   0   0     1.397281341749     0.00000000     0.00000000
 C      1   2   0     1.397302593499   119.99714335     0.00000000
 C      3   1   2     1.398644089896   120.11101332     0.00000000
 C      4   3   1     1.407030252198   120.24485504     0.00000000
 C      2   1   3     1.398589203376   120.10158389     0.00000000
 C      5   4   3     1.477793258511   121.21039842   179.99972447
 O      7   5   4     1.221178169883   121.11101719     0.00000000
 H      7   5   4     1.085614825295   119.95491497   179.99917113
 H      1   2   3     1.082350208158   120.00175464   180.00059648
 H      3   1   2     1.082381872261   119.92822986   179.99978636
 H      2   1   3     1.082383702806   119.93687556   179.99924774
 H      6   2   1     1.083244771878   119.18275727   179.99999744
 H      4   3   1     1.082895136013   118.99349303   179.99970628

---------------------------
INTERNAL COORDINATES (A.U.)
---------------------------
 C      0   0   0     0.000000000000     0.00000000     0.00000000
 C      1   0   0     2.640479067944     0.00000000     0.00000000
 C      1   2   0     2.640519227932   119.99714335     0.00000000
 C      3   1   2     2.643054288730   120.11101332     0.00000000
 C      4   3   1     2.658901838796   120.24485504     0.00000000
 C      2   1   3     2.642950568240   120.10158389     0.00000000
 C      5   4   3     2.792624541141   121.21039842   179.99972447
 O      7   5   4     2.307692301803   121.11101719     0.00000000
 H      7   5   4     2.051514706732   119.95491497   179.99917113
 H      1   2   3     2.045345474412   120.00175464   180.00059648
 H      3   1   2     2.045405310895   119.92822986   179.99978636
 H      2   1   3     2.045408770123   119.93687556   179.99924774
 H      6   2   1     2.047035954851   119.18275727   179.99999744
 H      4   3   1     2.046375238819   118.99349303   179.99970628

---------------------
BASIS SET INFORMATION
---------------------
There are 3 groups of distinct atoms

 Group   1 Type C   : 10s4p1d contracted to 3s2p1d pattern {631/31/1}
 Group   2 Type O   : 10s4p1d contracted to 3s2p1d pattern {631/31/1}
 Group   3 Type H   : 4s contracted to 2s pattern {31}

Atom   0C    basis set group =>   1
Atom   1C    basis set group =>   1
Atom   2C    basis set group =>   1
Atom   3C    basis set group =>   1
Atom   4C    basis set group =>   1
Atom   5C    basis set group =>   1
Atom   6C    basis set group =>   1
Atom   7O    basis set group =>   2
Atom   8H    basis set group =>   3
Atom   9H    basis set group =>   3
Atom  10H    basis set group =>   3
Atom  11H    basis set group =>   3
Atom  12H    basis set group =>   3
Atom  13H    basis set group =>   3

-------------------------
BASIS SET IN INPUT FORMAT
-------------------------

 # Basis set for element : H 
 NewGTO H 
 S 3 
   1      18.7311370000      0.0334945995
   2       2.8253937000      0.2347269467
   3       0.6401217000      0.8137573184
 S 1 
   1       0.1612778000      1.0000000000
  end;

 # Basis set for element : C 
 NewGTO C 
 S 6 
   1    3047.5249000000      0.0018347002
   2     457.3695100000      0.0140373012
   3     103.9486900000      0.0688426061
   4      29.2101550000      0.2321844206
   5       9.2866630000      0.4679413416
   6       3.1639270000      0.3623120322
 S 3 
   1       7.8682724000     -0.1193324086
   2       1.8812885000     -0.1608542116
   3       0.5442493000      1.1434564826
 P 3 
   1       7.8682724000      0.0689990956
   2       1.8812885000      0.3164239798
   3       0.5442493000      0.7443082524
 S 1 
   1       0.1687144000      1.0000000000
 P 1 
   1       0.1687144000      1.0000000000
 D 1 
   1       0.8000000000      1.0000000000
  end;

 # Basis set for element : O 
 NewGTO O 
 S 6 
   1    5484.6717000000      0.0018310998
   2     825.2349500000      0.0139500985
   3     188.0469600000      0.0684450927
   4      52.9645000000      0.2327142753
   5      16.8975700000      0.4701929501
   6       5.7996353000      0.3585208619
 S 3 
   1      15.5396160000     -0.1107775038
   2       3.5999336000     -0.1480263051
   3       1.0137618000      1.1307670390
 P 3 
   1      15.5396160000      0.0708742995
   2       3.5999336000      0.3397527978
   3       1.0137618000      0.7271585953
 S 1 
   1       0.2700058000      1.0000000000
 P 1 
   1       0.2700058000      1.0000000000
 D 1 
   1       0.8000000000      1.0000000000
  end;

------------------------------------------------------------------------------
                           ORCA GTO INTEGRAL CALCULATION
------------------------------------------------------------------------------

                         BASIS SET STATISTICS AND STARTUP INFO

 # of primitive gaussian shells          ...  144
 # of primitive gaussian functions       ...  240
 # of contracted shells                  ...   60
 # of contracted basis functions         ...  124
 Highest angular momentum                ...    2
 Maximum contraction depth               ...    6
 Integral package used                   ... LIBINT
 Integral threshhold            Thresh   ...  2.500e-11
 Primitive cut-off              TCut     ...  2.500e-12


------------------------------ INTEGRAL EVALUATION ----------------------------


 * One electron integrals 
 Pre-screening matrix                    ... done
 Shell pair data                         ... done (   0.002 sec)

-------------------------------------------------------------------------------
                                 ORCA SCF
-------------------------------------------------------------------------------

------------
SCF SETTINGS
------------
Hamiltonian:
 Density Functional     Method          .... DFT(GTOs)
 Exchange Functional    Exchange        .... B88
   X-Alpha parameter    XAlpha          ....  0.666667
   Becke's b parameter  XBeta           ....  0.004200
 Correlation Functional Correlation     .... LYP
 LDA part of GGA corr.  LDAOpt          .... VWN-5
 Gradients option       PostSCFGGA      .... off
 Hybrid DFT is turned on
   Fraction HF Exchange ScalHFX         ....  0.200000
   Scaling of DF-GGA-X  ScalDFX         ....  0.720000
   Scaling of DF-GGA-C  ScalDFC         ....  0.810000
   Scaling of DF-LDA-C  ScalLDAC        ....  1.000000
   Perturbative correction              ....  0.000000
   Density functional embedding theory  .... OFF
   NL short-range parameter             ....  4.800000


General Settings:
 Integral files         IntName         .... /Users/lailaal-madhagi/Desktop/Testing_XAS_Analysis_code/Benzaldehyde//Results_dir_Benzaldehyde_geom_element_C_2019-11-04_22-42-45//GTE1_Benzaldehyde_geom_2019-11-04_22-42-57//opt
 Hartree-Fock type      HFTyp           .... RHF
 Total Charge           Charge          ....    0
 Multiplicity           Mult            ....    1
 Number of Electrons    NEL             ....   56
 Basis Dimension        Dim             ....  124
 Nuclear Repulsion      ENuc            ....    320.6584506572 Eh

Convergence Acceleration:
 DIIS                   CNVDIIS         .... on
   Start iteration      DIISMaxIt       ....    12
   Startup error        DIISStart       ....  0.200000
   # of expansion vecs  DIISMaxEq       ....     5
   Bias factor          DIISBfac        ....   1.050
   Max. coefficient     DIISMaxC        ....  10.000
 Newton-Raphson         CNVNR           .... off
 SOSCF                  CNVSOSCF        .... on
   Start iteration      SOSCFMaxIt      ....   150
   Startup grad/error   SOSCFStart      ....  0.003300
 Level Shifting         CNVShift        .... on
   Level shift para.    LevelShift      ....    0.2500
   Turn off err/grad.   ShiftErr        ....    0.0010
 Zerner damping         CNVZerner       .... off
 Static damping         CNVDamp         .... on
   Fraction old density DampFac         ....    0.7000
   Max. Damping (<1)    DampMax         ....    0.9800
   Min. Damping (>=0)   DampMin         ....    0.0000
   Turn off err/grad.   DampErr         ....    0.1000
 Fernandez-Rico         CNVRico         .... off

SCF Procedure:
 Maximum # iterations   MaxIter         ....   125
 SCF integral mode      SCFMode         .... Direct
   Integral package                     .... LIBINT
 Reset frequency        DirectResetFreq ....    20
 Integral Threshold     Thresh          ....  2.500e-11 Eh
 Primitive CutOff       TCut            ....  2.500e-12 Eh

Convergence Tolerance:
 Convergence Check Mode ConvCheckMode   .... Total+1el-Energy
 Convergence forced     ConvForced      .... 0
 Energy Change          TolE            ....  1.000e-08 Eh
 1-El. energy change                    ....  1.000e-05 Eh
 Orbital Gradient       TolG            ....  1.000e-05
 Orbital Rotation angle TolX            ....  1.000e-05
 DIIS Error             TolErr          ....  5.000e-07


Diagonalization of the overlap matrix:
Smallest eigenvalue                        ... 4.930e-04
Time for diagonalization                   ...    0.002 sec
Threshold for overlap eigenvalues          ... 1.000e-08
Number of eigenvalues below threshold      ... 0
Time for construction of square roots      ...    0.001 sec
Total time needed                          ...    0.004 sec

-------------------
DFT GRID GENERATION
-------------------

General Integration Accuracy     IntAcc      ...  4.340
Radial Grid Type                 RadialGrid  ... Gauss-Chebyshev
Angular Grid (max. acc.)         AngularGrid ... Lebedev-194
Angular grid pruning method      GridPruning ... 3 (G Style)
Weight generation scheme         WeightScheme... Becke
Basis function cutoff            BFCut       ...    1.0000e-11
Integration weight cutoff        WCut        ...    1.0000e-14
Grids for H and He will be reduced by one unit

# of grid points (after initial pruning)     ...  35456 (   0.0 sec)
# of grid points (after weights+screening)   ...  32875 (   0.0 sec)
nearest neighbour list constructed           ...    0.0 sec
Grid point re-assignment to atoms done       ...    0.0 sec
Grid point division into batches done        ...    0.0 sec
Reduced shell lists constructed in    0.2 sec

Total number of grid points                  ...    32875
Total number of batches                      ...      524
Average number of points per batch           ...       62
Average number of grid points per atom       ...     2348
Average number of shells per batch           ...    41.78 (69.63%)
Average number of basis functions per batch  ...    88.54 (71.40%)
Average number of large shells per batch     ...    32.95 (78.87%)
Average number of large basis fcns per batch ...    70.02 (79.08%)
Maximum spatial batch extension              ...  16.56, 17.76, 22.17 au
Average spatial batch extension              ...   3.00,  3.03,  3.85 au

Time for grid setup =    0.260 sec

------------------------------
INITIAL GUESS: MODEL POTENTIAL
------------------------------
Loading Hartree-Fock densities                     ... done
Calculating cut-offs                               ... done
Setting up the integral package                    ... done
Initializing the effective Hamiltonian             ... done
Starting the Coulomb interaction                   ... done (   0.1 sec)
Reading the grid                                   ... done
Mapping shells                                     ... done
Starting the XC term evaluation                    ... done (   0.2 sec)
  promolecular density results
     # of electrons  =     55.996481182
     EX              =    -45.925586956
     EC              =     -1.882617426
     EX+EC           =    -47.808204382
Transforming the Hamiltonian                       ... done (   0.0 sec)
Diagonalizing the Hamiltonian                      ... done (   0.0 sec)
Back transforming the eigenvectors                 ... done (   0.0 sec)
Now organizing SCF variables                       ... done
                      ------------------
                      INITIAL GUESS DONE (   0.6 sec)
                      ------------------
--------------
SCF ITERATIONS
--------------
               ***  Starting incremental Fock matrix formation  ***

                         ----------------------------
                         !        ITERATION     0   !
                         ----------------------------
   Total Energy        :    -345.164950659118 Eh
   Energy Change       :    -345.164950659118 Eh
   MAX-DP              :       0.097948796214
   RMS-DP              :       0.003137610923
   Actual Damping      :       0.7000
   Actual Level Shift  :       0.2500 Eh
   Int. Num. El.       :    55.99967645 (UP=   27.99983822 DN=   27.99983822)
   Exchange            :   -37.61096729
   Correlation         :    -2.24855694


                         ----------------------------
                         !        ITERATION     1   !
                         ----------------------------
   Total Energy        :    -345.254469522906 Eh
   Energy Change       :      -0.089518863788 Eh
   MAX-DP              :       0.057622191117
   RMS-DP              :       0.002050111749
   Actual Damping      :       0.7000
   Actual Level Shift  :       0.2500 Eh
   Int. Num. El.       :    55.99961050 (UP=   27.99980525 DN=   27.99980525)
   Exchange            :   -37.35038761
   Correlation         :    -2.23885834

                               ***Turning on DIIS***

                         ----------------------------
                         !        ITERATION     2   !
                         ----------------------------
   Total Energy        :    -345.288545969878 Eh
   Energy Change       :      -0.034076446972 Eh
   MAX-DP              :       0.065120093544
   RMS-DP              :       0.003067223159
   Actual Damping      :       0.0000
   Actual Level Shift  :       0.2500 Eh
   Int. Num. El.       :    55.99957759 (UP=   27.99978879 DN=   27.99978879)
   Exchange            :   -37.18370049
   Correlation         :    -2.23212232
   DIIS-Error          :       0.031267564307


                         ----------------------------
                         !        ITERATION     3   !
                         ----------------------------
   Total Energy        :    -345.346227991069 Eh
   Energy Change       :      -0.057682021191 Eh
   MAX-DP              :       0.038452137703
   RMS-DP              :       0.001483610758
   Actual Damping      :       0.0000
   Actual Level Shift  :       0.2500 Eh
   Int. Num. El.       :    55.99954364 (UP=   27.99977182 DN=   27.99977182)
   Exchange            :   -36.94440624
   Correlation         :    -2.22141979
   DIIS-Error          :       0.047638044978
   DIIS coefficients:
      0.54780   0.45220


                         ----------------------------
                         !        ITERATION     4   !
                         ----------------------------
   Total Energy        :    -345.356307146372 Eh
   Energy Change       :      -0.010079155303 Eh
   MAX-DP              :       0.011351298070
   RMS-DP              :       0.000477089314
   Actual Damping      :       0.0000
   Actual Level Shift  :       0.2500 Eh
   Int. Num. El.       :    55.99956285 (UP=   27.99978143 DN=   27.99978143)
   Exchange            :   -37.04670025
   Correlation         :    -2.22582463
   DIIS-Error          :       0.022900601965
   DIIS coefficients:
      0.27164   0.14350   0.58485


                         ----------------------------
                         !        ITERATION     5   !
                         ----------------------------
   Total Energy        :    -345.357439145668 Eh
   Energy Change       :      -0.001131999296 Eh
   MAX-DP              :       0.004433611477
   RMS-DP              :       0.000139067185
   Actual Damping      :       0.0000
   Actual Level Shift  :       0.2500 Eh
   Int. Num. El.       :    55.99955869 (UP=   27.99977935 DN=   27.99977935)
   Exchange            :   -37.05773326
   Correlation         :    -2.22668482
   DIIS-Error          :       0.003935814758
   DIIS coefficients:
      0.06780   0.02570   0.13634   0.77017

                      *** Initiating the SOSCF procedure ***
                           *** Shutting down DIIS ***
                      *** Re-Reading the Fockian *** 
                      *** Removing any level shift *** 

                         ----------------------------
                         !        ITERATION     6   !
                         ----------------------------
   Total Energy        :    -345.357478768036 Eh
   Energy Change       :      -0.000039622368 Eh
   MAX-DP              :       0.001345148313
   RMS-DP              :       0.000055982170
   Orbital gradient    :       0.000227702090
   Orbital Rotation    :       0.000227702090
   Actual Damping      :       0.0000
   Int. Num. El.       :    55.99956108 (UP=   27.99978054 DN=   27.99978054)
   Exchange            :   -37.06444070
   Correlation         :    -2.22691351

               *** Restarting incremental Fock matrix formation ***

                         ----------------------------
                         !        ITERATION     7   !
                         ----------------------------
   Total Energy        :    -345.357480630714 Eh
   Energy Change       :      -0.000001862677 Eh
   MAX-DP              :       0.000604148230
   RMS-DP              :       0.000027143439
   Orbital gradient    :       0.000167066143
   Orbital Rotation    :       0.000839150116
   Actual Damping      :       0.0000
   Int. Num. El.       :    55.99956061 (UP=   27.99978030 DN=   27.99978030)
   Exchange            :   -37.06411548
   Correlation         :    -2.22690367


                         ----------------------------
                         !        ITERATION     8   !
                         ----------------------------
   Total Energy        :    -345.357479851435 Eh
   Energy Change       :       0.000000779279 Eh
   MAX-DP              :       0.000352583676
   RMS-DP              :       0.000016129724
   Orbital gradient    :       0.000309349880
   Orbital Rotation    :       0.000590982223
   Actual Damping      :       0.0000
   Int. Num. El.       :    55.99956096 (UP=   27.99978048 DN=   27.99978048)
   Exchange            :   -37.06429849
   Correlation         :    -2.22690165


                         ----------------------------
                         !        ITERATION     9   !
                         ----------------------------
   Total Energy        :    -345.357481211193 Eh
   Energy Change       :      -0.000001359758 Eh
   MAX-DP              :       0.000152027801
   RMS-DP              :       0.000004385312
   Orbital gradient    :       0.000039485044
   Orbital Rotation    :       0.000080652227
   Actual Damping      :       0.0000
   Int. Num. El.       :    55.99956074 (UP=   27.99978037 DN=   27.99978037)
   Exchange            :   -37.06414260
   Correlation         :    -2.22690217


                         ----------------------------
                         !        ITERATION    10   !
                         ----------------------------
   Total Energy        :    -345.357481180022 Eh
   Energy Change       :       0.000000031171 Eh
   MAX-DP              :       0.000097310229
   RMS-DP              :       0.000002693849
   Orbital gradient    :       0.000061570509
   Orbital Rotation    :       0.000056597567
   Actual Damping      :       0.0000
   Int. Num. El.       :    55.99956075 (UP=   27.99978038 DN=   27.99978038)
   Exchange            :   -37.06421046
   Correlation         :    -2.22690390


                         ----------------------------
                         !        ITERATION    11   !
                         ----------------------------
   Total Energy        :    -345.357481239489 Eh
   Energy Change       :      -0.000000059468 Eh
   MAX-DP              :       0.000039772694
   RMS-DP              :       0.000001080721
   Orbital gradient    :       0.000006899566
   Orbital Rotation    :       0.000018137003
   Actual Damping      :       0.0000
   Int. Num. El.       :    55.99956075 (UP=   27.99978037 DN=   27.99978037)
   Exchange            :   -37.06415215
   Correlation         :    -2.22690203


                         ----------------------------
                         !        ITERATION    12   !
                         ----------------------------
   Total Energy        :    -345.357481237787 Eh
   Energy Change       :       0.000000001702 Eh
   MAX-DP              :       0.000027021877
   RMS-DP              :       0.000000728262
   Orbital gradient    :       0.000011704100
   Orbital Rotation    :       0.000013312199
   Actual Damping      :       0.0000
   Int. Num. El.       :    55.99956076 (UP=   27.99978038 DN=   27.99978038)
   Exchange            :   -37.06418729
   Correlation         :    -2.22690314

                  ***Gradient check signals convergence***
              ***Rediagonalizing the Fockian in SOSCF/NRSCF***

               *****************************************************
               *                     SUCCESS                       *
               *           SCF CONVERGED AFTER  13 CYCLES          *
               *****************************************************

Setting up the final grid:

General Integration Accuracy     IntAcc      ...  5.010
Radial Grid Type                 RadialGrid  ... Gauss-Chebyshev
Angular Grid (max. acc.)         AngularGrid ... Lebedev-434
Angular grid pruning method      GridPruning ... 3 (G Style)
Weight generation scheme         WeightScheme... Becke
Basis function cutoff            BFCut       ...    1.0000e-11
Integration weight cutoff        WCut        ...    1.0000e-14
Grids for H and He will be reduced by one unit

# of grid points (after initial pruning)     ... 125880 (   0.1 sec)
# of grid points (after weights+screening)   ... 115771 (   0.2 sec)
nearest neighbour list constructed           ...    0.0 sec
Grid point re-assignment to atoms done       ...    0.0 sec
Grid point division into batches done        ...    0.7 sec
Reduced shell lists constructed in    1.2 sec

Total number of grid points                  ...   115771
Total number of batches                      ...     1816
Average number of points per batch           ...       63
Average number of grid points per atom       ...     8269
Average number of shells per batch           ...    38.58 (64.30%)
Average number of basis functions per batch  ...    81.46 (65.69%)
Average number of large shells per batch     ...    29.89 (77.47%)
Average number of large basis fcns per batch ...    63.32 (77.74%)
Maximum spatial batch extension              ...  16.77, 16.49, 19.91 au
Average spatial batch extension              ...   2.12,  2.12,  2.36 au

Final grid set up in    1.5 sec
Final integration                            ... done (   1.6 sec)
Change in XC energy                          ...    -0.000101800
Integrated number of electrons               ...    56.000004047
Previous integrated no of electrons          ...    55.999560752

----------------
TOTAL SCF ENERGY
----------------

Total Energy       :         -345.35758304 Eh           -9397.65760 eV

Components:
Nuclear Repulsion  :          320.65845066 Eh            8725.56004 eV
Electronic Energy  :         -666.01603370 Eh          -18123.21764 eV
One Electron Energy:        -1102.18813558 Eh          -29992.06394 eV
Two Electron Energy:          436.17210188 Eh           11868.84629 eV

Virial components:
Potential Energy   :         -688.68897654 Eh          -18740.17978 eV
Kinetic Energy     :          343.33139350 Eh            9342.52218 eV
Virial Ratio       :            2.00590156


DFT components:
N(Alpha)           :       28.000002023700 electrons
N(Beta)            :       28.000002023700 electrons
N(Total)           :       56.000004047400 electrons
E(X)               :      -37.064259509495 Eh       
E(C)               :       -2.226913246779 Eh       
E(XC)              :      -39.291172756274 Eh       
DFET-embed. en.    :        0.000000000000 Eh       

---------------
SCF CONVERGENCE
---------------

  Last Energy change         ...   -2.7875e-09  Tolerance :   1.0000e-08
  Last MAX-Density change    ...    5.7807e-06  Tolerance :   1.0000e-07
  Last RMS-Density change    ...    1.7894e-07  Tolerance :   5.0000e-09
  Last Orbital Gradient      ...    1.1987e-06  Tolerance :   1.0000e-05
  Last Orbital Rotation      ...    3.9364e-06  Tolerance :   1.0000e-05

             **** THE GBW FILE WAS UPDATED (/Users/lailaal-madhagi/Desktop/Testing_XAS_Analysis_code/Benzaldehyde//Results_dir_Benzaldehyde_geom_element_C_2019-11-04_22-42-45//GTE1_Benzaldehyde_geom_2019-11-04_22-42-57//opt.gbw) ****
             **** DENSITY FILE WAS UPDATED (/Users/lailaal-madhagi/Desktop/Testing_XAS_Analysis_code/Benzaldehyde//Results_dir_Benzaldehyde_geom_element_C_2019-11-04_22-42-45//GTE1_Benzaldehyde_geom_2019-11-04_22-42-57//opt.scfp.tmp) ****
             **** ENERGY FILE WAS UPDATED (/Users/lailaal-madhagi/Desktop/Testing_XAS_Analysis_code/Benzaldehyde//Results_dir_Benzaldehyde_geom_element_C_2019-11-04_22-42-45//GTE1_Benzaldehyde_geom_2019-11-04_22-42-57//opt.en.tmp) ****
----------------
ORBITAL ENERGIES
----------------

  NO   OCC          E(Eh)            E(eV) 
   0   2.0000     -19.133733      -520.6554 
   1   2.0000     -10.262642      -279.2607 
   2   2.0000     -10.199403      -277.5399 
   3   2.0000     -10.197835      -277.4972 
   4   2.0000     -10.197496      -277.4880 
   5   2.0000     -10.194599      -277.4091 
   6   2.0000     -10.194478      -277.4059 
   7   2.0000     -10.193414      -277.3769 
   8   2.0000      -1.032195       -28.0875 
   9   2.0000      -0.862306       -23.4645 
  10   2.0000      -0.767444       -20.8832 
  11   2.0000      -0.753604       -20.5066 
  12   2.0000      -0.649705       -17.6794 
  13   2.0000      -0.614563       -16.7231 
  14   2.0000      -0.573708       -15.6114 
  15   2.0000      -0.524452       -14.2711 
  16   2.0000      -0.483952       -13.1690 
  17   2.0000      -0.457574       -12.4512 
  18   2.0000      -0.440279       -11.9806 
  19   2.0000      -0.429225       -11.6798 
  20   2.0000      -0.417304       -11.3554 
  21   2.0000      -0.399914       -10.8822 
  22   2.0000      -0.364048        -9.9063 
  23   2.0000      -0.357631        -9.7316 
  24   2.0000      -0.352043        -9.5796 
  25   2.0000      -0.261598        -7.1184 
  26   2.0000      -0.257997        -7.0205 
  27   2.0000      -0.249720        -6.7952 
  28   0.0000      -0.059025        -1.6062 
  29   0.0000      -0.010350        -0.2816 
  30   0.0000       0.042762         1.1636 
  31   0.0000       0.092099         2.5062 
  32   0.0000       0.122729         3.3396 
  33   0.0000       0.153483         4.1765 
  34   0.0000       0.155760         4.2384 
  35   0.0000       0.162885         4.4323 
  36   0.0000       0.176744         4.8095 
  37   0.0000       0.185013         5.0344 
  38   0.0000       0.258061         7.0222 
  39   0.0000       0.269407         7.3309 
  40   0.0000       0.298737         8.1290 
  41   0.0000       0.314503         8.5581 
  42   0.0000       0.334975         9.1151 
  43   0.0000       0.371953        10.1214 
  44   0.0000       0.500152        13.6098 
  45   0.0000       0.504008        13.7147 
  46   0.0000       0.527900        14.3649 
  47   0.0000       0.536041        14.5864 
  48   0.0000       0.540651        14.7119 
  49   0.0000       0.552449        15.0329 
  50   0.0000       0.564175        15.3520 
  51   0.0000       0.589439        16.0395 
  52   0.0000       0.589602        16.0439 
  53   0.0000       0.607939        16.5429 
  54   0.0000       0.611987        16.6530 
  55   0.0000       0.630129        17.1467 
  56   0.0000       0.637052        17.3351 
  57   0.0000       0.653348        17.7785 
  58   0.0000       0.693633        18.8747 
  59   0.0000       0.696587        18.9551 
  60   0.0000       0.762735        20.7551 
  61   0.0000       0.815366        22.1872 
  62   0.0000       0.823277        22.4025 
  63   0.0000       0.832759        22.6605 
  64   0.0000       0.835479        22.7345 
  65   0.0000       0.852516        23.1982 
  66   0.0000       0.889413        24.2022 
  67   0.0000       0.895465        24.3668 
  68   0.0000       0.932940        25.3866 
  69   0.0000       0.938091        25.5268 
  70   0.0000       0.978646        26.6303 
  71   0.0000       0.987501        26.8713 
  72   0.0000       0.999235        27.1906 
  73   0.0000       1.059045        28.8181 
  74   0.0000       1.081529        29.4299 
  75   0.0000       1.118594        30.4385 
  76   0.0000       1.146885        31.2083 
  77   0.0000       1.177328        32.0367 
  78   0.0000       1.243727        33.8435 
  79   0.0000       1.247367        33.9426 
  80   0.0000       1.307790        35.5868 
  81   0.0000       1.319890        35.9160 
  82   0.0000       1.423313        38.7303 
  83   0.0000       1.431591        38.9556 
  84   0.0000       1.449659        39.4472 
  85   0.0000       1.458072        39.6762 
  86   0.0000       1.481139        40.3038 
  87   0.0000       1.499251        40.7967 
  88   0.0000       1.539709        41.8976 
  89   0.0000       1.659470        45.1565 
  90   0.0000       1.751894        47.6715 
  91   0.0000       1.762350        47.9560 
  92   0.0000       1.769422        48.1484 
  93   0.0000       1.799951        48.9791 
  94   0.0000       1.863441        50.7068 
  95   0.0000       1.891284        51.4645 
  96   0.0000       1.918410        52.2026 
  97   0.0000       1.967693        53.5436 
  98   0.0000       1.981024        53.9064 
  99   0.0000       2.012452        54.7616 
 100   0.0000       2.041148        55.5425 
 101   0.0000       2.063463        56.1497 
 102   0.0000       2.131044        57.9887 
 103   0.0000       2.140804        58.2542 
 104   0.0000       2.150584        58.5204 
 105   0.0000       2.209651        60.1277 
 106   0.0000       2.276390        61.9437 
 107   0.0000       2.293542        62.4105 
 108   0.0000       2.311071        62.8874 
 109   0.0000       2.366909        64.4069 
 110   0.0000       2.371129        64.5217 
 111   0.0000       2.525352        68.7183 
 112   0.0000       2.575887        70.0934 
 113   0.0000       2.577749        70.1441 
 114   0.0000       2.601383        70.7872 
 115   0.0000       2.662607        72.4532 
 116   0.0000       2.723542        74.1113 
 117   0.0000       2.725627        74.1681 
 118   0.0000       2.732537        74.3561 
 119   0.0000       2.844773        77.4102 
 120   0.0000       2.913294        79.2748 
 121   0.0000       2.973836        80.9222 
 122   0.0000       3.139506        85.4303 
 123   0.0000       3.403821        92.6227 
------------------
MOLECULAR ORBITALS
------------------
                      0         1         2         3         4         5   
                 -19.13373 -10.26264 -10.19940 -10.19783 -10.19750 -10.19460
                   2.00000   2.00000   2.00000   2.00000   2.00000   2.00000
                  --------  --------  --------  --------  --------  --------
  0C   1s         0.000005 -0.000041 -0.005235  0.991552  0.023418 -0.006907
  0C   2s         0.000050 -0.000180 -0.000089  0.036145  0.000449 -0.000401
  0C   1pz        0.000000  0.000000  0.000000  0.000000 -0.000000  0.000000
  0C   1px       -0.000023  0.000035  0.000284  0.000449 -0.000033  0.000199
  0C   1py       -0.000088  0.000038 -0.000082 -0.000646  0.000092  0.000461
  0C   3s         0.000378  0.003108  0.005207 -0.031551  0.002439 -0.004600
  0C   2pz       -0.000000  0.000001  0.000001 -0.000003  0.000001 -0.000001
  0C   2px       -0.000686  0.001487  0.001610 -0.003994  0.001072 -0.001968
  0C   2py        0.000399 -0.002209 -0.002159  0.005574 -0.001591  0.001849
  0C   1dz2       0.000005 -0.000030  0.000030 -0.000543 -0.000084  0.000030
  0C   1dxz      -0.000000  0.000000  0.000000  0.000001  0.000000  0.000000
  0C   1dyz       0.000000  0.000000  0.000000  0.000000 -0.000000 -0.000000
  0C   1dx2y2    -0.000024  0.000017  0.000106  0.000101  0.000024  0.000279
  0C   1dxy       0.000008  0.000018 -0.000021  0.000347  0.000013 -0.000160
  1C   1s        -0.000037  0.000107 -0.043302  0.063938 -0.006323 -0.081665
  1C   2s        -0.000214  0.000503  0.000543  0.000230 -0.000184 -0.003538
  1C   1pz        0.000000 -0.000000  0.000001  0.000001  0.000000  0.000000
  1C   1px        0.000054 -0.000067  0.000737  0.001307  0.000099  0.000121
  1C   1py       -0.000087  0.000081 -0.001066  0.000107  0.000065  0.000200
  1C   3s         0.003550 -0.007358 -0.011800  0.011410 -0.003137  0.007168
  1C   2pz        0.000001 -0.000001 -0.000001 -0.000002  0.000000 -0.000000
  1C   2px        0.000672 -0.000190  0.000318 -0.004373  0.000657 -0.001468
  1C   2py       -0.001691  0.004084  0.006047 -0.004133  0.001581 -0.003397
  1C   1dz2      -0.000078  0.000140 -0.000582  0.000573 -0.000125 -0.000052
  1C   1dxz       0.000000 -0.000000  0.000001 -0.000001  0.000000  0.000000
  1C   1dyz      -0.000000  0.000000 -0.000001 -0.000000 -0.000000 -0.000000
  1C   1dx2y2    -0.000023  0.000033 -0.000269 -0.001133 -0.000010 -0.000012
  1C   1dxy      -0.000094  0.000101 -0.001112 -0.000158 -0.000104  0.000011
  2C   1s        -0.000004  0.000071  0.001084  0.049002  0.004974  0.182429
  2C   2s        -0.000026  0.000330  0.000629 -0.000330 -0.000019  0.004631
  2C   1pz        0.000000 -0.000000  0.000000 -0.000000 -0.000000 -0.000000
  2C   1px        0.000045 -0.000041  0.000170 -0.000535 -0.000198 -0.000589
  2C   1py        0.000092 -0.000002  0.000024 -0.001198  0.000139  0.001046
  2C   3s         0.001322 -0.005397 -0.004839  0.011867 -0.002246  0.008109
  2C   2pz        0.000000 -0.000002 -0.000002  0.000003 -0.000001  0.000003
  2C   2px       -0.000343 -0.002553 -0.003249  0.005378 -0.001496  0.005288
  2C   2py       -0.001562  0.000906 -0.000249  0.002810 -0.000564 -0.001703
  2C   1dz2      -0.000020  0.000095  0.000104  0.000585  0.000003  0.000497
  2C   1dxz       0.000000 -0.000000 -0.000000  0.000000 -0.000000 -0.000000
  2C   1dyz      -0.000000  0.000000  0.000000 -0.000000  0.000000  0.000001
  2C   1dx2y2    -0.000024  0.000036  0.000014  0.000822  0.000028  0.000372
  2C   1dxy      -0.000029  0.000048  0.000001 -0.000796  0.000107  0.001031
  3C   1s        -0.000019  0.000044 -0.004113  0.001603  0.067653  0.972484
  3C   2s        -0.000177  0.000131  0.000044  0.000023  0.000649  0.035474
  3C   1pz        0.000000  0.000000  0.000000  0.000000 -0.000001  0.000000
  3C   1px        0.000006  0.000147  0.000352  0.000101 -0.001210  0.000628
  3C   1py       -0.000007 -0.000193  0.000125 -0.000285 -0.000076  0.000656
  3C   3s         0.003644  0.002191  0.004973 -0.005509  0.008512 -0.031222
  3C   2pz        0.000002 -0.000001  0.000000 -0.000000  0.000002 -0.000001
  3C   2px        0.003921 -0.001385  0.001002 -0.001279  0.003983 -0.003566
  3C   2py       -0.000900  0.003941  0.002939 -0.002860  0.001437 -0.006439
  3C   1dz2      -0.000024  0.000050 -0.000024 -0.000028  0.000632 -0.000495
  3C   1dxz       0.000000 -0.000000  0.000000  0.000000 -0.000001  0.000001
  3C   1dyz       0.000000 -0.000000  0.000000  0.000000 -0.000000 -0.000000
  3C   1dx2y2     0.000144 -0.000023  0.000168  0.000100 -0.001072  0.000401
  3C   1dxy       0.000058 -0.000151  0.000093  0.000071 -0.000219 -0.000134
  4C   1s         0.000102 -0.001595 -0.106614 -0.024150  0.986751 -0.067291
  4C   2s         0.000493  0.001040 -0.001884 -0.001356  0.036598 -0.004428
  4C   1pz       -0.000000  0.000000  0.000000  0.000000 -0.000000  0.000001
  4C   1px       -0.000257  0.000626  0.000450  0.000152 -0.000006  0.001349
  4C   1py       -0.000006 -0.000601  0.001232 -0.000204  0.000361 -0.000016
  4C   3s        -0.006425 -0.005618 -0.009638  0.004574 -0.032225  0.013998
  4C   2pz        0.000001 -0.000000  0.000002 -0.000002  0.000001 -0.000004
  4C   2px        0.004003 -0.001389  0.002182 -0.002646  0.001394 -0.006209
  4C   2py        0.006127 -0.003875 -0.006919  0.003794 -0.001160  0.005278
  4C   1dz2       0.000143 -0.000652 -0.000540 -0.000075 -0.000719  0.000679
  4C   1dxz      -0.000000  0.000001 -0.000000  0.000000  0.000001 -0.000001
  4C   1dyz       0.000000 -0.000001  0.000000  0.000000 -0.000000 -0.000000
  4C   1dx2y2     0.000220 -0.000247 -0.000696  0.000015 -0.000062 -0.001095
  4C   1dxy       0.000144 -0.001095  0.000867  0.000055  0.000270 -0.000277
  5C   1s         0.000011  0.000057 -0.988430 -0.005392 -0.106676  0.007049
  5C   2s        -0.000049  0.000108 -0.035979 -0.000265 -0.005721  0.000492
  5C   1pz       -0.000000  0.000000  0.000000  0.000000  0.000000  0.000000
  5C   1px       -0.000109  0.000194  0.000712  0.000253  0.000614  0.000087
  5C   1py        0.000306 -0.000477  0.000009 -0.000197  0.001239  0.000177
  5C   3s        -0.005132  0.007269  0.031435 -0.005264  0.012090 -0.007431
  5C   2pz        0.000001 -0.000003 -0.000004  0.000002 -0.000001  0.000002
  5C   2px        0.002367 -0.005369 -0.007019  0.003088 -0.002958  0.003872
  5C   2py       -0.001299  0.002223 -0.000757  0.000394 -0.003021  0.000503
  5C   1dz2       0.000010  0.000018  0.000488 -0.000016  0.000734 -0.000152
  5C   1dxz      -0.000000 -0.000000 -0.000000 -0.000000 -0.000000  0.000000
  5C   1dyz       0.000000 -0.000000  0.000000  0.000000 -0.000000 -0.000000
  5C   1dx2y2     0.000042 -0.000121  0.000328 -0.000027  0.000827 -0.000103
  5C   1dxy       0.000200 -0.000133  0.000167  0.000131 -0.000811 -0.000128
  6C   1s         0.000196 -0.995099  0.000118  0.000012 -0.001529  0.000110
  6C   2s         0.000178 -0.036015  0.000549 -0.000041 -0.001360 -0.000302
  6C   1pz        0.000000  0.000000 -0.000000 -0.000000  0.000000  0.000000
  6C   1px        0.000127  0.001116 -0.000042 -0.000054  0.000585  0.000124
  6C   1py        0.000088  0.001740  0.000142  0.000062 -0.000772  0.000063
  6C   3s         0.012557  0.012368 -0.002898  0.002165  0.006940  0.002518
  6C   2pz       -0.000003  0.000001  0.000000 -0.000001 -0.000002 -0.000001
  6C   2px       -0.007807  0.003896  0.000315 -0.000795 -0.002853 -0.001448
  6C   2py       -0.006983  0.006088 -0.001260  0.000641  0.001629  0.000793
  6C   1dz2       0.000085  0.001342  0.000015 -0.000059  0.000579 -0.000165
  6C   1dxz       0.000000 -0.000001 -0.000000  0.000000 -0.000001  0.000000
  6C   1dyz      -0.000000  0.000000 -0.000000 -0.000000  0.000001 -0.000000
  6C   1dx2y2     0.000676  0.001112 -0.000095 -0.000017  0.000306 -0.000048
  6C   1dxy      -0.000580 -0.000811 -0.000147 -0.000036  0.001067 -0.000008
  7O   1s         0.995146  0.000002  0.000009  0.000002  0.000009  0.000003
  7O   2s         0.029889 -0.000900  0.000178  0.000028  0.000035 -0.000031
  7O   1pz        0.000000  0.000000 -0.000000 -0.000000  0.000000 -0.000000
  7O   1px        0.000762  0.000401 -0.000009 -0.000019 -0.000005 -0.000023
  7O   1py        0.002079  0.000976  0.000027 -0.000000 -0.000096 -0.000062
  7O   3s        -0.022184  0.007661 -0.000523 -0.000241 -0.001345 -0.000317
  7O   2pz        0.000000  0.000000  0.000000  0.000000  0.000000  0.000000
  7O   2px       -0.001782  0.001953 -0.000002  0.000077  0.000213  0.000208
  7O   2py       -0.006435  0.004809 -0.000186 -0.000134 -0.000529 -0.000056
  7O   1dz2       0.000081 -0.001169  0.000048 -0.000007 -0.000165 -0.000039
  7O   1dxz       0.000000  0.000000 -0.000000  0.000000  0.000000  0.000000
  7O   1dyz       0.000000  0.000000  0.000000 -0.000000 -0.000000 -0.000000
  7O   1dx2y2     0.000319 -0.001205  0.000001  0.000016  0.000149 -0.000003
  7O   1dxy      -0.000095  0.001253  0.000008 -0.000007  0.000029 -0.000000
  8H   1s         0.000002  0.001015  0.000164 -0.000012 -0.000203  0.000025
  8H   2s         0.002217 -0.005602  0.000340  0.000113  0.000473  0.000569
  9H   1s        -0.000100  0.000148  0.000072 -0.001381  0.000022 -0.000076
  9H   2s        -0.000268  0.000662  0.000353  0.002781  0.000667 -0.000434
 10H   1s        -0.000119  0.000012 -0.000097 -0.000204 -0.000089 -0.000359
 10H   2s        -0.000260 -0.000574 -0.000943  0.001371 -0.000213  0.001796
 11H   1s        -0.000042 -0.000012  0.000186 -0.000221 -0.000022  0.000209
 11H   2s         0.000204 -0.000871 -0.001373  0.001419 -0.000228  0.000685
 12H   1s        -0.000211  0.000419  0.001388 -0.000080 -0.000105 -0.000053
 12H   2s        -0.000195  0.001375 -0.002659 -0.000583 -0.000126 -0.000739
 13H   1s        -0.000195  0.000302  0.000117 -0.000088 -0.000332 -0.001365
 13H   2s         0.000236  0.001076  0.000589 -0.000532  0.000542  0.002459
                      6         7         8         9        10        11   
                 -10.19448 -10.19341  -1.03219  -0.86231  -0.76744  -0.75360
                   2.00000   2.00000   2.00000   2.00000   2.00000   2.00000
                  --------  --------  --------  --------  --------  --------
  0C   1s         0.064515 -0.048495 -0.000859 -0.090372 -0.121347  0.023026
  0C   2s         0.004479 -0.003894  0.001233  0.171482  0.236755 -0.045159
  0C   1pz        0.000001  0.000000  0.000000  0.000026  0.000006 -0.000041
  0C   1px        0.001324  0.000446  0.000568  0.034961  0.002028 -0.093428
  0C   1py        0.000017  0.001191 -0.000490 -0.046900 -0.033310 -0.063279
  0C   3s        -0.015093  0.015836  0.004463  0.109303  0.171924 -0.033746
  0C   2pz       -0.000004  0.000002  0.000001  0.000004 -0.000005 -0.000005
  0C   2px       -0.005609  0.002045  0.000011  0.005047 -0.007850 -0.013646
  0C   2py        0.003673 -0.006949 -0.005835 -0.005225  0.002633 -0.013158
  0C   1dz2      -0.000659  0.000655 -0.000134 -0.008714 -0.009366  0.001703
  0C   1dxz       0.000001 -0.000000  0.000000  0.000008  0.000008 -0.000007
  0C   1dyz       0.000000 -0.000000 -0.000000 -0.000002 -0.000002  0.000001
  0C   1dx2y2     0.001095  0.000640  0.000004  0.000060 -0.001385 -0.009550
  0C   1dxy       0.000373 -0.000941  0.000015 -0.000160  0.001154  0.003006
  1C   1s        -0.988720  0.008645 -0.000973 -0.091863 -0.049663  0.121980
  1C   2s        -0.036482  0.000512  0.003079  0.173987  0.096329 -0.238339
  1C   1pz        0.000000  0.000000  0.000000 -0.000004 -0.000053 -0.000019
  1C   1px        0.000419  0.000139 -0.000052 -0.022518 -0.089466 -0.027076
  1C   1py        0.000850  0.000078 -0.000898 -0.055029  0.025605  0.033581
  1C   3s         0.033689 -0.007190 -0.020101  0.113184  0.067463 -0.179240
  1C   2pz       -0.000001  0.000000 -0.000005  0.000000 -0.000010 -0.000005
  1C   2px       -0.003286  0.001570 -0.006037 -0.000947 -0.015907 -0.010374
  1C   2py       -0.007086  0.003330  0.011476 -0.007977  0.008721 -0.005197
  1C   1dz2       0.000678 -0.000072  0.000099 -0.008886 -0.003858  0.009118
  1C   1dxz      -0.000001  0.000000 -0.000000  0.000008  0.000006 -0.000008
  1C   1dyz       0.000000 -0.000000  0.000000 -0.000003  0.000003  0.000004
  1C   1dx2y2    -0.000365  0.000019  0.000102 -0.000173  0.006350  0.002048
  1C   1dxy       0.000362 -0.000048  0.000216 -0.000168  0.005659  0.002798
  2C   1s        -0.003459  0.977034 -0.001530 -0.088974 -0.086862 -0.098502
  2C   2s        -0.000107  0.036356  0.002837  0.168770  0.168366  0.192814
  2C   1pz        0.000000  0.000001  0.000001  0.000031 -0.000003  0.000024
  2C   1px        0.000195  0.001030  0.001431  0.057986  0.014354  0.024712
  2C   1py        0.000010 -0.000001 -0.001127  0.006579  0.071967 -0.070683
  2C   3s         0.005348 -0.035538 -0.003046  0.104880  0.127019  0.139387
  2C   2pz        0.000001 -0.000005 -0.000000  0.000003 -0.000003 -0.000002
  2C   2px        0.002722 -0.008807 -0.001284  0.005737 -0.002742 -0.007400
  2C   2py        0.000642 -0.000682 -0.002653  0.002127  0.007890 -0.010890
  2C   1dz2       0.000041 -0.000741 -0.000175 -0.008560 -0.006845 -0.007293
  2C   1dxz      -0.000000  0.000000  0.000000  0.000008  0.000005  0.000008
  2C   1dyz      -0.000000 -0.000000 -0.000000 -0.000002  0.000001 -0.000005
  2C   1dx2y2     0.000020 -0.000556  0.000033  0.000076 -0.001730  0.000884
  2C   1dxy      -0.000070 -0.000228 -0.000190  0.000079  0.006192 -0.006532
  3C   1s        -0.081958 -0.182468 -0.008027 -0.090280  0.024232 -0.122589
  3C   2s        -0.002519 -0.008853  0.014167  0.171410 -0.047819  0.240045
  3C   1pz        0.000000  0.000001  0.000005  0.000007 -0.000058 -0.000018
  3C   1px        0.000040  0.000654  0.009113  0.027714 -0.093815 -0.022601
  3C   1py        0.000043 -0.001237 -0.002996  0.052992  0.041054  0.035899
  3C   3s        -0.001607  0.020371  0.009404  0.107815 -0.034360  0.181014
  3C   2pz       -0.000000 -0.000000  0.000002 -0.000000 -0.000006 -0.000006
  3C   2px       -0.000729  0.001425  0.004800  0.000883 -0.008134 -0.011373
  3C   2py       -0.002447  0.007637  0.002752  0.006654  0.006804 -0.002286
  3C   1dz2       0.000121  0.000702 -0.001313 -0.008786  0.001869 -0.009222
  3C   1dxz      -0.000000 -0.000001  0.000002  0.000009 -0.000005  0.000008
  3C   1dyz       0.000000  0.000001 -0.000001 -0.000002 -0.000003 -0.000004
  3C   1dx2y2    -0.000025  0.000206  0.000631  0.000324 -0.007404 -0.001731
  3C   1dxy       0.000038  0.001139 -0.000446  0.000170 -0.005246 -0.002630
  4C   1s         0.002409  0.008907 -0.022994 -0.099027  0.125669 -0.027714
  4C   2s         0.000051  0.000783  0.043169  0.189084 -0.246455  0.054144
  4C   1pz       -0.000000 -0.000000  0.000009 -0.000022 -0.000020 -0.000041
  4C   1px       -0.000185 -0.000083  0.009532 -0.026039 -0.037357 -0.092873
  4C   1py        0.000141 -0.000118 -0.027230  0.046240 -0.004952 -0.063470
  4C   3s         0.005849 -0.008654  0.025671  0.111619 -0.174885  0.045227
  4C   2pz       -0.000000  0.000002  0.000007 -0.000009 -0.000003 -0.000006
  4C   2px        0.000013  0.003741  0.006574 -0.010800 -0.004182 -0.014417
  4C   2py        0.002461 -0.002135 -0.024727  0.016322  0.007127 -0.013617
  4C   1dz2      -0.000013 -0.000143 -0.003619 -0.008477  0.007988 -0.001711
  4C   1dxz       0.000000  0.000000  0.000002  0.000008 -0.000007  0.000007
  4C   1dyz      -0.000000  0.000000 -0.000004 -0.000002  0.000002 -0.000000
  4C   1dx2y2     0.000009  0.000126 -0.002909  0.000695  0.000394  0.009401
  4C   1dxy      -0.000036  0.000133 -0.003944  0.001028 -0.001101 -0.002645
  5C   1s         0.043219  0.000634 -0.004495 -0.096467  0.071227  0.098248
  5C   2s         0.003737 -0.000500  0.008879  0.183068 -0.139123 -0.192306
  5C   1pz       -0.000001  0.000000  0.000001 -0.000030 -0.000018  0.000023
  5C   1px       -0.000846  0.000116 -0.000719 -0.057955 -0.005669  0.021492
  5C   1py        0.001042  0.000014 -0.006819 -0.010704  0.093100 -0.074819
  5C   3s        -0.015184  0.005227  0.024538  0.113339 -0.103802 -0.145007
  5C   2pz        0.000004 -0.000002 -0.000013 -0.000000 -0.000010 -0.000002
  5C   2px        0.006273 -0.003720 -0.019206 -0.001604 -0.012204 -0.007262
  5C   2py       -0.001344  0.000063  0.012851 -0.004143  0.020712 -0.011478
  5C   1dz2      -0.000624 -0.000057 -0.000612 -0.009345  0.005587  0.007362
  5C   1dxz       0.000001  0.000000  0.000000  0.000009 -0.000003 -0.000008
  5C   1dyz      -0.000001 -0.000000 -0.000000 -0.000002 -0.000002  0.000005
  5C   1dx2y2    -0.000453  0.000009 -0.000395 -0.000245  0.002833 -0.000895
  5C   1dxy      -0.001037  0.000003  0.000038  0.000124 -0.006935  0.006573
  6C   1s        -0.000007 -0.000018 -0.117810 -0.015024  0.050050 -0.002998
  6C   2s         0.000218 -0.000117  0.225480  0.029143 -0.101014  0.006458
  6C   1pz       -0.000000  0.000000 -0.000015 -0.000016  0.000030 -0.000014
  6C   1px       -0.000011  0.000001 -0.072413 -0.011979  0.018576 -0.020664
  6C   1py       -0.000003  0.000002 -0.163336  0.061219 -0.123064  0.018976
  6C   3s        -0.000485 -0.000264  0.066037  0.030856 -0.069720  0.002366
  6C   2pz        0.000000 -0.000000  0.000012 -0.000006  0.000002 -0.000001
  6C   2px        0.000118 -0.000444  0.026856 -0.006958 -0.004580 -0.001228
  6C   2py       -0.000719 -0.000290  0.015281  0.013068 -0.028063  0.000165
  6C   1dz2       0.000049 -0.000015 -0.015289 -0.001508  0.003278 -0.000021
  6C   1dxz      -0.000000  0.000000  0.000003  0.000003 -0.000006  0.000002
  6C   1dyz       0.000000 -0.000000  0.000003 -0.000003  0.000005 -0.000001
  6C   1dx2y2     0.000021  0.000007 -0.015649  0.001544 -0.003356  0.002370
  6C   1dxy       0.000032 -0.000052  0.017078 -0.005839  0.009049 -0.002653
  7O   1s         0.000001 -0.000000 -0.193061  0.023331 -0.038181  0.009885
  7O   2s         0.000031 -0.000005  0.423947 -0.052820  0.088820 -0.022977
  7O   1pz        0.000000  0.000000  0.000009 -0.000005  0.000009 -0.000006
  7O   1px        0.000014  0.000021  0.058900 -0.010759  0.014547 -0.010504
  7O   1py       -0.000002 -0.000004  0.149887 -0.006528 -0.004730  0.002451
  7O   3s        -0.000195 -0.000184  0.386185 -0.050762  0.083106 -0.024059
  7O   2pz       -0.000000 -0.000000  0.000001 -0.000001  0.000003 -0.000003
  7O   2px       -0.000143 -0.000072  0.016142 -0.001945  0.003119 -0.005435
  7O   2py        0.000043 -0.000026  0.050875 -0.001437 -0.008407  0.002079
  7O   1dz2       0.000001 -0.000029 -0.003630 -0.000239  0.001161 -0.000385
  7O   1dxz      -0.000000  0.000000 -0.000002  0.000000 -0.000000  0.000000
  7O   1dyz      -0.000000 -0.000000  0.000002 -0.000001  0.000001 -0.000001
  7O   1dx2y2    -0.000020  0.000006 -0.008670 -0.000101  0.001691 -0.000628
  7O   1dxy      -0.000016 -0.000013  0.007657 -0.000815  0.000669 -0.001018
  8H   1s         0.000063  0.000027  0.030789  0.007853 -0.032398 -0.004257
  8H   2s        -0.000083  0.000191 -0.013345  0.002736 -0.005540 -0.004032
  9H   1s         0.000047 -0.000052  0.000418  0.034169  0.068964 -0.013982
  9H   2s        -0.001031  0.001186  0.001438  0.004095  0.011969 -0.002314
 10H   1s         0.000063 -0.001318  0.000391  0.033243  0.048580  0.058683
 10H   2s         0.000401  0.002296 -0.000201  0.003455  0.009023  0.010394
 11H   1s         0.001340 -0.000073  0.000403  0.034613  0.027619 -0.073496
 11H   2s        -0.002571 -0.000590 -0.001474  0.004025  0.005428 -0.013707
 12H   1s         0.000085  0.000119  0.002992  0.037557 -0.044706 -0.060793
 12H   2s        -0.000946  0.000993  0.005238  0.002746 -0.007171 -0.011307
 13H   1s         0.000009  0.000113  0.004646  0.032890 -0.014114  0.071386
 13H   2s        -0.001118  0.000688  0.004410  0.001869 -0.000026  0.010451
                     12        13        14        15        16        17   
                  -0.64970  -0.61456  -0.57371  -0.52445  -0.48395  -0.45757
                   2.00000   2.00000   2.00000   2.00000   2.00000   2.00000
                  --------  --------  --------  --------  --------  --------
  0C   1s        -0.094347  0.028566 -0.052471 -0.018130 -0.046869  0.030984
  0C   2s         0.191778 -0.058269  0.106996  0.038353  0.094381 -0.063003
  0C   1pz       -0.000036 -0.000059 -0.000027 -0.000109 -0.000044  0.000063
  0C   1px       -0.058324 -0.144390 -0.056627 -0.156726 -0.022886  0.149637
  0C   1py        0.020044 -0.127159 -0.028714  0.146134  0.198168  0.127973
  0C   3s         0.144141 -0.042883  0.077422  0.046918  0.124385 -0.091811
  0C   2pz       -0.000022 -0.000010 -0.000018 -0.000038 -0.000009  0.000018
  0C   2px       -0.030291 -0.030072 -0.030895 -0.055497  0.001825  0.046867
  0C   2py        0.033669 -0.039497  0.003002  0.051001  0.064688  0.048425
  0C   1dz2      -0.004882  0.001285 -0.001818 -0.001856 -0.002575  0.000672
  0C   1dxz       0.000004 -0.000006  0.000001  0.000001  0.000003  0.000002
  0C   1dyz      -0.000003  0.000002 -0.000004 -0.000001 -0.000008  0.000004
  0C   1dx2y2    -0.002486 -0.007217 -0.003897 -0.001077 -0.003032  0.005668
  0C   1dxy      -0.001491  0.004180 -0.005884 -0.000574 -0.012223  0.005593
  1C   1s         0.036926  0.069205  0.069022  0.011505  0.045445 -0.025881
  1C   2s        -0.074328 -0.140918 -0.141888 -0.022258 -0.092076  0.052156
  1C   1pz       -0.000076  0.000077 -0.000040  0.000027 -0.000064 -0.000099
  1C   1px       -0.124025  0.112167 -0.099242  0.087630 -0.109113 -0.128420
  1C   1py        0.053217 -0.097901 -0.091287  0.130004  0.026890  0.182905
  1C   3s        -0.037261 -0.101833 -0.133590 -0.014818 -0.124247  0.074568
  1C   2pz       -0.000014  0.000021 -0.000020  0.000004 -0.000017 -0.000035
  1C   2px       -0.027950  0.025298 -0.049079  0.021142 -0.027315 -0.045025
  1C   2py       -0.005031 -0.049478 -0.042412  0.044310  0.014895  0.063863
  1C   1dz2       0.001756  0.003136  0.003190 -0.000618  0.001389 -0.001503
  1C   1dxz       0.000002 -0.000003 -0.000001  0.000002  0.000004 -0.000003
  1C   1dyz       0.000003 -0.000003  0.000000 -0.000002 -0.000002  0.000002
  1C   1dx2y2     0.007262 -0.001840  0.003357  0.001756  0.007524 -0.006175
  1C   1dxy       0.003289 -0.006861 -0.002419 -0.003823 -0.006775  0.007274
  2C   1s        -0.003556 -0.098975  0.031387 -0.000846  0.055051 -0.022454
  2C   2s         0.007561  0.200770 -0.065199  0.003137 -0.111416  0.042642
  2C   1pz       -0.000039 -0.000043  0.000011 -0.000103  0.000057 -0.000034
  2C   1px       -0.028620 -0.070073  0.061687 -0.180253  0.081197 -0.119028
  2C   1py        0.150556  0.033877  0.150410  0.030811 -0.083942 -0.200563
  2C   3s         0.017303  0.155717 -0.064815  0.012817 -0.154081  0.072182
  2C   2pz       -0.000008 -0.000029  0.000008 -0.000036  0.000012 -0.000007
  2C   2px       -0.002863 -0.051257  0.025877 -0.062846  0.018629 -0.029509
  2C   2py        0.038915  0.007077  0.039591  0.007445 -0.011321 -0.058405
  2C   1dz2      -0.000318 -0.004643  0.001495 -0.001132  0.002075 -0.001981
  2C   1dxz      -0.000002  0.000006 -0.000003 -0.000000 -0.000007  0.000008
  2C   1dyz       0.000004  0.000001  0.000002 -0.000001 -0.000004 -0.000000
  2C   1dx2y2    -0.002693  0.004622 -0.001831 -0.002371 -0.011704  0.009711
  2C   1dxy       0.008203  0.002691  0.003960  0.000041 -0.005661 -0.002605
  3C   1s         0.078070  0.064606  0.037839 -0.003700 -0.061568  0.026120
  3C   2s        -0.155688 -0.131024 -0.080505  0.007206  0.125724 -0.050691
  3C   1pz        0.000025 -0.000084  0.000087  0.000016 -0.000034 -0.000083
  3C   1px        0.041454 -0.124329  0.170576 -0.018679 -0.081434 -0.118624
  3C   1py       -0.018516  0.099239  0.041334 -0.170842 -0.072510  0.114314
  3C   3s        -0.134513 -0.111391 -0.050026  0.031289  0.171658 -0.100935
  3C   2pz        0.000004 -0.000021  0.000033  0.000008 -0.000022 -0.000034
  3C   2px        0.008511 -0.025560  0.070329 -0.001838 -0.037858 -0.048969
  3C   2py        0.007042  0.048848  0.036899 -0.056318  0.004141  0.046324
  3C   1dz2       0.004292  0.003119  0.001473 -0.001338 -0.002283  0.001463
  3C   1dxz      -0.000002 -0.000004  0.000001  0.000003 -0.000003  0.000002
  3C   1dyz      -0.000000 -0.000003  0.000004  0.000000  0.000004 -0.000001
  3C   1dx2y2     0.002905 -0.003269  0.005149  0.002739 -0.006438  0.004956
  3C   1dxy      -0.003384 -0.006618  0.004957  0.000331  0.011082 -0.003551
  4C   1s        -0.044901  0.034121 -0.063506 -0.015970  0.029946 -0.041553
  4C   2s         0.092924 -0.069322  0.130537  0.034090 -0.060670  0.086715
  4C   1pz        0.000096  0.000061 -0.000054  0.000047 -0.000037  0.000071
  4C   1px        0.144040  0.149406 -0.059856  0.052402 -0.020131  0.170902
  4C   1py       -0.107275  0.132758  0.137812 -0.112867  0.161242  0.145113
  4C   3s         0.055506 -0.067020  0.097942  0.049669 -0.093924  0.098896
  4C   2pz        0.000016  0.000005  0.000011  0.000027  0.000004  0.000017
  4C   2px        0.018814  0.017166  0.024087  0.036367  0.007794  0.032434
  4C   2py       -0.037595  0.030051  0.012866 -0.046824 -0.000558  0.002716
  4C   1dz2      -0.001299  0.000892 -0.000862  0.000109  0.000536  0.000197
  4C   1dxz       0.000002 -0.000005 -0.000002 -0.000002  0.000002 -0.000001
  4C   1dyz      -0.000005  0.000001  0.000003  0.000004  0.000007 -0.000001
  4C   1dx2y2    -0.000896 -0.005863 -0.004236 -0.001283  0.008270 -0.002160
  4C   1dxy      -0.008552  0.003046  0.006346  0.008078  0.010803 -0.001478
  5C   1s         0.054296 -0.096147 -0.018756 -0.025730 -0.034115  0.024467
  5C   2s        -0.108564  0.194664  0.036152  0.054033  0.065319 -0.053174
  5C   1pz        0.000035  0.000050 -0.000013  0.000096  0.000086 -0.000008
  5C   1px        0.033583  0.079626 -0.069777  0.180349  0.126067 -0.086785
  5C   1py       -0.106508 -0.039408 -0.160084  0.014196 -0.115459 -0.255981
  5C   3s        -0.088498  0.163646  0.042942  0.068662  0.126955 -0.022027
  5C   2pz        0.000010  0.000034 -0.000013  0.000033  0.000019 -0.000003
  5C   2px        0.006995  0.055752 -0.032291  0.063334  0.019453 -0.034284
  5C   2py       -0.042644 -0.022805 -0.030667  0.015143 -0.052990 -0.103128
  5C   1dz2       0.002766 -0.004697 -0.000482 -0.001950 -0.002322  0.000814
  5C   1dxz      -0.000005  0.000007  0.000000  0.000002  0.000006 -0.000008
  5C   1dyz       0.000001  0.000001  0.000005  0.000001  0.000004  0.000001
  5C   1dx2y2    -0.004373  0.004715  0.001921  0.001027  0.009100 -0.012044
  5C   1dxy       0.001395  0.003041  0.009044  0.002411  0.006744  0.004228
  6C   1s        -0.108244 -0.000543  0.090742  0.038026  0.020341  0.029849
  6C   2s         0.223631 -0.000168 -0.190763 -0.080914 -0.047773 -0.068453
  6C   1pz       -0.000002  0.000048 -0.000066 -0.000124  0.000147 -0.000009
  6C   1px        0.041521  0.081519 -0.136661 -0.210491  0.250968  0.015745
  6C   1py        0.156442 -0.023169 -0.046620  0.067214 -0.068277  0.112374
  6C   3s         0.189744  0.007763 -0.196423 -0.102452 -0.061005 -0.062373
  6C   2pz        0.000006  0.000012 -0.000019 -0.000034  0.000052  0.000011
  6C   2px        0.028915  0.024984 -0.046354 -0.062019  0.088327  0.027952
  6C   2py        0.059893  0.009237 -0.042902  0.002026 -0.028458  0.026781
  6C   1dz2      -0.004965 -0.000470  0.003337  0.002686 -0.000845  0.001195
  6C   1dxz       0.000010 -0.000002 -0.000009 -0.000005  0.000001 -0.000005
  6C   1dyz      -0.000004  0.000001 -0.000000 -0.000001  0.000002 -0.000002
  6C   1dx2y2     0.008154 -0.004064 -0.011466 -0.004870  0.001473 -0.007138
  6C   1dxy      -0.007727  0.004022  0.000723 -0.001725  0.002822 -0.002596
  7O   1s         0.056771 -0.011285 -0.050288 -0.019744 -0.019196 -0.045721
  7O   2s        -0.133718  0.025804  0.118417  0.043650  0.042817  0.102025
  7O   1pz        0.000002  0.000023 -0.000027 -0.000069  0.000073 -0.000006
  7O   1px        0.016488  0.035673 -0.066646 -0.129540  0.100542 -0.062114
  7O   1py        0.044724 -0.021605 -0.060389 -0.009881 -0.123760 -0.179995
  7O   3s        -0.139907  0.040444  0.142511  0.070296  0.077504  0.188729
  7O   2pz        0.000002  0.000012 -0.000013 -0.000037  0.000039 -0.000002
  7O   2px        0.012267  0.019583 -0.033785 -0.068478  0.053718 -0.028638
  7O   2py        0.030637 -0.009765 -0.035641 -0.001212 -0.063866 -0.090995
  7O   1dz2      -0.003160  0.001026  0.003836  0.001403  0.002616  0.006017
  7O   1dxz       0.000001  0.000000 -0.000002 -0.000003  0.000003 -0.000002
  7O   1dyz       0.000000  0.000002 -0.000002 -0.000006  0.000006 -0.000000
  7O   1dx2y2    -0.003170  0.002693  0.000647 -0.004959  0.010903  0.005274
  7O   1dxy       0.002890  0.002868 -0.006326 -0.009521  0.006138 -0.004828
  8H   1s         0.108994  0.033504 -0.146529 -0.133697  0.108527 -0.022912
  8H   2s         0.033619  0.017641 -0.070023 -0.077038  0.085334 -0.026142
  9H   1s         0.093254 -0.031508  0.051007  0.124642  0.146717 -0.025649
  9H   2s         0.025070 -0.010736  0.019361  0.075758  0.101087 -0.015032
 10H   1s         0.008333  0.108927 -0.062928  0.089803 -0.098304  0.106205
 10H   2s         0.003970  0.036413 -0.029144  0.054798 -0.062736  0.081675
 11H   1s        -0.029292 -0.075434 -0.117973  0.067255 -0.059808  0.096359
 11H   2s        -0.007315 -0.025583 -0.051763  0.044632 -0.037745  0.070038
 12H   1s        -0.032501  0.111977 -0.026883  0.115031  0.102734 -0.098391
 12H   2s        -0.008651  0.038685 -0.017429  0.064909  0.080777 -0.074039
 13H   1s        -0.060179 -0.066797 -0.080117  0.085260  0.115718 -0.056577
 13H   2s        -0.020394 -0.015768 -0.022152  0.053378  0.077025 -0.019968
                     18        19        20        21        22        23   
                  -0.44028  -0.42922  -0.41730  -0.39991  -0.36405  -0.35763
                   2.00000   2.00000   2.00000   2.00000   2.00000   2.00000
                  --------  --------  --------  --------  --------  --------
  0C   1s        -0.027180 -0.001144  0.002008 -0.000000  0.006327 -0.000000
  0C   2s         0.058356  0.001263 -0.006276 -0.000000 -0.020809  0.000001
  0C   1pz        0.000144  0.000005  0.000001 -0.095035 -0.000147 -0.221571
  0C   1px        0.229435  0.031347  0.046244  0.000055 -0.199274  0.000122
  0C   1py       -0.106968  0.087594  0.158937 -0.000014  0.176958 -0.000050
  0C   3s         0.094473  0.003862 -0.014785  0.000002  0.009949  0.000003
  0C   2pz        0.000044 -0.000011  0.000011 -0.054577 -0.000042 -0.130056
  0C   2px        0.071311 -0.021540  0.034993  0.000031 -0.055295  0.000072
  0C   2py       -0.030238 -0.001285  0.053996 -0.000010  0.036293 -0.000028
  0C   1dz2       0.001429 -0.000585 -0.001051 -0.000004 -0.003537 -0.000007
  0C   1dxz       0.000000  0.000008  0.000002 -0.002880  0.000001 -0.005282
  0C   1dyz       0.000002 -0.000002 -0.000003  0.003982 -0.000014  0.006767
  0C   1dx2y2     0.003639  0.011292 -0.000027  0.000001 -0.010218  0.000002
  0C   1dxy       0.000987 -0.006801 -0.005548 -0.000003 -0.021230 -0.000003
  1C   1s         0.001242 -0.014587  0.013650  0.000000  0.005042  0.000000
  1C   2s         0.000152  0.033806 -0.024580 -0.000000 -0.009130 -0.000001
  1C   1pz       -0.000098  0.000020 -0.000050 -0.107506  0.000131 -0.207942
  1C   1px       -0.218913 -0.042201 -0.079630  0.000056  0.214165  0.000112
  1C   1py       -0.124995 -0.265889  0.045622 -0.000018 -0.144907 -0.000021
  1C   3s         0.017344  0.051288 -0.083334 -0.000002 -0.016885 -0.000001
  1C   2pz       -0.000012 -0.000008 -0.000024 -0.056279  0.000046 -0.124811
  1C   2px       -0.037298 -0.034322 -0.032995  0.000030  0.078915  0.000068
  1C   2py       -0.050428 -0.066791  0.042648 -0.000008 -0.049307 -0.000015
  1C   1dz2       0.001938  0.002275  0.000847 -0.000001  0.000646  0.000003
  1C   1dxz       0.000005 -0.000001  0.000000  0.000854 -0.000001  0.004901
  1C   1dyz       0.000002 -0.000006 -0.000001  0.005359 -0.000007  0.006886
  1C   1dx2y2     0.012558 -0.000362  0.001396 -0.000001 -0.005092 -0.000004
  1C   1dxy      -0.000214 -0.011712 -0.002811 -0.000003 -0.012569 -0.000002
  2C   1s         0.001235  0.024444  0.000774 -0.000000  0.000560 -0.000000
  2C   2s        -0.002787 -0.052787 -0.002926  0.000000  0.002287  0.000001
  2C   1pz        0.000088 -0.000146  0.000026 -0.106058  0.000114 -0.199525
  2C   1px        0.143161 -0.268299 -0.000622  0.000058  0.171661  0.000109
  2C   1py       -0.054868  0.005129 -0.171729 -0.000018 -0.190850 -0.000014
  2C   3s         0.026510 -0.102226 -0.008826 -0.000001 -0.002099 -0.000006
  2C   2pz        0.000043 -0.000044  0.000013 -0.053824  0.000032 -0.124289
  2C   2px        0.061631 -0.084114  0.015961  0.000029  0.046138  0.000064
  2C   2py       -0.058412 -0.008465 -0.027217 -0.000010 -0.081753 -0.000013
  2C   1dz2       0.000958 -0.001927 -0.000332 -0.000005  0.001957 -0.000007
  2C   1dxz      -0.000006  0.000004  0.000002 -0.005259 -0.000007 -0.008048
  2C   1dyz       0.000002  0.000003 -0.000003  0.000686 -0.000009 -0.002716
  2C   1dx2y2    -0.007169  0.004928  0.002234  0.000003 -0.012165  0.000004
  2C   1dxy       0.005854  0.005899 -0.005884 -0.000001 -0.013236  0.000001
  3C   1s         0.003480  0.011419  0.000251  0.000000 -0.006150  0.000000
  3C   2s        -0.006266 -0.025907  0.004607 -0.000001  0.016431 -0.000001
  3C   1pz       -0.000121  0.000007 -0.000060 -0.145653 -0.000133 -0.151969
  3C   1px       -0.239114 -0.060410 -0.073687  0.000077 -0.176965  0.000082
  3C   1py       -0.059803 -0.253230  0.130220 -0.000022  0.199060 -0.000040
  3C   3s        -0.075442 -0.052407 -0.060938  0.000000 -0.016296  0.000005
[...]
 1 C  px              0.1       0.0       0.0       0.1       0.6       0.0
 1 C  py              0.0       0.0       0.6       0.1       0.2       0.0
 1 C  dz2             0.1       0.0       1.0       7.5       0.0       0.0
 1 C  dxz             0.0       0.0       0.0       0.0       0.0       6.7
 1 C  dyz             0.0       5.1       0.0       0.0       0.0       0.5
 1 C  dx2y2           1.7       0.0       1.6       1.0       2.6       0.0
 1 C  dxy             1.1       0.0       1.0       3.3       0.0       0.0
 2 C  s               0.1       0.0       0.6       0.1       6.5       0.0
 2 C  pz              0.0       0.4       0.0       0.0       0.0       0.0
 2 C  px              0.0       0.0       0.4       0.0       1.0       0.0
 2 C  py              0.0       0.0       0.2       0.1       0.6       0.0
 2 C  dz2             0.1       0.0       0.8       0.0      17.9       0.0
 2 C  dxz             0.0       5.5       0.0       0.0       0.0       0.4
 2 C  dyz             0.0       2.7       0.0       0.0       0.0       7.8
 2 C  dx2y2           0.0       0.0       3.0       0.9       1.6       0.0
 2 C  dxy             2.1       0.0       0.3       3.4       0.3       0.0
 3 C  s               1.6       0.0       1.3       3.7       0.9       0.0
 3 C  pz              0.0       0.2       0.0       0.0       0.0       0.1
 3 C  px              0.2       0.0       1.1       0.7       0.5       0.0
 3 C  py              0.1       0.0       0.2       0.2       0.2       0.0
 3 C  dz2             3.9       0.0       2.1       9.6       1.9       0.0
 3 C  dxz             0.0       1.8       0.0       0.0       0.0       1.5
 3 C  dyz             0.0       4.8       0.0       0.0       0.0       3.6
 3 C  dx2y2           0.1       0.0       1.7       0.1       6.9       0.0
 3 C  dxy             2.9       0.0       0.4       7.4       0.4       0.0
 4 C  s               0.2       0.0       0.3       3.1       3.2       0.0
 4 C  pz              0.0       0.2       0.0       0.0       0.0       0.0
 4 C  px              1.1       0.0       1.0       1.3       0.0       0.0
 4 C  py              3.4       0.0       1.8       0.0       0.1       0.0
 4 C  dz2             0.9       0.0       0.4       6.8       8.6       0.0
 4 C  dxz             0.0       2.9       0.0       0.0       0.0       0.1
 4 C  dyz             0.0      28.6       0.0       0.0       0.0       9.1
 4 C  dx2y2           0.1       0.0       0.1       1.5       0.6       0.0
 4 C  dxy             0.7       0.0       0.1       4.4       0.6       0.0
 5 C  s               2.7       0.0       1.1       0.5       2.8       0.0
 5 C  pz              0.0       0.8       0.0       0.0       0.0       0.0
 5 C  px              0.1       0.0       0.1       0.1       0.6       0.0
 5 C  py              0.8       0.0       1.4       0.0       0.4       0.0
 5 C  dz2             9.1       0.0       2.3       1.1       8.2       0.0
 5 C  dxz             0.0      11.6       0.0       0.0       0.0       0.3
 5 C  dyz             0.0       2.6       0.0       0.0       0.0       6.3
 5 C  dx2y2           2.1       0.0       1.6       0.0       0.0       0.0
 5 C  dxy             3.2       0.0       6.3       0.6       0.1       0.0
 6 C  s               8.3       0.0       0.2       0.1       0.4       0.0
 6 C  pz              0.0       1.1       0.0       0.0       0.0       0.7
 6 C  px              0.8       0.0       0.3       0.4       0.1       0.0
 6 C  py              0.9       0.0       1.7       0.6       0.3       0.0
 6 C  dz2            37.6       0.0       1.9       1.2       2.1       0.0
 6 C  dxz             0.0      12.6       0.0       0.0       0.0       0.1
 6 C  dyz             0.0       0.0       0.0       0.0       0.0      26.8
 6 C  dx2y2           0.0       0.0      21.0       3.3       0.1       0.0
 6 C  dxy             0.2       0.0      19.1       4.7       2.3       0.0
 7 O  s               0.5       0.0       4.7       0.1       0.0       0.0
 7 O  pz              0.0       0.4       0.0       0.0       0.0       1.3
 7 O  px              0.5       0.0       0.6       0.7       0.0       0.0
 7 O  py              0.8       0.0       5.6       0.0       0.1       0.0
 7 O  dz2             0.3       0.0       2.9       0.0       0.0       0.0
 7 O  dxz             0.0       0.3       0.0       0.0       0.0       4.7
 7 O  dyz             0.0       9.9       0.0       0.0       0.0      21.4
 7 O  dx2y2           0.0       0.0       0.1       2.6       1.4       0.0
 7 O  dxy             4.7       0.0       2.1       9.6       0.0       0.0
 8 H  s               2.1       0.0       0.7       0.6       0.0       0.0
 9 H  s               0.2       0.0       0.1       1.1       0.3       0.0
10 H  s               0.0       0.0       0.2       0.0       1.4       0.0
11 H  s               0.0       0.0       0.1       1.3       0.1       0.0
12 H  s               1.6       0.0       1.0       0.1       0.4       0.0
13 H  s               0.6       0.0       0.1       1.9       0.8       0.0

                    114       115       116       117       118       119   
                   2.60539   2.66720   2.72198   2.72755   2.73516   2.83334
                   0.00000   0.00000   0.00000   0.00000   0.00000   0.00000
                  --------  --------  --------  --------  --------  --------
 0 C  s               1.2       0.0       1.9       1.7       0.2       0.9
 0 C  px              1.4       0.0       0.4       0.7       0.7       1.9
 0 C  py              0.1       0.0       0.1       0.3       0.6       1.9
 0 C  dz2             3.8       0.0       2.3       0.3       0.1       1.3
 0 C  dxz             0.0       5.6       0.0       0.0       0.0       0.0
 0 C  dyz             0.0       3.3       0.0       0.0       0.0       0.0
 0 C  dx2y2          12.7       0.0       0.4       0.1       1.9      13.3
 0 C  dxy             1.1       0.0      16.4       1.7       3.0       2.1
 1 C  s               6.0       0.0       0.7       0.3       2.3       0.8
 1 C  px              1.4       0.0       0.6       1.1       1.3       1.2
 1 C  py              0.8       0.0       0.1       0.7       1.3       0.1
 1 C  dz2            11.7       0.0       1.0       0.0       4.5       1.1
 1 C  dxz             0.0       7.7       0.0       0.0       0.0       0.0
 1 C  dyz             0.0       2.1       0.0       0.0       0.0       0.0
 1 C  dx2y2           0.0       0.0       0.0      16.6       0.4       8.8
 1 C  dxy             0.0       0.0      21.4       0.2       3.7       2.1
 2 C  s               1.1       0.0       0.9       1.4       0.1       2.2
 2 C  px              0.5       0.0       0.0       0.7       0.0       0.3
 2 C  py              0.7       0.0       0.5       3.7       0.1       2.0
 2 C  dz2             1.0       0.0       2.0       1.7       0.1       2.2
 2 C  dyz             0.0       9.3       0.0       0.0       0.0       0.0
 2 C  dx2y2           1.4       0.0       0.6       0.0      22.4       1.0
 2 C  dxy             0.8       0.0       2.1      13.8       0.0       8.3
 3 C  s               1.2       0.0       3.3       2.5       0.2       0.7
 3 C  px              0.2       0.0       2.2       0.8       0.6       0.1
 3 C  py              0.3       0.0       0.0       1.8       0.1       0.1
 3 C  dz2             4.3       0.0       6.3       2.5       0.2       0.7
 3 C  dxz             0.0      12.2       0.0       0.0       0.0       0.0
 3 C  dyz             0.0       0.9       0.0       0.0       0.0       0.0
 3 C  dx2y2           0.4       0.0       7.3       2.1      12.2       0.1
 3 C  dxy             5.4       0.0       0.0      15.0       1.5       0.1
 4 C  s               0.9       0.0       3.2       1.5       0.5       3.4
 4 C  px              0.4       0.0       2.4       0.1       1.4       0.0
 4 C  py              0.2       0.0       0.2       1.4       1.0       0.0
 4 C  dz2             1.8       0.0       5.4       0.0       1.2       3.8
 4 C  dxz             0.0      15.3       0.0       0.0       0.0       0.0
 4 C  dyz             0.0       1.3       0.0       0.0       0.0       0.0
 4 C  dx2y2           0.0       0.0       4.7       0.5       0.1      12.2
 4 C  dxy             5.8       0.0       2.3       0.5       1.6       0.8
 5 C  s               0.7       0.0       0.5       0.1       5.1       3.3
 5 C  px              0.0       0.0       0.1       0.1       0.9       1.1
 5 C  py              1.9       0.0       1.4       1.7       0.1       0.0
 5 C  dz2             1.3       0.0       0.9       0.0       7.6       3.4
 5 C  dxz             0.0       0.5       0.0       0.0       0.0       0.0
 5 C  dyz             0.0      10.2       0.0       0.0       0.0       0.0
 5 C  dx2y2           7.0       0.0       0.7       4.4      11.6       3.2
 5 C  dxy             3.0       0.0       0.4      16.0       2.8       0.3
 6 C  s               0.0       0.0       0.1       0.3       0.3       0.8
 6 C  pz              0.0       0.5       0.0       0.0       0.0       0.0
 6 C  px              0.3       0.0       0.0       0.0       0.1       0.6
 6 C  py              0.2       0.0       0.1       0.3       0.1       0.3
 6 C  dz2             0.0       0.0       0.0       0.2       0.1       0.8
 6 C  dxz             0.0       1.1       0.0       0.0       0.0       0.0
 6 C  dyz             0.0      14.8       0.0       0.0       0.0       0.0
 6 C  dx2y2           2.3       0.0       0.1       0.2       0.2       5.9
 6 C  dxy             4.9       0.0       2.5       0.8       1.8       1.4
 7 O  s               0.0       0.0       0.0       0.0       0.7       1.0
 7 O  pz              0.0       0.8       0.0       0.0       0.0       0.0
 7 O  px              0.5       0.0       0.1       0.0       0.1       0.1
 7 O  py              0.0       0.0       0.1       0.1       0.3       0.4
 7 O  dz2             0.0       0.0       0.1       0.0       0.2       0.7
 7 O  dxz             0.0       1.9       0.0       0.0       0.0       0.0
 7 O  dyz             0.0      12.4       0.0       0.0       0.0       0.0
 7 O  dx2y2           2.5       0.0       0.1       1.1       0.1       1.1
 7 O  dxy             6.8       0.0       0.9       0.0       1.4       0.6
 8 H  s               0.2       0.0       0.0       0.1       0.0       0.4
 9 H  s               0.1       0.0       1.5       0.1       0.4       0.0
10 H  s               0.4       0.0       0.2       0.0       1.5       0.0
11 H  s               0.4       0.0       1.3       0.5       0.0       0.1
12 H  s               0.7       0.0       0.2       0.1       0.3       0.5
13 H  s               0.0       0.0       0.0       0.1       0.7       0.0

                    120       121       122       123   
                   2.92400   2.98007   3.13020   3.40891
                   0.00000   0.00000   0.00000   0.00000
                  --------  --------  --------  --------
 0 C  s               1.0       0.1       0.1       1.7
 0 C  px              0.8       0.8       0.4       0.0
 0 C  py              0.1       0.3       0.3       0.1
 0 C  dz2             1.4       0.1       0.1       1.1
 0 C  dx2y2           4.9       3.3       1.7       1.3
 0 C  dxy             0.7       0.0       1.3      10.7
 1 C  s               1.6       0.2       0.3       1.5
 1 C  px              1.0       0.8       0.8       0.0
 1 C  py              0.0       0.1       0.5       0.1
 1 C  dz2             1.7       0.3       0.1       1.0
 1 C  dx2y2           1.5       2.8       0.8       5.6
 1 C  dxy             0.0       0.6       3.6       6.6
 2 C  s               2.0       0.0       0.1       1.5
 2 C  px              0.3       0.0       0.0       0.1
 2 C  py              0.6       0.5       1.2       0.0
 2 C  dz2             2.4       0.0       0.1       1.0
 2 C  dx2y2           0.1       0.2       0.2      12.3
 2 C  dxy             6.0       2.7       2.7       0.4
 3 C  s               3.0       0.0       0.2       1.4
 3 C  px              0.4       0.5       2.1       0.0
 3 C  py              1.2       0.2       0.0       0.1
 3 C  dz2             3.0       0.1       0.2       0.9
 3 C  dx2y2           2.0       1.7       4.1       5.5
 3 C  dxy             0.0       0.1       5.3       7.9
 4 C  s               2.3       1.0       0.2       0.9
 4 C  px              0.6       0.9       0.6       0.1
 4 C  py              0.4       0.4       0.9       0.3
 4 C  dz2             3.6       1.1       0.4       0.7
 4 C  dx2y2           0.8       2.1      22.7       1.0
 4 C  dxy             8.8       0.3       5.0      15.1
 5 C  s               0.4       0.6       0.2       1.6
 5 C  py              0.0       0.8       2.7       0.0
 5 C  dz2             0.8       0.9       0.1       1.0
 5 C  dx2y2           0.4       0.3       0.0      12.4
 5 C  dxy             1.0       3.0       9.6       0.3
 6 C  s               0.8      10.3       1.4       0.3
 6 C  px              0.0       1.2       0.2       0.1
 6 C  py              3.3       5.2       0.5       0.1
 6 C  dz2             0.6       2.2       0.7       0.0
 6 C  dx2y2           3.2       1.2      17.7       0.6
 6 C  dxy            16.8       0.0       0.3       1.5
 7 O  s               2.6      14.0       1.1       0.0
 7 O  px              0.1       0.6       0.7       0.0
 7 O  py              1.6       4.5       0.8       0.0
 7 O  dz2             1.6       8.9       0.5       0.0
 7 O  dx2y2          13.2      15.1       0.0       0.1
 7 O  dxy             0.5      10.1       6.9       0.3
 8 H  s               0.3       0.0       0.5       0.1
 9 H  s               0.1       0.0       0.0       0.5
10 H  s               0.0       0.0       0.0       0.5
11 H  s               0.0       0.0       0.0       0.5
12 H  s               0.1       0.0       0.0       0.6
13 H  s               0.2       0.0       0.0       0.6


                      *****************************
                      * MAYER POPULATION ANALYSIS *
                      *****************************

  NA   - Mulliken gross atomic population
  ZA   - Total nuclear charge
  QA   - Mulliken gross atomic charge
  VA   - Mayer's total valence
  BVA  - Mayer's bonded valence
  FA   - Mayer's free valence

  ATOM       NA         ZA         QA         VA         BVA        FA
  0 C      6.1161     6.0000    -0.1161     3.9388     3.9388     0.0000
  1 C      6.1291     6.0000    -0.1291     3.9430     3.9430    -0.0000
  2 C      6.1303     6.0000    -0.1303     3.9236     3.9236    -0.0000
  3 C      6.1514     6.0000    -0.1514     3.9125     3.9125     0.0000
  4 C      5.9063     6.0000     0.0937     3.8819     3.8819     0.0000
  5 C      6.1759     6.0000    -0.1759     3.9122     3.9122    -0.0000
  6 C      5.8344     6.0000     0.1656     3.8846     3.8846     0.0000
  7 O      8.3757     8.0000    -0.3757     2.1163     2.1163     0.0000
  8 H      0.9011     1.0000     0.0989     0.9316     0.9316     0.0000
  9 H      0.8603     1.0000     0.1397     0.9352     0.9352    -0.0000
 10 H      0.8595     1.0000     0.1405     0.9358     0.9358    -0.0000
 11 H      0.8616     1.0000     0.1384     0.9362     0.9362     0.0000
 12 H      0.8603     1.0000     0.1397     0.9380     0.9380     0.0000
 13 H      0.8380     1.0000     0.1620     0.9410     0.9410     0.0000

  Mayer bond orders larger than 0.1
B(  0-C ,  1-C ) :   1.4532 B(  0-C ,  2-C ) :   1.4278 B(  0-C ,  9-H ) :   0.9293 
B(  1-C ,  5-C ) :   1.4408 B(  1-C , 11-H ) :   0.9291 B(  2-C ,  3-C ) :   1.4527 
B(  2-C , 10-H ) :   0.9292 B(  3-C ,  4-C ) :   1.3897 B(  3-C , 13-H ) :   0.9119 
B(  4-C ,  5-C ) :   1.3873 B(  4-C ,  6-C ) :   0.9778 B(  5-C , 12-H ) :   0.9197 
B(  6-C ,  7-O ) :   1.9448 B(  6-C ,  8-H ) :   0.8881 

-------
TIMINGS
-------

Total SCF time: 0 days 0 hours 0 min 9 sec 

Total time                  ....       9.966 sec
Sum of individual times     ....       9.687 sec  ( 97.2%)

Fock matrix formation       ....       7.875 sec  ( 79.0%)
  XC integration            ....       1.685 sec  ( 21.4% of F)
    Basis function eval.    ....       0.600 sec  ( 35.6% of XC)
    Density eval.           ....       0.438 sec  ( 26.0% of XC)
    XC-Functional eval.     ....       0.122 sec  (  7.2% of XC)
    XC-Potential eval.      ....       0.439 sec  ( 26.0% of XC)
Diagonalization             ....       0.003 sec  (  0.0%)
Density matrix formation    ....       0.001 sec  (  0.0%)
Population analysis         ....       0.040 sec  (  0.4%)
Initial guess               ....       0.004 sec  (  0.0%)
Orbital Transformation      ....       0.000 sec  (  0.0%)
Orbital Orthonormalization  ....       0.002 sec  (  0.0%)
DIIS solution               ....       0.001 sec  (  0.0%)
SOSCF solution              ....       0.004 sec  (  0.0%)
Grid generation             ....       1.759 sec  ( 17.7%)

-------------------------   --------------------
FINAL SINGLE POINT ENERGY      -345.359591843348
-------------------------   --------------------

                                *** OPTIMIZATION RUN DONE ***

                            ***************************************
                            *     ORCA property calculations      *
                            ***************************************

                                    ---------------------
                                    Active property flags
                                    ---------------------
   (+) Dipole Moment


------------------------------------------------------------------------------
                       ORCA ELECTRIC PROPERTIES CALCULATION
------------------------------------------------------------------------------

Dipole Moment Calculation                       ... on
Quadrupole Moment Calculation                   ... off
Polarizability Calculation                      ... off
GBWName                                         ... /Users/lailaal-madhagi/Desktop/Testing_XAS_Analysis_code/Benzaldehyde//Results_dir_Benzaldehyde_geom_element_C_2019-11-04_22-42-45//GTE1_Benzaldehyde_geom_2019-11-04_22-42-57//opt.gbw
Electron density file                           ... /Users/lailaal-madhagi/Desktop/Testing_XAS_Analysis_code/Benzaldehyde//Results_dir_Benzaldehyde_geom_element_C_2019-11-04_22-42-45//GTE1_Benzaldehyde_geom_2019-11-04_22-42-57//opt.scfp.tmp
The origin for moment calculation is the CENTER OF MASS  = (-0.856422, -1.550014  0.001846)

-------------
DIPOLE MOMENT
-------------
                                X             Y             Z
Electronic contribution:      0.81455      -3.01898       0.00095
Nuclear contribution   :     -0.94228       4.30783      -0.00119
                        -----------------------------------------
Total Dipole Moment    :     -0.12773       1.28885      -0.00024
                        -----------------------------------------
Magnitude (a.u.)       :      1.29516
Magnitude (Debye)      :      3.29203



--------------------
Rotational spectrum 
--------------------
 
Rotational constants in cm-1:     0.174193     0.051954     0.040019 
Rotational constants in MHz :  5222.176370  1557.555267  1199.727179 

 Dipole components along the rotational axes: 
x,y,z [a.u.] :     1.220669     0.432904     0.000022 
x,y,z [Debye]:     3.102693     1.100354     0.000056 

 

Timings for individual modules:

Sum of individual times         ...      310.543 sec (=   5.176 min)
GTO integral calculation        ...        3.428 sec (=   0.057 min)   1.1 %
SCF iterations                  ...      198.373 sec (=   3.306 min)  63.9 %
SCF Gradient evaluation         ...      106.639 sec (=   1.777 min)  34.3 %
Geometry relaxation             ...        2.103 sec (=   0.035 min)   0.7 %
                             ****ORCA TERMINATED NORMALLY****
TOTAL RUN TIME: 0 days 0 hours 5 minutes 12 seconds 138 msec
