
                                 *****************
                                 * O   R   C   A *
                                 *****************

           --- An Ab Initio, DFT and Semiempirical electronic structure package ---

                  #######################################################
                  #                        -***-                        #
                  #          Department of theory and spectroscopy      #
                  #               Directorship: Frank Neese             #
                  #        Max Planck Institute fuer Kohlenforschung    #
                  #                Kaiser Wilhelm Platz 1               #
                  #                 D-45470 Muelheim/Ruhr               #
                  #                      Germany                        #
                  #                                                     #
                  #                  All rights reserved                #
                  #                        -***-                        #
                  #######################################################


                         Program Version 4.1.0  - RELEASE  -


 With contributions from (in alphabetic order):
   Daniel Aravena         : Magnetic Properties
   Michael Atanasov       : Ab Initio Ligand Field Theory
   Alexander A. Auer      : GIAO ZORA
   Ute Becker             : Parallelization
   Giovanni Bistoni       : ED, Open-shell LED
   Martin Brehm           : Molecular dynamics
   Dmytro Bykov           : SCF Hessian
   Vijay G. Chilkuri      : MRCI spin determinant printing
   Dipayan Datta          : RHF DLPNO-CCSD density
   Achintya Kumar Dutta   : EOM-CC, STEOM-CC
   Dmitry Ganyushin       : Spin-Orbit,Spin-Spin,Magnetic field MRCI
   Miquel Garcia          : C-PCM Hessian
   Yang Guo               : DLPNO-NEVPT2, CIM, IAO-localization
   Andreas Hansen         : Spin unrestricted coupled pair/coupled cluster methods
   Benjamin Helmich-Paris : CASSCF linear response (MC-RPA)
   Lee Huntington         : MR-EOM, pCC
   Robert Izsak           : Overlap fitted RIJCOSX, COSX-SCS-MP3, EOM
   Christian Kollmar      : KDIIS, OOCD, Brueckner-CCSD(T), CCSD density
   Simone Kossmann        : Meta GGA functionals, TD-DFT gradient, OOMP2, MP2 Hessian
   Martin Krupicka        : AUTO-CI
   Lucas Lang             : DCDCAS
   Dagmar Lenk            : GEPOL surface, SMD
   Dimitrios Liakos       : Extrapolation schemes; parallel MDCI
   Dimitrios Manganas     : ROCIS; embedding schemes
   Dimitrios Pantazis     : SARC Basis sets
   Taras Petrenko         : DFT Hessian,TD-DFT gradient, ASA, ECA, R-Raman, ABS, FL, XAS/XES, NRVS
   Peter Pinski           : DLPNO-MP2, DLPNO-MP2 Gradient
   Christoph Reimann      : Effective Core Potentials
   Marius Retegan         : Local ZFS, SOC
   Christoph Riplinger    : Optimizer, TS searches, QM/MM, DLPNO-CCSD(T), (RO)-DLPNO pert. Triples
   Tobias Risthaus        : Range-separated hybrids, TD-DFT gradient, RPA, STAB
   Michael Roemelt        : Restricted open shell CIS
   Masaaki Saitow         : Open-shell DLPNO
   Barbara Sandhoefer     : DKH picture change effects
   Avijit Sen             : IP-ROCIS
   Kantharuban Sivalingam : CASSCF convergence, NEVPT2, FIC-MRCI
   Bernardo de Souza      : ESD, SOC TD-DFT
   Georgi Stoychev        : AutoAux, RI-MP2 NMR
   Willem Van den Heuvel  : Paramagnetic NMR
   Boris Wezisla          : Elementary symmetry handling
   Frank Wennmohs         : Technical directorship


 We gratefully acknowledge several colleagues who have allowed us to
 interface, adapt or use parts of their codes:
   Stefan Grimme, W. Hujo, H. Kruse,             : VdW corrections, initial TS optimization,
                  C. Bannwarth                     DFT functionals, gCP, sTDA/sTD-DF
   Ed Valeev                                     : LibInt (2-el integral package), F12 methods
   Garnet Chan, S. Sharma, J. Yang, R. Olivares  : DMRG
   Ulf Ekstrom                                   : XCFun DFT Library
   Mihaly Kallay                                 : mrcc  (arbitrary order and MRCC methods)
   Andreas Klamt, Michael Diedenhofen            : otool_cosmo (COSMO solvation model)
   Jiri Pittner, Ondrej Demel                    : Mk-CCSD
   Frank Weinhold                                : gennbo (NPA and NBO analysis)
   Christopher J. Cramer and Donald G. Truhlar   : smd solvation model
   Lars Goerigk                                  : TD-DFT with DH, B97 family of functionals
   V. Asgeirsson, H. Jonsson                     : NEB implementation
   FAccTs GmbH                                   : IRC, NEB, NEB-TS, Multilevel


 Your calculation uses the libint2 library for the computation of 2-el integrals
 For citations please refer to: http://libint.valeyev.net

 This ORCA versions uses:
   CBLAS   interface :  Fast vector & matrix operations
   LAPACKE interface :  Fast linear algebra routines
   SCALAPACK package :  Parallel linear algebra routines




***************************************
The coordinates will be read from file: /Users/lailaal-madhagi/Desktop/Testing_XAS_Analysis_code/Benzene/Benzene_geom.xyz
***************************************


----- Orbital basis set information -----
Your calculation utilizes the basis: 6-31G*
   H-He, Li-Ne : W. J. Hehre, R. Ditchfield and J.A. Pople, J. Chem. Phys. 56, 2257 (1972).
                 Note: He and Ne are unpublished basis sets taken from the Gaussian program.
                 Note: Li and B from J. D. Dill and J. A. Pople, J. Chem. Phys. 62, 2921 (1975).
   Na - Ar     : M. M. Francl, W. J. Pietro, W. J. Hehre, J. S. Binkley, M. S. Gordon, 
                 D. J. DeFrees and J. A. Pople, J. Chem. Phys. 77, 3654 (1982).
   K - Zn      : V. A. Rassolov, J. A. Pople, M. A. Ratner, and T. L. Windus, J. Chem. Phys. 109, 1223 (1998).

================================================================================
                                        WARNINGS
                       Please study these warnings very carefully!
================================================================================


WARNING: Geometry Optimization
  ===> : Switching off AutoStart
         For restart on a previous wavefunction, please use MOREAD

INFO   : the flag for use of LIBINT has been found!

================================================================================
                                       INPUT FILE
================================================================================
NAME = /Users/lailaal-madhagi/Desktop/Testing_XAS_Analysis_code/Benzene//Results_dir_Benzene_geom_element_C_2019-11-05_19-06-04//GTE1_Benzene_geom_2019-11-05_19-06-39//opt.inp
|  1> ! B3LYP 6-31G* TIGHTSCF Grid3 FinalGrid5 Opt 
|  2> !NormalPrint 
|  3> %output 
|  4> Print[P_Basis] 2 
|  5> Print[P_MOS] 1 
|  6> end 
|  7> *xyzfile 0 1 /Users/lailaal-madhagi/Desktop/Testing_XAS_Analysis_code/Benzene/Benzene_geom.xyz                           ****END OF INPUT****
================================================================================

                       *****************************
                       * Geometry Optimization Run *
                       *****************************

Geometry optimization settings:
Update method            Update   .... BFGS
Choice of coordinates    CoordSys .... Z-matrix Internals
Initial Hessian          InHess   .... Almoef's Model

Convergence Tolerances:
Energy Change            TolE     ....  5.0000e-06 Eh
Max. Gradient            TolMAXG  ....  3.0000e-04 Eh/bohr
RMS Gradient             TolRMSG  ....  1.0000e-04 Eh/bohr
Max. Displacement        TolMAXD  ....  4.0000e-03 bohr
RMS Displacement         TolRMSD  ....  2.0000e-03 bohr

------------------------------------------------------------------------------
                        ORCA OPTIMIZATION COORDINATE SETUP
------------------------------------------------------------------------------

The optimization will be done in new redundant internal coordinates
Making redundant internal coordinates   ...  (new redundants) done
Evaluating the initial hessian          ...  (Almloef) done
Evaluating the coordinates              ...  done
Calculating the B-matrix                .... done
Calculating the G-matrix                .... done
Diagonalizing the G-matrix              .... done
The first mode is                       ....   24
The number of degrees of freedom        ....   30

    -----------------------------------------------------------------
                    Redundant Internal Coordinates


    -----------------------------------------------------------------
         Definition                    Initial Value    Approx d2E/dq
    -----------------------------------------------------------------
      1. B(C   1,C   0)                  1.3991         0.604363   
      2. B(C   2,C   0)                  1.3991         0.604232   
      3. B(C   3,C   2)                  1.3991         0.604234   
      4. B(C   4,C   1)                  1.3990         0.604554   
      5. B(C   5,C   4)                  1.3990         0.604563   
      6. B(C   5,C   3)                  1.3991         0.604350   
      7. B(H   6,C   0)                  1.0824         0.370355   
      8. B(H   7,C   1)                  1.0823         0.370398   
      9. B(H   8,C   2)                  1.0824         0.370338   
     10. B(H   9,C   3)                  1.0824         0.370354   
     11. B(H  10,C   5)                  1.0823         0.370402   
     12. B(H  11,C   4)                  1.0823         0.370434   
     13. A(C   1,C   0,H   6)          119.9916         0.353061   
     14. A(C   2,C   0,H   6)          120.0110         0.353048   
     15. A(C   1,C   0,C   2)          119.9974         0.430082   
     16. A(C   0,C   1,C   4)          120.0007         0.430123   
     17. A(C   0,C   1,H   7)          120.0139         0.353067   
     18. A(C   4,C   1,H   7)          119.9855         0.353086   
     19. A(C   3,C   2,H   8)          120.0003         0.353045   
     20. A(C   0,C   2,C   3)          119.9986         0.430066   
     21. A(C   0,C   2,H   8)          120.0011         0.353045   
     22. A(C   5,C   3,H   9)          119.9915         0.353059   
     23. A(C   2,C   3,H   9)          120.0114         0.353048   
     24. A(C   2,C   3,C   5)          119.9970         0.430081   
     25. A(C   1,C   4,C   5)          120.0055         0.430149   
     26. A(C   5,C   4,H  11)          119.9974         0.353093   
     27. A(C   1,C   4,H  11)          119.9971         0.353092   
     28. A(C   3,C   5,H  10)          120.0132         0.353067   
     29. A(C   3,C   5,C   4)          120.0008         0.430123   
     30. A(C   4,C   5,H  10)          119.9860         0.353088   
     31. D(H   7,C   1,C   0,C   2)    179.9999         0.025200   
     32. D(H   7,C   1,C   0,H   6)     -0.0001         0.025200   
     33. D(C   4,C   1,C   0,H   6)   -179.9999         0.025200   
     34. D(C   4,C   1,C   0,C   2)      0.0001         0.025200   
     35. D(H   8,C   2,C   0,C   1)   -179.9999         0.025188   
     36. D(C   3,C   2,C   0,C   1)     -0.0001         0.025188   
     37. D(C   3,C   2,C   0,H   6)    179.9999         0.025188   
     38. D(H   8,C   2,C   0,H   6)      0.0002         0.025188   
     39. D(H   9,C   3,C   2,H   8)      0.0001         0.025188   
     40. D(H   9,C   3,C   2,C   0)   -179.9996         0.025188   
     41. D(C   5,C   3,C   2,H   8)    179.9997         0.025188   
     42. D(C   5,C   3,C   2,C   0)     -0.0001         0.025188   
     43. D(H  11,C   4,C   1,C   0)   -179.9998         0.025217   
     44. D(C   5,C   4,C   1,H   7)   -179.9998         0.025217   
     45. D(C   5,C   4,C   1,C   0)      0.0000         0.025217   
     46. D(H  11,C   4,C   1,H   7)      0.0004         0.025217   
     47. D(H  10,C   5,C   4,H  11)     -0.0000         0.025217   
     48. D(C   3,C   5,C   4,H  11)    179.9997         0.025217   
     49. D(C   3,C   5,C   4,C   1)     -0.0002         0.025217   
     50. D(H  10,C   5,C   3,H   9)     -0.0005         0.025199   
     51. D(H  10,C   5,C   3,C   2)    179.9999         0.025199   
     52. D(H  10,C   5,C   4,C   1)   -179.9999         0.025217   
     53. D(C   4,C   5,C   3,H   9)    179.9998         0.025199   
     54. D(C   4,C   5,C   3,C   2)      0.0002         0.025199   
    -----------------------------------------------------------------

Number of atoms                         .... 12
Number of degrees of freedom            .... 54

         *************************************************************
         *                GEOMETRY OPTIMIZATION CYCLE   1            *
         *************************************************************
---------------------------------
CARTESIAN COORDINATES (ANGSTROEM)
---------------------------------
  C     -2.522200    1.144200    0.015080
  C     -1.129330    1.275100    0.026140
  C     -3.105070   -0.127380   -0.014190
  C     -2.294990   -1.267970   -0.032400
  C     -0.319400    0.134580    0.007930
  C     -0.902130   -1.136900   -0.021340
  H     -3.148690    2.026700    0.029170
  H     -0.678150    2.258640    0.048780
  H     -4.182650   -0.228720   -0.022750
  H     -2.745680   -2.251770   -0.055050
  H     -0.275220   -2.019060   -0.035420
  H      0.758110    0.235910    0.016490

----------------------------
CARTESIAN COORDINATES (A.U.)
----------------------------
  NO LB      ZA    FRAG     MASS         X           Y           Z
   0 C     6.0000    0    12.011   -4.766267    2.162225    0.028497
   1 C     6.0000    0    12.011   -2.134124    2.409590    0.049397
   2 C     6.0000    0    12.011   -5.867732   -0.240713   -0.026815
   3 C     6.0000    0    12.011   -4.336903   -2.396116   -0.061227
   4 C     6.0000    0    12.011   -0.603579    0.254319    0.014986
   5 C     6.0000    0    12.011   -1.704779   -2.148430   -0.040327
   6 H     1.0000    0     1.008   -5.950162    3.829908    0.055123
   7 H     1.0000    0     1.008   -1.281518    4.268211    0.092181
   8 H     1.0000    0     1.008   -7.904063   -0.432218   -0.042991
   9 H     1.0000    0     1.008   -5.188583   -4.255229   -0.104029
  10 H     1.0000    0     1.008   -0.520090   -3.815470   -0.066934
  11 H     1.0000    0     1.008    1.432620    0.445805    0.031162

--------------------------------
INTERNAL COORDINATES (ANGSTROEM)
--------------------------------
 C      0   0   0     0.000000000000     0.00000000     0.00000000
 C      1   0   0     1.399051096458     0.00000000     0.00000000
 C      1   2   0     1.399110383851   119.99737136     0.00000000
 C      3   1   2     1.399109273288   119.99861271     0.00000000
 C      2   1   3     1.398965360329   120.00066652     0.00000000
 C      5   2   1     1.398961177517   120.00546821     0.00000000
 H      1   2   3     1.082355994209   119.99162795   179.99996538
 H      2   1   3     1.082324763461   120.01385337   179.99989070
 H      3   1   2     1.082368571975   120.00109085   180.00012914
 H      4   3   1     1.082357121564   120.01144713   180.00036086
 H      6   5   2     1.082321883776   119.98595336   180.00013392
 H      5   2   1     1.082297945392   119.99712651   180.00016733

---------------------------
INTERNAL COORDINATES (A.U.)
---------------------------
 C      0   0   0     0.000000000000     0.00000000     0.00000000
 C      1   0   0     2.643823419668     0.00000000     0.00000000
 C      1   2   0     2.643935456604   119.99737136     0.00000000
 C      3   1   2     2.643933357944   119.99861271     0.00000000
 C      2   1   3     2.643661401864   120.00066652     0.00000000
 C      5   2   1     2.643653497495   120.00546821     0.00000000
 H      1   2   3     2.045356408463   119.99162795   179.99996538
 H      2   1   3     2.045297390902   120.01385337   179.99989070
 H      3   1   2     2.045380176997   120.00109085   180.00012914
 H      4   3   1     2.045358538855   120.01144713   180.00036086
 H      6   5   2     2.045291949086   119.98595336   180.00013392
 H      5   2   1     2.045246712097   119.99712651   180.00016733

---------------------
BASIS SET INFORMATION
---------------------
There are 2 groups of distinct atoms

 Group   1 Type C   : 10s4p1d contracted to 3s2p1d pattern {631/31/1}
 Group   2 Type H   : 4s contracted to 2s pattern {31}

Atom   0C    basis set group =>   1
Atom   1C    basis set group =>   1
Atom   2C    basis set group =>   1
Atom   3C    basis set group =>   1
Atom   4C    basis set group =>   1
Atom   5C    basis set group =>   1
Atom   6H    basis set group =>   2
Atom   7H    basis set group =>   2
Atom   8H    basis set group =>   2
Atom   9H    basis set group =>   2
Atom  10H    basis set group =>   2
Atom  11H    basis set group =>   2

-------------------------
BASIS SET IN INPUT FORMAT
-------------------------

 # Basis set for element : H 
 NewGTO H 
 S 3 
   1      18.7311370000      0.0334945995
   2       2.8253937000      0.2347269467
   3       0.6401217000      0.8137573184
 S 1 
   1       0.1612778000      1.0000000000
  end;

 # Basis set for element : C 
 NewGTO C 
 S 6 
   1    3047.5249000000      0.0018347002
   2     457.3695100000      0.0140373012
   3     103.9486900000      0.0688426061
   4      29.2101550000      0.2321844206
   5       9.2866630000      0.4679413416
   6       3.1639270000      0.3623120322
 S 3 
   1       7.8682724000     -0.1193324086
   2       1.8812885000     -0.1608542116
   3       0.5442493000      1.1434564826
 P 3 
   1       7.8682724000      0.0689990956
   2       1.8812885000      0.3164239798
   3       0.5442493000      0.7443082524
 S 1 
   1       0.1687144000      1.0000000000
 P 1 
   1       0.1687144000      1.0000000000
 D 1 
   1       0.8000000000      1.0000000000
  end;

------------------------------------------------------------------------------
                           ORCA GTO INTEGRAL CALCULATION
------------------------------------------------------------------------------

                         BASIS SET STATISTICS AND STARTUP INFO

 # of primitive gaussian shells          ...  114
 # of primitive gaussian functions       ...  186
 # of contracted shells                  ...   48
 # of contracted basis functions         ...   96
 Highest angular momentum                ...    2
 Maximum contraction depth               ...    6
 Integral package used                   ... LIBINT
 Integral threshhold            Thresh   ...  2.500e-11
 Primitive cut-off              TCut     ...  2.500e-12


------------------------------ INTEGRAL EVALUATION ----------------------------


 * One electron integrals 
 Pre-screening matrix                    ... done
 Shell pair data                         ... done (   0.001 sec)

-------------------------------------------------------------------------------
                                 ORCA SCF
-------------------------------------------------------------------------------

------------
SCF SETTINGS
------------
Hamiltonian:
 Density Functional     Method          .... DFT(GTOs)
 Exchange Functional    Exchange        .... B88
   X-Alpha parameter    XAlpha          ....  0.666667
   Becke's b parameter  XBeta           ....  0.004200
 Correlation Functional Correlation     .... LYP
 LDA part of GGA corr.  LDAOpt          .... VWN-5
 Gradients option       PostSCFGGA      .... off
 Hybrid DFT is turned on
   Fraction HF Exchange ScalHFX         ....  0.200000
   Scaling of DF-GGA-X  ScalDFX         ....  0.720000
   Scaling of DF-GGA-C  ScalDFC         ....  0.810000
   Scaling of DF-LDA-C  ScalLDAC        ....  1.000000
   Perturbative correction              ....  0.000000
   Density functional embedding theory  .... OFF
   NL short-range parameter             ....  4.800000


General Settings:
 Integral files         IntName         .... /Users/lailaal-madhagi/Desktop/Testing_XAS_Analysis_code/Benzene//Results_dir_Benzene_geom_element_C_2019-11-05_19-06-04//GTE1_Benzene_geom_2019-11-05_19-06-39//opt
 Hartree-Fock type      HFTyp           .... RHF
 Total Charge           Charge          ....    0
 Multiplicity           Mult            ....    1
 Number of Electrons    NEL             ....   42
 Basis Dimension        Dim             ....   96
 Nuclear Repulsion      ENuc            ....    203.0194457913 Eh

Convergence Acceleration:
 DIIS                   CNVDIIS         .... on
   Start iteration      DIISMaxIt       ....    12
   Startup error        DIISStart       ....  0.200000
   # of expansion vecs  DIISMaxEq       ....     5
   Bias factor          DIISBfac        ....   1.050
   Max. coefficient     DIISMaxC        ....  10.000
 Newton-Raphson         CNVNR           .... off
 SOSCF                  CNVSOSCF        .... on
   Start iteration      SOSCFMaxIt      ....   150
   Startup grad/error   SOSCFStart      ....  0.003300
 Level Shifting         CNVShift        .... on
   Level shift para.    LevelShift      ....    0.2500
   Turn off err/grad.   ShiftErr        ....    0.0010
 Zerner damping         CNVZerner       .... off
 Static damping         CNVDamp         .... on
   Fraction old density DampFac         ....    0.7000
   Max. Damping (<1)    DampMax         ....    0.9800
   Min. Damping (>=0)   DampMin         ....    0.0000
   Turn off err/grad.   DampErr         ....    0.1000
 Fernandez-Rico         CNVRico         .... off

SCF Procedure:
 Maximum # iterations   MaxIter         ....   125
 SCF integral mode      SCFMode         .... Direct
   Integral package                     .... LIBINT
 Reset frequency        DirectResetFreq ....    20
 Integral Threshold     Thresh          ....  2.500e-11 Eh
 Primitive CutOff       TCut            ....  2.500e-12 Eh

Convergence Tolerance:
 Convergence Check Mode ConvCheckMode   .... Total+1el-Energy
 Convergence forced     ConvForced      .... 0
 Energy Change          TolE            ....  1.000e-08 Eh
 1-El. energy change                    ....  1.000e-05 Eh
 Orbital Gradient       TolG            ....  1.000e-05
 Orbital Rotation angle TolX            ....  1.000e-05
 DIIS Error             TolErr          ....  5.000e-07


Diagonalization of the overlap matrix:
Smallest eigenvalue                        ... 5.428e-04
Time for diagonalization                   ...    0.002 sec
Threshold for overlap eigenvalues          ... 1.000e-08
Number of eigenvalues below threshold      ... 0
Time for construction of square roots      ...    0.002 sec
Total time needed                          ...    0.005 sec

-------------------
DFT GRID GENERATION
-------------------

General Integration Accuracy     IntAcc      ...  4.340
Radial Grid Type                 RadialGrid  ... Gauss-Chebyshev
Angular Grid (max. acc.)         AngularGrid ... Lebedev-194
Angular grid pruning method      GridPruning ... 3 (G Style)
Weight generation scheme         WeightScheme... Becke
Basis function cutoff            BFCut       ...    1.0000e-11
Integration weight cutoff        WCut        ...    1.0000e-14
Grids for H and He will be reduced by one unit

# of grid points (after initial pruning)     ...  28824 (   0.0 sec)
# of grid points (after weights+screening)   ...  26874 (   0.0 sec)
nearest neighbour list constructed           ...    0.0 sec
Grid point re-assignment to atoms done       ...    0.0 sec
Grid point division into batches done        ...    0.0 sec
Reduced shell lists constructed in    0.1 sec

Total number of grid points                  ...    26874
Total number of batches                      ...      428
Average number of points per batch           ...       62
Average number of grid points per atom       ...     2240
Average number of shells per batch           ...    36.76 (76.57%)
Average number of basis functions per batch  ...    76.11 (79.28%)
Average number of large shells per batch     ...    30.42 (82.78%)
Average number of large basis fcns per batch ...    63.03 (82.81%)
Maximum spatial batch extension              ...  17.09, 17.80, 38.35 au
Average spatial batch extension              ...   3.10,  3.25,  4.05 au

Time for grid setup =    0.214 sec

------------------------------
INITIAL GUESS: MODEL POTENTIAL
------------------------------
Loading Hartree-Fock densities                     ... done
Calculating cut-offs                               ... done
Setting up the integral package                    ... done
Initializing the effective Hamiltonian             ... done
Starting the Coulomb interaction                   ... done (   0.0 sec)
Reading the grid                                   ... done
Mapping shells                                     ... done
Starting the XC term evaluation                    ... done (   0.2 sec)
  promolecular density results
     # of electrons  =     41.996386616
     EX              =    -32.602130962
     EC              =     -1.376831170
     EX+EC           =    -33.978962132
Transforming the Hamiltonian                       ... done (   0.0 sec)
Diagonalizing the Hamiltonian                      ... done (   0.0 sec)
Back transforming the eigenvectors                 ... done (   0.0 sec)
Now organizing SCF variables                       ... done
                      ------------------
                      INITIAL GUESS DONE (   0.5 sec)
                      ------------------
--------------
SCF ITERATIONS
--------------
               ***  Starting incremental Fock matrix formation  ***

                         ----------------------------
                         !        ITERATION     0   !
                         ----------------------------
   Total Energy        :    -231.945669871722 Eh
   Energy Change       :    -231.945669871722 Eh
   MAX-DP              :       0.041943283354
   RMS-DP              :       0.002802469713
   Actual Damping      :       0.7000
   Actual Level Shift  :       0.2500 Eh
   Int. Num. El.       :    41.99966361 (UP=   20.99983181 DN=   20.99983181)
   Exchange            :   -26.77640221
   Correlation         :    -1.65250571


                         ----------------------------
                         !        ITERATION     1   !
                         ----------------------------
   Total Energy        :    -232.009334075450 Eh
   Energy Change       :      -0.063664203728 Eh
   MAX-DP              :       0.030650470771
   RMS-DP              :       0.002112491854
   Actual Damping      :       0.7000
   Actual Level Shift  :       0.2500 Eh
   Int. Num. El.       :    41.99961353 (UP=   20.99980676 DN=   20.99980676)
   Exchange            :   -26.60598353
   Correlation         :    -1.64438030

                               ***Turning on DIIS***

                         ----------------------------
                         !        ITERATION     2   !
                         ----------------------------
   Total Energy        :    -232.037895048415 Eh
   Energy Change       :      -0.028560972966 Eh
   MAX-DP              :       0.054704209539
   RMS-DP              :       0.003650476837
   Actual Damping      :       0.0000
   Actual Level Shift  :       0.2500 Eh
   Int. Num. El.       :    41.99958185 (UP=   20.99979093 DN=   20.99979093)
   Exchange            :   -26.48468791
   Correlation         :    -1.63843412
   DIIS-Error          :       0.029537425333


                         ----------------------------
                         !        ITERATION     3   !
                         ----------------------------
   Total Energy        :    -232.078320873917 Eh
   Energy Change       :      -0.040425825502 Eh
   MAX-DP              :       0.023182918424
   RMS-DP              :       0.001460598568
   Actual Damping      :       0.0000
   Actual Level Shift  :       0.2500 Eh
   Int. Num. El.       :    41.99953000 (UP=   20.99976500 DN=   20.99976500)
   Exchange            :   -26.28541684
   Correlation         :    -1.62855570
   DIIS-Error          :       0.039422943574
   DIIS coefficients:
      0.55793   0.44207


                         ----------------------------
                         !        ITERATION     4   !
                         ----------------------------
   Total Energy        :    -232.088710047911 Eh
   Energy Change       :      -0.010389173994 Eh
   MAX-DP              :       0.009014269142
   RMS-DP              :       0.000445216899
   Actual Damping      :       0.0000
   Actual Level Shift  :       0.2500 Eh
   Int. Num. El.       :    41.99954574 (UP=   20.99977287 DN=   20.99977287)
   Exchange            :   -26.35787677
   Correlation         :    -1.63254914
   DIIS-Error          :       0.007972729020
   DIIS coefficients:
      0.15739  -0.03752   0.88013

                      *** Initiating the SOSCF procedure ***
                           *** Shutting down DIIS ***
                      *** Re-Reading the Fockian *** 
                      *** Removing any level shift *** 

                         ----------------------------
                         !        ITERATION     5   !
                         ----------------------------
   Total Energy        :    -232.089242939542 Eh
   Energy Change       :      -0.000532891631 Eh
   MAX-DP              :       0.002730313756
   RMS-DP              :       0.000136571213
   Orbital gradient    :       0.000815056466
   Orbital Rotation    :       0.000815056466
   Actual Damping      :       0.0000
   Int. Num. El.       :    41.99954884 (UP=   20.99977442 DN=   20.99977442)
   Exchange            :   -26.37724761
   Correlation         :    -1.63353646

               *** Restarting incremental Fock matrix formation ***

                         ----------------------------
                         !        ITERATION     6   !
                         ----------------------------
   Total Energy        :    -232.089262629751 Eh
   Energy Change       :      -0.000019690209 Eh
   MAX-DP              :       0.001279060823
   RMS-DP              :       0.000066461261
   Orbital gradient    :       0.000280450556
   Orbital Rotation    :       0.000497867945
   Actual Damping      :       0.0000
   Int. Num. El.       :    41.99954859 (UP=   20.99977429 DN=   20.99977429)
   Exchange            :   -26.38065334
   Correlation         :    -1.63370929


                         ----------------------------
                         !        ITERATION     7   !
                         ----------------------------
   Total Energy        :    -232.089263277037 Eh
   Energy Change       :      -0.000000647286 Eh
   MAX-DP              :       0.000184732393
   RMS-DP              :       0.000013259206
   Orbital gradient    :       0.000174576221
   Orbital Rotation    :       0.000139460558
   Actual Damping      :       0.0000
   Int. Num. El.       :    41.99954836 (UP=   20.99977418 DN=   20.99977418)
   Exchange            :   -26.38209092
   Correlation         :    -1.63378857


                         ----------------------------
                         !        ITERATION     8   !
                         ----------------------------
   Total Energy        :    -232.089263789302 Eh
   Energy Change       :      -0.000000512265 Eh
   MAX-DP              :       0.000087828781
   RMS-DP              :       0.000005556243
   Orbital gradient    :       0.000031113304
   Orbital Rotation    :       0.000033964489
   Actual Damping      :       0.0000
   Int. Num. El.       :    41.99954818 (UP=   20.99977409 DN=   20.99977409)
   Exchange            :   -26.38144152
   Correlation         :    -1.63375263


                         ----------------------------
                         !        ITERATION     9   !
                         ----------------------------
   Total Energy        :    -232.089263802681 Eh
   Energy Change       :      -0.000000013379 Eh
   MAX-DP              :       0.000018507840
   RMS-DP              :       0.000001116497
   Orbital gradient    :       0.000011518142
   Orbital Rotation    :       0.000009596220
   Actual Damping      :       0.0000
   Int. Num. El.       :    41.99954820 (UP=   20.99977410 DN=   20.99977410)
   Exchange            :   -26.38141093
   Correlation         :    -1.63375208

                 **** Energy Check signals convergence ****
              ***Rediagonalizing the Fockian in SOSCF/NRSCF***

               *****************************************************
               *                     SUCCESS                       *
               *           SCF CONVERGED AFTER  10 CYCLES          *
               *****************************************************

Setting up the final grid:

General Integration Accuracy     IntAcc      ...  5.010
Radial Grid Type                 RadialGrid  ... Gauss-Chebyshev
Angular Grid (max. acc.)         AngularGrid ... Lebedev-434
Angular grid pruning method      GridPruning ... 3 (G Style)
Weight generation scheme         WeightScheme... Becke
Basis function cutoff            BFCut       ...    1.0000e-11
Integration weight cutoff        WCut        ...    1.0000e-14
Grids for H and He will be reduced by one unit

# of grid points (after initial pruning)     ... 104340 (   0.0 sec)
# of grid points (after weights+screening)   ...  96550 (   0.1 sec)
nearest neighbour list constructed           ...    0.0 sec
Grid point re-assignment to atoms done       ...    0.0 sec
Grid point division into batches done        ...    0.5 sec
Reduced shell lists constructed in    0.9 sec

Total number of grid points                  ...    96550
Total number of batches                      ...     1518
Average number of points per batch           ...       63
Average number of grid points per atom       ...     8046
Average number of shells per batch           ...    34.07 (70.97%)
Average number of basis functions per batch  ...    70.36 (73.29%)
Average number of large shells per batch     ...    27.70 (81.31%)
Average number of large basis fcns per batch ...    57.22 (81.32%)
Maximum spatial batch extension              ...  16.53, 16.35, 16.94 au
Average spatial batch extension              ...   2.16,  2.17,  2.40 au

Final grid set up in    1.1 sec
Final integration                            ... done (   0.7 sec)
Change in XC energy                          ...    -0.000082776
Integrated number of electrons               ...    41.999996338
Previous integrated no of electrons          ...    41.999548207

----------------
TOTAL SCF ENERGY
----------------

Total Energy       :         -232.08934658 Eh           -6315.47219 eV

Components:
Nuclear Repulsion  :          203.01944579 Eh            5524.43998 eV
Electronic Energy  :         -435.10879237 Eh          -11839.91217 eV
One Electron Energy:         -713.47942296 Eh          -19414.76213 eV
Two Electron Energy:          278.37063059 Eh            7574.84996 eV

Virial components:
Potential Energy   :         -462.79324459 Eh          -12593.24441 eV
Kinetic Energy     :          230.70389801 Eh            6277.77222 eV
Virial Ratio       :            2.00600531


DFT components:
N(Alpha)           :       20.999998169018 electrons
N(Beta)            :       20.999998169018 electrons
N(Total)           :       41.999996338036 electrons
E(X)               :      -26.381515483922 Eh       
E(C)               :       -1.633758658986 Eh       
E(XC)              :      -28.015274142908 Eh       
DFET-embed. en.    :        0.000000000000 Eh       

---------------
SCF CONVERGENCE
---------------

  Last Energy change         ...   -1.3693e-09  Tolerance :   1.0000e-08
  Last MAX-Density change    ...    9.1824e-06  Tolerance :   1.0000e-07
  Last RMS-Density change    ...    5.5099e-07  Tolerance :   5.0000e-09
  Last Orbital Gradient      ...    3.7423e-06  Tolerance :   1.0000e-05
  Last Orbital Rotation      ...    1.1983e-05  Tolerance :   1.0000e-05

             **** THE GBW FILE WAS UPDATED (/Users/lailaal-madhagi/Desktop/Testing_XAS_Analysis_code/Benzene//Results_dir_Benzene_geom_element_C_2019-11-05_19-06-04//GTE1_Benzene_geom_2019-11-05_19-06-39//opt.gbw) ****
             **** DENSITY FILE WAS UPDATED (/Users/lailaal-madhagi/Desktop/Testing_XAS_Analysis_code/Benzene//Results_dir_Benzene_geom_element_C_2019-11-05_19-06-04//GTE1_Benzene_geom_2019-11-05_19-06-39//opt.scfp.tmp) ****
             **** ENERGY FILE WAS UPDATED (/Users/lailaal-madhagi/Desktop/Testing_XAS_Analysis_code/Benzene//Results_dir_Benzene_geom_element_C_2019-11-05_19-06-04//GTE1_Benzene_geom_2019-11-05_19-06-39//opt.en.tmp) ****
----------------
ORBITAL ENERGIES
----------------

  NO   OCC          E(Eh)            E(eV) 
   0   2.0000     -10.177718      -276.9498 
   1   2.0000     -10.177533      -276.9448 
   2   2.0000     -10.177502      -276.9439 
   3   2.0000     -10.177095      -276.9328 
   4   2.0000     -10.177057      -276.9318 
   5   2.0000     -10.176874      -276.9268 
   6   2.0000      -0.841403       -22.8957 
   7   2.0000      -0.735871       -20.0241 
   8   2.0000      -0.735858       -20.0237 
   9   2.0000      -0.594215       -16.1694 
  10   2.0000      -0.594213       -16.1694 
  11   2.0000      -0.515220       -14.0198 
  12   2.0000      -0.457555       -12.4507 
  13   2.0000      -0.433730       -11.8024 
  14   2.0000      -0.414028       -11.2663 
  15   2.0000      -0.413998       -11.2654 
  16   2.0000      -0.354933        -9.6582 
  17   2.0000      -0.337141        -9.1741 
  18   2.0000      -0.337136        -9.1739 
  19   2.0000      -0.242377        -6.5954 
  20   2.0000      -0.242323        -6.5939 
  21   0.0000       0.006632         0.1805 
  22   0.0000       0.006682         0.1818 
  23   0.0000       0.095864         2.6086 
  24   0.0000       0.149194         4.0598 
  25   0.0000       0.149298         4.0626 
  26   0.0000       0.166222         4.5231 
  27   0.0000       0.185515         5.0481 
  28   0.0000       0.185553         5.0492 
  29   0.0000       0.194552         5.2940 
  30   0.0000       0.305559         8.3147 
  31   0.0000       0.305918         8.3244 
  32   0.0000       0.321286         8.7426 
  33   0.0000       0.321344         8.7442 
  34   0.0000       0.479317        13.0429 
  35   0.0000       0.531341        14.4585 
  36   0.0000       0.550558        14.9815 
  37   0.0000       0.554555        15.0902 
  38   0.0000       0.565252        15.3813 
  39   0.0000       0.602349        16.3907 
  40   0.0000       0.605768        16.4838 
  41   0.0000       0.606250        16.4969 
  42   0.0000       0.606641        16.5075 
  43   0.0000       0.606991        16.5171 
  44   0.0000       0.636792        17.3280 
  45   0.0000       0.637006        17.3338 
  46   0.0000       0.670907        18.2563 
  47   0.0000       0.671303        18.2671 
  48   0.0000       0.748249        20.3609 
  49   0.0000       0.847438        23.0600 
  50   0.0000       0.847517        23.0621 
  51   0.0000       0.848344        23.0846 
  52   0.0000       0.872474        23.7412 
  53   0.0000       0.872694        23.7472 
  54   0.0000       0.946143        25.7459 
  55   0.0000       0.946464        25.7546 
  56   0.0000       0.949926        25.8488 
  57   0.0000       0.960242        26.1295 
  58   0.0000       1.089509        29.6470 
  59   0.0000       1.089923        29.6583 
  60   0.0000       1.144728        31.1496 
  61   0.0000       1.144818        31.1521 
  62   0.0000       1.206192        32.8222 
  63   0.0000       1.265501        34.4360 
  64   0.0000       1.400379        38.1063 
  65   0.0000       1.441159        39.2159 
  66   0.0000       1.441425        39.2232 
  67   0.0000       1.489552        40.5328 
  68   0.0000       1.489587        40.5337 
  69   0.0000       1.518249        41.3137 
  70   0.0000       1.518275        41.3144 
  71   0.0000       1.767460        48.0950 
  72   0.0000       1.791043        48.7368 
  73   0.0000       1.865842        50.7721 
  74   0.0000       1.906356        51.8746 
  75   0.0000       1.981897        53.9302 
  76   0.0000       1.981940        53.9313 
  77   0.0000       2.068052        56.2745 
  78   0.0000       2.068196        56.2785 
  79   0.0000       2.152985        58.5857 
  80   0.0000       2.153053        58.5876 
  81   0.0000       2.156953        58.6937 
  82   0.0000       2.157052        58.6964 
  83   0.0000       2.310514        62.8723 
  84   0.0000       2.310587        62.8743 
  85   0.0000       2.321418        63.1690 
  86   0.0000       2.549711        69.3812 
  87   0.0000       2.549882        69.3858 
  88   0.0000       2.655583        72.2621 
  89   0.0000       2.707828        73.6837 
  90   0.0000       2.707842        73.6841 
  91   0.0000       2.724597        74.1401 
  92   0.0000       2.724633        74.1410 
  93   0.0000       2.765080        75.2417 
  94   0.0000       3.017290        82.1046 
  95   0.0000       3.411891        92.8423 
------------------
MOLECULAR ORBITALS
------------------
                      0         1         2         3         4         5   
                 -10.17772 -10.17753 -10.17750 -10.17710 -10.17706 -10.17687
                   2.00000   2.00000   2.00000   2.00000   2.00000   2.00000
                  --------  --------  --------  --------  --------  --------
  0C   1s        -0.445736  0.358557 -0.431462  0.476697  0.338140 -0.367867
  0C   2s        -0.014318  0.012678 -0.015242  0.018285  0.012998 -0.015401
  0C   1pz       -0.000009  0.000011  0.000019 -0.000020  0.000004  0.000007
  0C   1px        0.000091  0.000827  0.000627 -0.000057  0.000933 -0.000564
  0C   1py       -0.000459  0.000287  0.000730 -0.000956 -0.000056  0.000532
  0C   3s         0.005804 -0.006485  0.009228 -0.018567 -0.011997  0.029349
  0C   2pz        0.000017 -0.000019 -0.000043  0.000080 -0.000001 -0.000141
  0C   2px       -0.000153 -0.001563 -0.000700 -0.001190 -0.002714  0.006820
  0C   2py        0.000862 -0.000457 -0.001920  0.004293  0.000743 -0.009010
  0C   1dz2      -0.000176  0.000067 -0.000008 -0.000618 -0.000478  0.000707
  0C   1dxz       0.000010 -0.000003  0.000001  0.000018  0.000013 -0.000022
  0C   1dyz       0.000009 -0.000017 -0.000016  0.000033  0.000003 -0.000021
  0C   1dx2y2    -0.000031  0.000611  0.000729 -0.000335  0.000752 -0.000351
  0C   1dxy       0.000391 -0.000308 -0.000189  0.000686  0.000180 -0.000605
  1C   1s        -0.344918 -0.167059 -0.548683  0.067139 -0.567892  0.464079
  1C   2s        -0.010739 -0.005656 -0.019049  0.002429 -0.021500  0.018982
  1C   1pz       -0.000010 -0.000004  0.000005 -0.000005  0.000017 -0.000019
  1C   1px       -0.000335  0.001080 -0.000165  0.000861  0.000519 -0.000291
  1C   1py       -0.000390 -0.000504  0.000299 -0.000492  0.000689 -0.000833
  1C   3s         0.003745  0.002500  0.009199 -0.000774  0.019010 -0.032316
  1C   2pz        0.000020  0.000009 -0.000010 -0.000003 -0.000069  0.000248
  1C   2px        0.000628 -0.001895  0.000299 -0.002379 -0.001833  0.004727
  1C   2py        0.000786  0.000987 -0.000589  0.000578 -0.002855  0.010824
  1C   1dz2      -0.000184 -0.000039 -0.000139 -0.000078  0.000678 -0.000792
  1C   1dxz      -0.000000 -0.000017  0.000003 -0.000015 -0.000004 -0.000002
  1C   1dyz      -0.000001  0.000011 -0.000001  0.000012 -0.000012  0.000015
  1C   1dx2y2     0.000316 -0.000672  0.000304 -0.000629 -0.000502  0.000436
  1C   1dxy      -0.000196 -0.000683 -0.000010 -0.000618  0.000325 -0.000622
  2C   1s        -0.506638  0.508412  0.192421 -0.554675  0.167928  0.319773
  2C   2s        -0.016539  0.018130  0.006913 -0.021467  0.006571  0.013581
  2C   1pz        0.000004 -0.000005  0.000025 -0.000013 -0.000015  0.000005
  2C   1px        0.000366  0.000411  0.000034 -0.000921  0.000396  0.000687
  2C   1py        0.000066 -0.000379  0.001231 -0.000355 -0.000855  0.000044
  2C   3s         0.007496 -0.010792 -0.004649  0.022263 -0.007135 -0.027754
  2C   2pz       -0.000005  0.000004 -0.000050  0.000053  0.000030 -0.000086
  2C   2px       -0.000478 -0.001479 -0.000580  0.004963 -0.001915 -0.010947
  2C   2py       -0.000116  0.000621 -0.002299  0.001141  0.002047 -0.000999
  2C   1dz2      -0.000149  0.000017 -0.000014  0.000791 -0.000256 -0.000657
  2C   1dxz      -0.000001 -0.000006  0.000019 -0.000006 -0.000015  0.000000
  2C   1dyz       0.000012 -0.000005  0.000010 -0.000043  0.000006  0.000035
  2C   1dx2y2    -0.000340  0.000118 -0.000182  0.000732 -0.000078 -0.000629
  2C   1dxy      -0.000037 -0.000319  0.000969 -0.000106 -0.000829 -0.000135
  3C   1s        -0.415956  0.026026  0.549146  0.200867 -0.573575 -0.381726
  3C   2s        -0.013206  0.000995  0.019269  0.007694 -0.021938 -0.015856
  3C   1pz        0.000010 -0.000002  0.000007  0.000009 -0.000018 -0.000015
  3C   1px        0.000029  0.001160 -0.000067 -0.000710 -0.000609 -0.000417
  3C   1py        0.000498 -0.000449  0.000349  0.000643 -0.000713 -0.000640
  3C   3s         0.004876 -0.000092 -0.009952 -0.008399  0.021235  0.029441
  3C   2pz       -0.000021  0.000008 -0.000016 -0.000052  0.000090  0.000235
  3C   2px       -0.000089 -0.002027  0.000028  0.001158  0.002371  0.004934
  3C   2py       -0.001010  0.001000 -0.000783 -0.002921  0.003720  0.010129
  3C   1dz2      -0.000203  0.000027  0.000085 -0.000237  0.000752  0.000691
  3C   1dxz      -0.000005  0.000018 -0.000002 -0.000014 -0.000004 -0.000001
  3C   1dyz       0.000002 -0.000012  0.000001  0.000014 -0.000012 -0.000011
  3C   1dx2y2     0.000138  0.000751 -0.000217 -0.000487 -0.000594 -0.000512
  3C   1dxy      -0.000385  0.000661  0.000002 -0.000691  0.000344  0.000443
  4C   1s        -0.337550 -0.582893 -0.206122 -0.516308  0.142998 -0.455078
  4C   2s        -0.010587 -0.020251 -0.007234 -0.019547  0.005458 -0.018769
  4C   1pz       -0.000004 -0.000006  0.000023  0.000012  0.000017  0.000006
  4C   1px       -0.000455  0.000221 -0.000022  0.000763 -0.000336  0.000911
  4C   1py       -0.000054 -0.000382  0.001144  0.000386  0.000957  0.000046
  4C   3s         0.004099  0.010821  0.004402  0.016437 -0.004547  0.032668
  4C   2pz        0.000008  0.000007 -0.000045 -0.000035 -0.000042 -0.000093
  4C   2px        0.000862 -0.000971 -0.000409 -0.002487  0.000892 -0.011919
  4C   2py        0.000115  0.000631 -0.002081 -0.000992 -0.002315 -0.001042
  4C   1dz2      -0.000130 -0.000115 -0.000022  0.000618 -0.000186  0.000837
  4C   1dxz      -0.000001  0.000005 -0.000017 -0.000007 -0.000016 -0.000000
  4C   1dyz       0.000010  0.000011 -0.000007 -0.000034  0.000001 -0.000044
  4C   1dx2y2    -0.000300 -0.000254  0.000122  0.000569  0.000004  0.000780
  4C   1dxy      -0.000046  0.000279 -0.000906 -0.000175 -0.000891  0.000182
  5C   1s        -0.358663 -0.484597  0.349212  0.379463  0.419338  0.430173
  5C   2s        -0.011289 -0.016766  0.012304  0.014299  0.016085  0.017762
  5C   1pz        0.000004  0.000011  0.000018  0.000019 -0.000003  0.000012
  5C   1px       -0.000359  0.000711  0.000665  0.000261 -0.000969 -0.000441
  5C   1py        0.000315  0.000337  0.000702  0.000877  0.000148  0.000730
  5C   3s         0.004371  0.008357 -0.007025 -0.011631 -0.015646 -0.031507
  5C   2pz       -0.000008 -0.000018 -0.000040 -0.000050 -0.000014 -0.000155
  5C   2px        0.000627 -0.001346 -0.000893 -0.000479  0.003337  0.006626
  5C   2py       -0.000584 -0.000484 -0.001707 -0.002317 -0.001697 -0.009646
  5C   1dz2      -0.000155 -0.000099  0.000059 -0.000454 -0.000540 -0.000783
  5C   1dxz       0.000008  0.000005 -0.000002  0.000013  0.000015  0.000024
  5C   1dyz       0.000003  0.000016  0.000014  0.000029  0.000005  0.000028
  5C   1dx2y2     0.000188 -0.000528 -0.000750 -0.000478  0.000752  0.000191
  5C   1dxy       0.000282  0.000368  0.000166  0.000569  0.000238  0.000728
  6H   1s         0.000739 -0.000551  0.000653 -0.000529 -0.000338  0.000498
  6H   2s        -0.002295  0.001202 -0.001454  0.001206  0.001024  0.000750
  7H   1s         0.000593  0.000260  0.000859 -0.000055  0.000617 -0.000614
  7H   2s        -0.001936 -0.000726 -0.002026  0.000406 -0.001773 -0.000449
  8H   1s         0.000823 -0.000766 -0.000288  0.000587 -0.000174 -0.000443
  8H   2s        -0.002478  0.001617  0.000570 -0.001373  0.000371 -0.000889
  9H   1s         0.000704 -0.000041 -0.000840 -0.000243  0.000618  0.000524
  9H   2s        -0.002203  0.000043  0.001951  0.000415 -0.001603  0.000696
 10H   1s         0.000604  0.000754 -0.000546 -0.000397 -0.000456 -0.000566
 10H   2s        -0.001972 -0.001842  0.001139  0.001324  0.001118 -0.000562
 11H   1s         0.000563  0.000914  0.000322  0.000547 -0.000143  0.000586
 11H   2s        -0.001905 -0.002107 -0.000686 -0.001697  0.000474  0.000503
                      6         7         8         9        10        11   
                  -0.84140  -0.73587  -0.73586  -0.59422  -0.59421  -0.51522
                   2.00000   2.00000   2.00000   2.00000   2.00000   2.00000
                  --------  --------  --------  --------  --------  --------
  0C   1s         0.093644  0.095650 -0.087844 -0.064223 -0.078659 -0.008609
  0C   2s        -0.177252 -0.186945  0.171677  0.130955  0.160366  0.019279
  0C   1pz        0.000775  0.001479  0.001215 -0.002024  0.002856  0.002594
  0C   1px       -0.034467  0.054013  0.076441 -0.154183  0.072509 -0.115320
  0C   1py        0.048502  0.056920  0.037223 -0.053988  0.119392  0.162489
  0C   3s        -0.113015 -0.139052  0.127868  0.096624  0.118744  0.030666
  0C   2pz        0.000092  0.000115  0.000325 -0.000229  0.001150  0.000893
  0C   2px       -0.004192  0.014980  0.007563 -0.055601  0.002470 -0.039455
  0C   2py        0.005856  0.001390  0.013824  0.005278  0.056278  0.055702
  0C   1dz2       0.009043  0.007159 -0.006582 -0.002892 -0.003554 -0.001467
  0C   1dxz      -0.000093 -0.000091  0.000070 -0.000042 -0.000065  0.000053
  0C   1dyz      -0.000317 -0.000394  0.000074  0.000245  0.000015  0.000050
  0C   1dx2y2     0.000029  0.006282  0.007149 -0.007472  0.003586  0.000584
  0C   1dxy       0.000084 -0.002688 -0.002036 -0.001348 -0.006092  0.001694
  1C   1s         0.093670 -0.028243 -0.126760  0.100216 -0.016297 -0.008626
  1C   2s        -0.177248  0.055197  0.247670 -0.204318  0.033224  0.019302
  1C   1pz        0.001246 -0.000421 -0.000349 -0.001378  0.000828  0.004170
  1C   1px        0.024777  0.099207 -0.030875 -0.059023 -0.177171  0.083019
  1C   1py        0.054083 -0.050378 -0.007885 -0.050548  0.093800  0.181153
  1C   3s        -0.113327  0.041040  0.184875 -0.150978  0.024591  0.030998
  1C   2pz        0.000154 -0.000010  0.000220 -0.001167  0.000360  0.001428
  1C   2px        0.003005  0.018105  0.000278 -0.031700 -0.045041  0.028511
  1C   2py        0.006707 -0.005779  0.010538 -0.047987  0.030755  0.061708
  1C   1dz2       0.009050 -0.002114 -0.009500  0.004517 -0.000736 -0.001478
  1C   1dxz      -0.000096 -0.000155  0.000132 -0.000090  0.000168 -0.000005
  1C   1dyz      -0.000319  0.000184  0.000296 -0.000277 -0.000054  0.000019
  1C   1dx2y2     0.000053 -0.007362  0.002074  0.004840  0.005757  0.001169
  1C   1dxy      -0.000057 -0.006529  0.000951 -0.003516  0.006207 -0.001361
  2C   1s         0.093637  0.123914  0.038904 -0.036005  0.094963 -0.008602
  2C   2s        -0.177210 -0.242089 -0.076029  0.073358 -0.193545  0.019244
  2C   1pz       -0.000470 -0.000824  0.002080  0.003513  0.001936 -0.001575
  2C   1px       -0.059250 -0.016348 -0.016311 -0.043020  0.059842 -0.198365
  2C   1py       -0.005573 -0.035775  0.107563  0.186291  0.077807 -0.018700
  2C   3s        -0.113086 -0.180784 -0.056510  0.054455 -0.143474  0.030591
  2C   2pz       -0.000061 -0.000038  0.000380  0.000840  0.000813 -0.000544
  2C   2px       -0.007115  0.010046  0.001376 -0.025100  0.051628 -0.068140
  2C   2py       -0.000779 -0.004971  0.018542  0.049006  0.024346 -0.006180
  2C   1dz2       0.009049  0.009292  0.002917 -0.001627  0.004298 -0.001466
  2C   1dxz      -0.000095 -0.000147  0.000152  0.000187 -0.000041 -0.000002
  2C   1dyz      -0.000316 -0.000367 -0.000012  0.000096 -0.000018  0.000085
  2C   1dx2y2    -0.000090  0.001159 -0.001605  0.000567 -0.005988 -0.001763
  2C   1dxy      -0.000022 -0.002858  0.009479  0.008235  0.001941 -0.000324
  3C   1s         0.093646  0.028276  0.126759  0.100232 -0.016304 -0.008637
  3C   2s        -0.177205 -0.055265 -0.247673 -0.204352  0.033234  0.019322
  3C   1pz       -0.001246 -0.000421 -0.000348  0.001379 -0.000829 -0.004170
  3C   1px       -0.024804  0.099170 -0.030912  0.058917  0.177138 -0.082989
  3C   1py       -0.054063 -0.050380 -0.007884  0.050593 -0.093820 -0.181136
  3C   3s        -0.113304 -0.041071 -0.184901 -0.151054  0.024662  0.031027
  3C   2pz       -0.000154 -0.000010  0.000220  0.001167 -0.000359 -0.001428
  3C   2px       -0.003011  0.018098  0.000270  0.031671  0.045049 -0.028488
  3C   2py       -0.006710 -0.005766  0.010523  0.047980 -0.030711 -0.061713
  3C   1dz2       0.009049  0.002115  0.009501  0.004518 -0.000739 -0.001478
  3C   1dxz      -0.000096  0.000155 -0.000132 -0.000089  0.000168 -0.000005
  3C   1dyz      -0.000319 -0.000184 -0.000297 -0.000278 -0.000054  0.000020
  3C   1dx2y2     0.000053  0.007361 -0.002070  0.004845  0.005754  0.001160
  3C   1dxy      -0.000058  0.006530 -0.000949 -0.003512  0.006211 -0.001368
  4C   1s         0.093684 -0.123902 -0.038899 -0.035992  0.094932 -0.008582
  4C   2s        -0.177292  0.242057  0.076016  0.073332 -0.193479  0.019205
  4C   1pz        0.000470 -0.000824  0.002081 -0.003515 -0.001936  0.001576
  4C   1px        0.059262 -0.016313 -0.016304  0.043027 -0.059839  0.198425
  4C   1py        0.005574 -0.035787  0.107610 -0.186366 -0.077836  0.018706
  4C   3s        -0.113129  0.180724  0.056488  0.054392 -0.143309  0.030539
  4C   2pz        0.000061 -0.000038  0.000381 -0.000841 -0.000814  0.000544
  4C   2px        0.007105  0.010075  0.001383  0.025120 -0.051676  0.068147
  4C   2py        0.000778 -0.004975  0.018563 -0.049031 -0.024363  0.006181
  4C   1dz2       0.009052 -0.009290 -0.002916 -0.001626  0.004295 -0.001467
  4C   1dxz      -0.000095  0.000147 -0.000152  0.000187 -0.000041 -0.000002
  4C   1dyz      -0.000316  0.000367  0.000012  0.000096 -0.000018  0.000085
  4C   1dx2y2    -0.000089 -0.001161  0.001605  0.000567 -0.005986 -0.001764
  4C   1dxy      -0.000022  0.002858 -0.009481  0.008232  0.001941 -0.000324
  5C   1s         0.093667 -0.095624  0.087863 -0.064216 -0.078643 -0.008598
  5C   2s        -0.177292  0.186890 -0.171712  0.130935  0.160337  0.019258
  5C   1pz       -0.000776  0.001480  0.001214  0.002026 -0.002854 -0.002594
  5C   1px        0.034442  0.054065  0.076430  0.154277 -0.072472  0.115351
  5C   1py       -0.048527  0.056931  0.037218  0.054027 -0.119343 -0.162501
  5C   3s        -0.113036  0.139012 -0.127863  0.096612  0.118639  0.030634
  5C   2pz       -0.000092  0.000116  0.000326  0.000229 -0.001150 -0.000892
  5C   2px        0.004186  0.014990  0.007557  0.055612 -0.002438  0.039475
  5C   2py       -0.005854  0.001392  0.013842 -0.005252 -0.056312 -0.055694
  5C   1dz2       0.009045 -0.007157  0.006582 -0.002892 -0.003551 -0.001467
  5C   1dxz      -0.000093  0.000091 -0.000070 -0.000042 -0.000065  0.000053
  5C   1dyz      -0.000317  0.000394 -0.000074  0.000245  0.000015  0.000049
  5C   1dx2y2     0.000029 -0.006280 -0.007153 -0.007469  0.003591  0.000595
  5C   1dxy       0.000083  0.002686  0.002035 -0.001352 -0.006090  0.001691
  6H   1s        -0.035917 -0.058059  0.053331  0.072741  0.089108  0.108573
  6H   2s        -0.004856 -0.011424  0.010490  0.025353  0.031100  0.066781
  7H   1s        -0.035932  0.017154  0.076957 -0.113518  0.018425  0.108610
  7H   2s        -0.004876  0.003352  0.015167 -0.039508  0.006417  0.066867
  8H   1s        -0.035903 -0.075207 -0.023616  0.040782 -0.107559  0.108549
  8H   2s        -0.004818 -0.014816 -0.004626  0.014215 -0.037517  0.066674
  9H   1s        -0.035920 -0.017154 -0.076956 -0.113523  0.018487  0.108604
  9H   2s        -0.004877 -0.003349 -0.015172 -0.039517  0.006462  0.066863
 10H   1s        -0.035928  0.058060 -0.053332  0.072776  0.089061  0.108579
 10H   2s        -0.004856  0.011423 -0.010484  0.025375  0.031062  0.066785
 11H   1s        -0.035926  0.075211  0.023616  0.040772 -0.107533  0.108564
 11H   2s        -0.004817  0.014808  0.004623  0.014203 -0.037486  0.066686
                     12        13        14        15        16        17   
                  -0.45756  -0.43373  -0.41403  -0.41400  -0.35493  -0.33714
                   2.00000   2.00000   2.00000   2.00000   2.00000   2.00000
                  --------  --------  --------  --------  --------  --------
  0C   1s         0.058763 -0.000008  0.018493 -0.013866 -0.000000 -0.004651
  0C   2s        -0.118543  0.000015 -0.040775  0.030562  0.000006  0.017865
  0C   1pz       -0.001741 -0.004573  0.004047 -0.001253 -0.221823 -0.003073
  0C   1px        0.077511 -0.224176 -0.099581  0.162608  0.001332  0.123959
  0C   1py       -0.109085 -0.159015  0.229811 -0.109981  0.004485 -0.188877
  0C   3s        -0.155873  0.000050 -0.074176  0.055623  0.000031 -0.028952
  0C   2pz       -0.000487 -0.001548  0.000798 -0.000991 -0.129101 -0.000536
  0C   2px        0.021864 -0.075789 -0.052820  0.020662  0.000799  0.018900
  0C   2py       -0.030838 -0.053845  0.055163 -0.054851  0.002612 -0.032383
  0C   1dz2       0.002601  0.000001 -0.001886  0.001411  0.000212  0.003360
  0C   1dxz       0.000309  0.000004 -0.000132  0.000083 -0.005475  0.000435
  0C   1dyz      -0.000107  0.000080 -0.000090 -0.000273  0.007688 -0.000133
  0C   1dx2y2     0.005258 -0.003589  0.005057  0.011441  0.000187  0.007008
  0C   1dxy       0.015043  0.001245 -0.009001  0.001428  0.000066  0.021121
  1C   1s        -0.058790  0.000028 -0.002764 -0.022933  0.000002  0.002445
  1C   2s         0.118568 -0.000035  0.006091  0.050565 -0.000001 -0.009426
  1C   1pz        0.002798 -0.000808 -0.001022 -0.006340 -0.221860  0.003168
  1C   1px        0.055720  0.249872  0.062451 -0.136060  0.001342 -0.158261
  1C   1py        0.121602 -0.114486 -0.068934 -0.272157  0.004519  0.203465
  1C   3s         0.156073 -0.000345  0.011117  0.091580 -0.000054  0.015422
  1C   2pz        0.000794 -0.000277 -0.000191 -0.001966 -0.129092  0.000681
  1C   2px        0.015789  0.084409 -0.021595 -0.036948  0.000795 -0.074199
  1C   2py        0.034323 -0.038501 -0.002675 -0.085630  0.002586  0.055553
  1C   1dz2      -0.002596  0.000004  0.000281  0.002343  0.000343 -0.001770
  1C   1dxz       0.000209 -0.000068 -0.000242 -0.000093  0.003936  0.000321
  1C   1dyz       0.000374  0.000044  0.000118 -0.000250  0.008575  0.000162
  1C   1dx2y2    -0.010399 -0.002875 -0.009042  0.006702  0.000150 -0.000470
  1C   1dxy       0.012073 -0.002472 -0.009140 -0.005408 -0.000131  0.015068
  2C   1s        -0.058756  0.000012  0.021243  0.009085 -0.000001  0.002203
  2C   2s         0.118480 -0.000017 -0.046898 -0.020010  0.000015 -0.008448
  2C   1pz       -0.001056  0.005385 -0.002897  0.000597 -0.221782  0.003798
  2C   1px       -0.133209 -0.025812 -0.277317 -0.127245  0.001363 -0.128565
  2C   1py       -0.012515  0.273625 -0.060215  0.067759  0.004493  0.225795
  2C   3s         0.156024 -0.000302 -0.084725 -0.036692  0.000002  0.013552
  2C   2pz       -0.000307  0.001829 -0.000548 -0.000636 -0.129344  0.001697
  2C   2px       -0.037665 -0.008941 -0.086990 -0.035456  0.000738 -0.026539
  2C   2py       -0.003585  0.092682 -0.000764 -0.020387  0.002612  0.091798
  2C   1dz2      -0.002610  0.000007 -0.002175 -0.000920 -0.000129 -0.001585
  2C   1dxz       0.000182  0.000071  0.000004  0.000265 -0.009408  0.000303
  2C   1dyz      -0.000208  0.000037 -0.000120  0.000085 -0.000883 -0.000047
  2C   1dx2y2     0.015655 -0.000706  0.008664  0.001079  0.000040  0.008512
  2C   1dxy       0.002974  0.003738 -0.003510  0.012297  0.000195  0.011617
  3C   1s         0.058773  0.000007  0.002774  0.022923 -0.000001  0.002446
  3C   2s        -0.118532 -0.000039 -0.006111 -0.050546 -0.000000 -0.009434
  3C   1pz        0.002799 -0.000809 -0.001022 -0.006343 -0.221829 -0.003163
  3C   1px        0.055739  0.249936  0.062486 -0.136003  0.001340  0.158244
  3C   1py        0.121570 -0.114514 -0.068919 -0.272239  0.004514 -0.203314
  3C   3s        -0.156048  0.000261 -0.011152 -0.091554  0.000054  0.015481
  3C   2pz        0.000794 -0.000276 -0.000191 -0.001966 -0.129079 -0.000679
  3C   2px        0.015802  0.084459 -0.021560 -0.036987  0.000795  0.074193
  3C   2py        0.034304 -0.038457 -0.002684 -0.085642  0.002586 -0.055480
  3C   1dz2       0.002596 -0.000006 -0.000282 -0.002342 -0.000343 -0.001771
  3C   1dxz      -0.000209  0.000068  0.000242  0.000093 -0.003940  0.000321
  3C   1dyz      -0.000374 -0.000044 -0.000118  0.000250 -0.008573  0.000163
  3C   1dx2y2     0.010407  0.002877  0.009041 -0.006714 -0.000150 -0.000474
  3C   1dxy      -0.012061  0.002477  0.009137  0.005403  0.000132  0.015061
  4C   1s         0.058790 -0.000013 -0.021260 -0.009092  0.000001  0.002206
  4C   2s        -0.118550  0.000017  0.046930  0.020024 -0.000015 -0.008455
  4C   1pz       -0.001057  0.005383 -0.002896  0.000597 -0.221842 -0.003798
  4C   1px       -0.133247 -0.025801 -0.277237 -0.127203  0.001361  0.128616
  4C   1py       -0.012518  0.273481 -0.060197  0.067730  0.004489 -0.225910
  4C   3s        -0.156073  0.000303  0.084766  0.036713 -0.000003  0.013566
  4C   2pz       -0.000308  0.001828 -0.000547 -0.000637 -0.129368 -0.001696
  4C   2px       -0.037687 -0.008936 -0.086945 -0.035428  0.000738  0.026520
  4C   2py       -0.003586  0.092628 -0.000729 -0.020460  0.002610 -0.091797
  4C   1dz2       0.002610 -0.000007  0.002176  0.000920  0.000129 -0.001586
  4C   1dxz      -0.000182 -0.000071 -0.000004 -0.000265  0.009409  0.000303
  4C   1dyz       0.000208 -0.000036  0.000120 -0.000085  0.000883 -0.000047
  4C   1dx2y2    -0.015662  0.000704 -0.008657 -0.001076 -0.000040  0.008513
  4C   1dxy      -0.002976 -0.003729  0.003512 -0.012297 -0.000195  0.011621
  5C   1s        -0.058780 -0.000026 -0.018495  0.013880  0.000000 -0.004654
  5C   2s         0.118579  0.000058  0.040776 -0.030591 -0.000005  0.017871
  5C   1pz       -0.001742 -0.004572  0.004046 -0.001252 -0.221852  0.003078
  5C   1px        0.077496 -0.224114 -0.099634  0.162604  0.001335 -0.123952
  5C   1py       -0.109123 -0.158974  0.229757 -0.109909  0.004491  0.188938
  5C   3s         0.155899  0.000034  0.074171 -0.055670 -0.000031 -0.028964
  5C   2pz       -0.000488 -0.001548  0.000797 -0.000992 -0.129113  0.000538
  5C   2px        0.021854 -0.075732 -0.052814  0.020610  0.000801 -0.018833
  5C   2py       -0.030859 -0.053878  0.055149 -0.054860  0.002614  0.032409
  5C   1dz2      -0.002601  0.000001  0.001886 -0.001411 -0.000213  0.003361
  5C   1dxz      -0.000309 -0.000004  0.000132 -0.000083  0.005471  0.000435
  5C   1dyz       0.000107 -0.000080  0.000091  0.000272 -0.007691 -0.000132
  5C   1dx2y2    -0.005247  0.003585 -0.005067 -0.011433 -0.000188  0.006998
  5C   1dxy      -0.015051 -0.001242  0.009003 -0.001426 -0.000065  0.021127
  6H   1s        -0.140639  0.000052  0.133090 -0.099837  0.000001 -0.170125
  6H   2s        -0.098930  0.000068  0.125494 -0.094169  0.000005 -0.193995
  7H   1s         0.140632  0.000040 -0.019906 -0.165214  0.000013  0.089663
  7H   2s         0.098869 -0.000000 -0.018700 -0.155953  0.000041  0.102260
  8H   1s         0.140601  0.000018  0.153025  0.065347 -0.000011  0.080487
  8H   2s         0.098838 -0.000035  0.144294  0.061598 -0.000032  0.091719
  9H   1s        -0.140604 -0.000004  0.019884  0.165256 -0.000009  0.089622
  9H   2s        -0.098854  0.000057  0.018678  0.155986 -0.000037  0.102196
 10H   1s         0.140669 -0.000085 -0.133076  0.099789 -0.000003 -0.170153
 10H   2s         0.098947 -0.000122 -0.125487  0.094127 -0.000007 -0.194037
 11H   1s        -0.140658 -0.000020 -0.152957 -0.065314  0.000009  0.080512
 11H   2s        -0.098868  0.000033 -0.144242 -0.061572  0.000030  0.091757
                     18        19        20        21        22        23   
                  -0.33714  -0.24238  -0.24232   0.00663   0.00668   0.09586
                   2.00000   2.00000   2.00000   0.00000   0.00000   0.00000
                  --------  --------  --------  --------  --------  --------
  0C   1s         0.000142  0.000002  0.000000 -0.000002 -0.000000  0.038538
  0C   2s        -0.000533 -0.000005 -0.000005 -0.000008 -0.000003 -0.063942
  0C   1pz       -0.004377  0.165090  0.296648 -0.272834  0.241648 -0.001628
  0C   1px       -0.223215 -0.000995 -0.001795  0.001636 -0.001471  0.073353
  0C   1py       -0.149792 -0.003336 -0.006010  0.005524 -0.004891 -0.103094
  0C   3s         0.000865 -0.000031 -0.000001  0.000063  0.000023 -0.514681
  0C   2pz       -0.001754  0.118847  0.213424 -0.362692  0.320727 -0.003651
  0C   2px       -0.087427 -0.000754 -0.001309  0.002221 -0.001939  0.163355
  0C   2py       -0.060600 -0.002429 -0.004340  0.007429 -0.006506 -0.230171
  0C   1dz2      -0.000100 -0.000524  0.000169  0.000385  0.000810 -0.002528
  0C   1dxz      -0.000003 -0.012007  0.009862  0.020921  0.014035 -0.000354
  0C   1dyz       0.000239 -0.011368  0.001879  0.004729  0.018912  0.000107
  0C   1dx2y2    -0.010745 -0.000159 -0.000023 -0.000029  0.000298 -0.005981
  0C   1dxy       0.003023  0.000312 -0.000212 -0.000453 -0.000400 -0.017119
  1C   1s         0.003957 -0.000000 -0.000002  0.000000 -0.000003  0.038608
  1C   2s        -0.015192 -0.000006 -0.000017 -0.000010 -0.000018 -0.063815
  1C   1pz        0.003604 -0.174257  0.291340  0.345519  0.115734 -0.002628
  1C   1px        0.208740  0.001053 -0.001753 -0.002080 -0.000688 -0.052751
  1C   1py        0.115575  0.003536 -0.005911 -0.006999 -0.002341 -0.114979
  1C   3s         0.024641  0.000025  0.000068  0.000003  0.000078 -0.516400
  1C   2pz        0.000497 -0.125426  0.209595  0.459181  0.153496 -0.005970
  1C   2px        0.064308  0.000727 -0.001289 -0.002723 -0.000921 -0.118475
  1C   2py        0.005326  0.002540 -0.004206 -0.009320 -0.003015 -0.257384
  1C   1dz2      -0.002849  0.000171 -0.000101  0.000330  0.000270 -0.002506
  1C   1dxz       0.000141 -0.013605 -0.010468  0.012971 -0.024330  0.000232
  1C   1dyz       0.000504  0.008930  0.000290  0.005539  0.014991  0.000411
  1C   1dx2y2    -0.016802  0.000265  0.000070  0.000033  0.000451 -0.011815
  1C   1dxy       0.010502  0.000221  0.000211 -0.000297  0.000403  0.013737
  2C   1s        -0.004095  0.000001 -0.000000 -0.000001  0.000001  0.038516
  2C   2s         0.015767 -0.000003  0.000006 -0.000003 -0.000011 -0.063949
  2C   1pz        0.004068  0.339354  0.005309 -0.072601 -0.357063  0.000980
  2C   1px        0.186220 -0.002063 -0.000025  0.000436  0.002166  0.125901
  2C   1py        0.145202 -0.006876 -0.000110  0.001474  0.007237  0.011806
  2C   3s        -0.025650 -0.000020 -0.000006  0.000098 -0.000022 -0.514168
  2C   2pz        0.001255  0.244426  0.003818 -0.096533 -0.474434  0.002204
  2C   2px        0.028046 -0.001448 -0.000038  0.000593  0.002821  0.281909
  2C   2py        0.053342 -0.004966 -0.000094  0.001955  0.009603  0.025971
  2C   1dz2       0.002971  0.000056  0.000638 -0.000965  0.000350 -0.002533
  2C   1dxz      -0.000122  0.004790 -0.001685  0.004936  0.010197  0.000202
  2C   1dyz       0.000315  0.000155  0.018671 -0.028939  0.006938 -0.000250
  2C   1dx2y2    -0.020256 -0.000026  0.000389 -0.000617  0.000079  0.017829
  2C   1dxy       0.001522 -0.000098 -0.000079  0.000075 -0.000248  0.003383
  3C   1s         0.003953 -0.000000 -0.000001 -0.000001  0.000003  0.038604
  3C   2s        -0.015182 -0.000005 -0.000018  0.000011  0.000019 -0.063805
  3C   1pz       -0.003600  0.174292 -0.291342  0.345540  0.115848  0.002630
  3C   1px       -0.208756 -0.001053  0.001753 -0.002081 -0.000688  0.052761
  3C   1py       -0.115603 -0.003538  0.005912 -0.007001 -0.002344  0.114976
  3C   3s         0.024582  0.000025  0.000071  0.000001 -0.000076 -0.516441
  3C   2pz       -0.000495  0.125467 -0.209591  0.459196  0.153612  0.005976
  3C   2px       -0.064392 -0.000728  0.001291 -0.002724 -0.000922  0.118246
  3C   2py       -0.005358 -0.002542  0.004210 -0.009325 -0.003019  0.257461
  3C   1dz2      -0.002848  0.000171 -0.000101 -0.000330 -0.000270 -0.002506
  3C   1dxz       0.000141 -0.013602 -0.010471 -0.012968  0.024329  0.000232
  3C   1dyz       0.000504  0.008929  0.000289 -0.005542 -0.014993  0.000411
  3C   1dx2y2    -0.016808  0.000264  0.000070 -0.000033 -0.000451 -0.011825
  3C   1dxy       0.010496  0.000221  0.000211  0.000297 -0.000403  0.013735
  4C   1s        -0.004098  0.000001 -0.000000  0.000001 -0.000001  0.038523
  4C   2s         0.015774 -0.000003  0.000005  0.000003  0.000011 -0.063971
  4C   1pz       -0.004065 -0.339317 -0.005311 -0.072576 -0.356954 -0.000981
  4C   1px       -0.186282  0.002063  0.000025  0.000436  0.002166 -0.125891
  4C   1py       -0.145275  0.006876  0.000110  0.001473  0.007235 -0.011807
  4C   3s        -0.025682 -0.000021 -0.000002 -0.000097  0.000021 -0.514056
  4C   2pz       -0.001252 -0.244393 -0.003820 -0.096509 -0.474336 -0.002207
  4C   2px       -0.028009  0.001449  0.000035  0.000593  0.002820 -0.281956
  4C   2py       -0.053339  0.004965  0.000093  0.001955  0.009602 -0.025972
  4C   1dz2       0.002972  0.000056  0.000638  0.000965 -0.000350 -0.002534
  4C   1dxz      -0.000123  0.004787 -0.001686 -0.004935 -0.010193  0.000202
  4C   1dyz       0.000315  0.000155  0.018674  0.028942 -0.006938 -0.000250
  4C   1dx2y2    -0.020259 -0.000026  0.000389  0.000617 -0.000079  0.017820
  4C   1dxy       0.001523 -0.000098 -0.000079 -0.000075  0.000248  0.003381
  5C   1s         0.000146  0.000002 -0.000000  0.000002  0.000000  0.038541
  5C   2s        -0.000546 -0.000005 -0.000004  0.000008  0.000003 -0.063954
  5C   1pz        0.004385 -0.165059 -0.296644 -0.272859  0.241537  0.001628
  5C   1px        0.223205  0.000994  0.001795  0.001637 -0.001469 -0.073341
  5C   1py        0.149927  0.003336  0.006010  0.005525 -0.004889  0.103095
  5C   3s         0.000945 -0.000030 -0.000004 -0.000060 -0.000023 -0.514621
  5C   2pz        0.001758 -0.118808 -0.213428 -0.362721  0.320620  0.003646
  5C   2px        0.087376  0.000754  0.001311  0.002222 -0.001937 -0.163552
  5C   2py        0.060668  0.002429  0.004338  0.007430 -0.006503  0.230048
  5C   1dz2      -0.000102 -0.000524  0.000168 -0.000385 -0.000810 -0.002528
  5C   1dxz      -0.000003 -0.012010  0.009858 -0.020923 -0.014036 -0.000354
  5C   1dyz       0.000240 -0.011370  0.001879 -0.004731 -0.018909  0.000107
  5C   1dx2y2    -0.010747 -0.000159 -0.000023  0.000029 -0.000297 -0.005971
  5C   1dxy       0.003025  0.000313 -0.000212  0.000453  0.000400 -0.017118
  6H   1s         0.005302  0.000000  0.000000 -0.000002  0.000002  0.058953
  6H   2s         0.006063  0.000014 -0.000006 -0.000073 -0.000027  0.735705
  7H   1s         0.144736  0.000002 -0.000006 -0.000003 -0.000005  0.059000
  7H   2s         0.165089  0.000004 -0.000045 -0.000016 -0.000118  0.737283
  8H   1s        -0.149950  0.000007 -0.000004  0.000000 -0.000007  0.059016
  8H   2s        -0.170932  0.000020 -0.000011 -0.000010 -0.000018  0.736084
  9H   1s         0.144729  0.000002 -0.000006  0.000001  0.000005  0.059017
  9H   2s         0.165079  0.000004 -0.000044  0.000012  0.000116  0.737250
 10H   1s         0.005276 -0.000000  0.000000  0.000001 -0.000002  0.058932
 10H   2s         0.006022  0.000014 -0.000007  0.000070  0.000027  0.735715
 11H   1s        -0.149995  0.000007 -0.000003 -0.000001  0.000007  0.058978
 11H   2s        -0.171001  0.000020 -0.000010  0.000010  0.000018  0.736129
                     24        25        26        27        28        29   
                   0.14919   0.14930   0.16622   0.18551   0.18555   0.19455
                   0.00000   0.00000   0.00000   0.00000   0.00000   0.00000
                  --------  --------  --------  --------  --------  --------
  0C   1s         0.021505 -0.031921 -0.000009 -0.030715  0.083112 -0.053551
  0C   2s        -0.020374  0.030662 -0.000007  0.044767 -0.121060  0.153248
  0C   1pz       -0.002133  0.002450 -0.291513 -0.000757 -0.001973  0.001009
  0C   1px        0.062713 -0.131132  0.001755 -0.086754  0.040975 -0.043387
  0C   1py       -0.125605  0.159394  0.005900 -0.011493 -0.106699  0.061623
  0C   3s        -0.547044  0.809227  0.000214  0.545397 -1.489079 -0.214489
  0C   2pz       -0.001374  0.008581 -0.537646 -0.004273 -0.009145  0.016235
  0C   2px        0.344281 -0.191113  0.003250 -0.445295  0.175045 -0.722386
  0C   2py       -0.170399  0.480812  0.010962 -0.079156 -0.502317  1.017894
  0C   1dz2       0.001427 -0.002099 -0.000382  0.000162 -0.000319  0.011824
  0C   1dxz      -0.000144  0.000194  0.009830 -0.000097  0.000223 -0.000294
  0C   1dyz      -0.000259 -0.000082 -0.013827 -0.000253 -0.000093 -0.000405
  0C   1dx2y2     0.007819  0.009389 -0.000340  0.009958  0.007618 -0.002726
  0C   1dxy      -0.008858  0.005819 -0.000117 -0.007616  0.008458 -0.007592
  1C   1s         0.038468  0.002642  0.000009 -0.056398 -0.067946  0.053919
  1C   2s        -0.036556 -0.002558 -0.000016  0.081269  0.098620 -0.153630
  1C   1pz       -0.005142 -0.000304  0.291579  0.001354  0.002076 -0.001578
  1C   1px       -0.101508 -0.030885 -0.001755  0.088727 -0.010360 -0.031891
  1C   1py       -0.225718 -0.004788 -0.005919  0.041720  0.104083 -0.068661
  1C   3s        -0.975580 -0.067488 -0.000187  1.018389  1.218356  0.208145
  1C   2pz       -0.012665 -0.001514  0.537802  0.006178  0.009596 -0.026165
  1C   2px       -0.267132  0.181229 -0.003197  0.445501 -0.077350 -0.523842
  1C   2py       -0.544537 -0.129133 -0.010903  0.172125  0.494532 -1.135729
  1C   1dz2       0.002538  0.000176  0.000615  0.000138  0.000258 -0.011833
  1C   1dxz       0.000103 -0.000214  0.007059  0.000254 -0.000047  0.000028
  1C   1dyz       0.000088  0.000147  0.015420  0.000009  0.000238  0.000272
  1C   1dx2y2    -0.006064 -0.009852  0.000270  0.002728 -0.011815  0.005285
  1C   1dxy       0.008386 -0.007541 -0.000235  0.011772  0.001180 -0.006195
  2C   1s        -0.016868 -0.034624  0.000004  0.087441 -0.015141  0.053339
  2C   2s         0.016018  0.033095  0.000006 -0.127341  0.021913 -0.152750
  2C   1pz       -0.001352 -0.001525  0.291428  0.001182  0.001454  0.000585
  2C   1px       -0.106139 -0.223202 -0.001753  0.114620 -0.027641  0.074478
  2C   1py       -0.033507 -0.009487 -0.005909  0.024901  0.078957  0.007023
  2C   3s         0.428999  0.877786 -0.000081 -1.562438  0.270506  0.217188
  2C   2pz        0.001770 -0.006200  0.537600  0.005727  0.007745  0.009853
  2C   2px       -0.282832 -0.534217 -0.003142  0.532304 -0.134608  1.241088
  2C   2py        0.171893 -0.146411 -0.010934  0.124238  0.419798  0.115971
  2C   1dz2      -0.001120 -0.002288 -0.000232 -0.000358  0.000071 -0.011810
  2C   1dxz       0.000180 -0.000169 -0.016890 -0.000143 -0.000219  0.000046
  2C   1dyz       0.000232  0.000204 -0.001583  0.000198 -0.000161  0.000567
  2C   1dx2y2    -0.006541 -0.008134  0.000070 -0.010444  0.004240 -0.007904
  2C   1dxy       0.010133 -0.007089  0.000353 -0.004209 -0.011909 -0.001520
  3C   1s        -0.038454 -0.002666  0.000009 -0.056920 -0.067877 -0.053496
  3C   2s         0.036528  0.002614 -0.000017  0.082798  0.098392  0.153053
  3C   1pz       -0.005137 -0.000304 -0.291517 -0.001369 -0.002076 -0.001571
  3C   1px       -0.101501 -0.030873  0.001753 -0.089091  0.010431 -0.030984
  3C   1py       -0.225748 -0.004774  0.005914 -0.042320 -0.104016 -0.068367
  3C   3s         0.975387  0.067725 -0.000160  1.015614  1.218982 -0.216056
  3C   2pz       -0.012660 -0.001515 -0.537638 -0.006444 -0.009554 -0.026123
  3C   2px       -0.266504  0.180941  0.003196 -0.450616  0.078422 -0.518849
  3C   2py       -0.544780 -0.129038  0.010898 -0.183474 -0.492549 -1.134746
  3C   1dz2      -0.002539 -0.000173  0.000614  0.000263  0.000236  0.011837
  3C   1dxz      -0.000103  0.000215  0.007068  0.000254 -0.000046 -0.000030
  3C   1dyz      -0.000088 -0.000147  0.015413  0.000006  0.000239 -0.000272
  3C   1dx2y2     0.006077  0.009853  0.000270  0.002681 -0.011807 -0.005322
  3C   1dxy      -0.008380  0.007548 -0.000235  0.011835  0.001179  0.006094
  4C   1s         0.016880  0.034646  0.000005  0.086883 -0.015040 -0.054194
  4C   2s        -0.016043 -0.033140  0.000004 -0.125738  0.021624  0.153920
  4C   1pz       -0.001345 -0.001525 -0.291551 -0.001175 -0.001452  0.000593
  4C   1px       -0.106115 -0.223161  0.001751 -0.113874  0.027489  0.075780
  4C   1py       -0.033511 -0.009480  0.005910 -0.024801 -0.078801  0.007141
  4C   3s        -0.429177 -0.878106 -0.000090 -1.565035  0.270952 -0.201153
  4C   2pz        0.001793 -0.006207 -0.537922 -0.005627 -0.007760  0.009895
  4C   2px       -0.282926 -0.534257  0.003127 -0.519913  0.132368  1.247069
  4C   2py        0.172538 -0.146722  0.010945 -0.123075 -0.419968  0.116506
  4C   1dz2       0.001120  0.002288 -0.000232 -0.000232  0.000048  0.011802
  4C   1dxz      -0.000179  0.000169 -0.016895 -0.000144 -0.000219 -0.000045
  4C   1dyz      -0.000232 -0.000204 -0.001583  0.000192 -0.000160 -0.000568
  4C   1dx2y2     0.006536  0.008129  0.000070 -0.010354  0.004224  0.008008
  4C   1dxy      -0.010125  0.007084  0.000353 -0.004192 -0.011911  0.001539
  5C   1s        -0.021535  0.031918 -0.000010 -0.030200  0.082996  0.053982
  5C   2s         0.020442 -0.030652 -0.000005  0.043251 -0.120740 -0.153838
  5C   1pz       -0.002139  0.002450  0.291573  0.000765  0.001970  0.001007
  5C   1px        0.062704 -0.131146 -0.001753  0.086276 -0.040883 -0.044334
  5C   1py       -0.125578  0.159376 -0.005905  0.012004  0.106568  0.061759
  5C   3s         0.547387 -0.809238  0.000222  0.548169 -1.489483  0.206379
  5C   2pz       -0.001373  0.008576  0.537803  0.004438  0.009112  0.016214
  5C   2px        0.344860 -0.191388 -0.003233  0.438090 -0.173843 -0.727471
  5C   2py       -0.170064  0.480624 -0.010978  0.089338  0.500413  1.017991
  5C   1dz2      -0.001425  0.002100 -0.000383  0.000037 -0.000296 -0.011820
  5C   1dxz       0.000143 -0.000194  0.009822 -0.000094  0.000222  0.000295
  5C   1dyz       0.000260  0.000082 -0.013835 -0.000248 -0.000094  0.000407
  5C   1dx2y2    -0.007824 -0.009376 -0.000340  0.009980  0.007618  0.002655
  5C   1dxy       0.008854 -0.005823 -0.000117 -0.007544  0.008435  0.007673
  6H   1s         0.024243 -0.035990 -0.000003 -0.005540  0.014319 -0.046999
  6H   2s         0.690954 -1.025492 -0.000124 -0.440889  1.187028 -1.224629
  7H   1s         0.043374  0.003006  0.000002 -0.009551 -0.011776  0.047089
  7H   2s         1.235478  0.085521  0.000077 -0.803572 -0.970075  1.230260
  8H   1s        -0.019043 -0.039097  0.000010  0.015279 -0.002669  0.046938
  8H   2s        -0.542208 -1.112282  0.000126  1.250985 -0.217328  1.220885
  9H   1s        -0.043389 -0.003015  0.000003 -0.010080 -0.011639 -0.047016
  9H   2s        -1.235377 -0.085620  0.000058 -0.815347 -0.968155 -1.223676
 10H   1s        -0.024240  0.035972 -0.000003 -0.004998  0.014264  0.047073
 10H   2s        -0.691126  1.025513 -0.000151 -0.429135  1.184716  1.231355
 11H   1s         0.019028  0.039068  0.000011  0.014815 -0.002585 -0.047084
 11H   2s         0.542300  1.112461  0.000148  1.238915 -0.215148 -1.234214
                     30        31        32        33        34        35   
                   0.30556   0.30592   0.32129   0.32134   0.47932   0.53134
                   0.00000   0.00000   0.00000   0.00000   0.00000   0.00000
                  --------  --------  --------  --------  --------  --------
  0C   1s         0.045154  0.056245 -0.051196  0.005184  0.000202 -0.000001
[...]
 4 C  dxy            13.8       0.4       0.0       0.7       0.0      19.0
 5 C  s               0.0       1.1       8.2       0.6       0.3       1.5
 5 C  px              1.6       0.4       1.1       0.8       0.3       0.5
 5 C  py              0.8       0.7       2.1       0.3       0.8       1.2
 5 C  dz2             0.0       0.0       3.1       4.2       1.8       1.2
 5 C  dx2y2          12.8       1.3       0.0       1.7       0.3      12.7
 5 C  dxy             1.6      10.4       0.1      10.8       5.0       0.3
 6 H  s               0.0       2.9       2.0       4.5       1.9       0.3
 7 H  s               0.0       2.9       2.0       0.0       6.4       0.7
 8 H  s               0.0       2.9       2.0       5.1       1.3       0.1
 9 H  s               0.0       2.9       2.0       0.0       6.4       0.7
10 H  s               0.0       2.9       2.0       4.5       1.9       0.3
11 H  s               0.0       2.9       2.0       5.1       1.3       0.1

                     78        79        80        81        82        83   
                   2.07043   2.15445   2.15447   2.15924   2.15935   2.31212
                   0.00000   0.00000   0.00000   0.00000   0.00000   0.00000
                  --------  --------  --------  --------  --------  --------
 0 C  s               2.1       0.0       0.0       0.0       4.2       0.0
 0 C  pz              0.0       1.3       0.2       0.0       0.0       0.0
 0 C  px              1.2       0.0       0.0       1.5       0.8       0.0
 0 C  py              0.6       0.0       0.0       0.7       1.8       0.0
 0 C  dz2             1.8       0.0       0.0       0.0      17.7       0.0
 0 C  dxz             0.0       3.2       9.8       0.0       0.0      20.1
 0 C  dyz             0.0      18.8       0.0       0.0       0.0      10.5
 0 C  dx2y2           6.7       0.0       0.0       0.9       0.5       0.0
 0 C  dxy             2.9       0.0       0.0       0.0       4.9       0.0
 1 C  s               0.1       0.0       0.0       3.3       0.9       0.0
 1 C  pz              0.0       0.0       1.5       0.0       0.0       0.4
 1 C  px              1.3       0.0       0.0       0.3       1.9       0.0
 1 C  py              0.2       0.0       0.0       2.2       0.4       0.0
 1 C  dz2             0.1       0.0       0.0      14.0       3.7       0.0
 1 C  dxz             0.0       7.0       3.1       0.0       0.0       8.6
 1 C  dyz             0.0       0.3      21.3       0.0       0.0       0.0
 1 C  dx2y2          11.3       0.0       0.0       1.1       1.8       0.0
 1 C  dxy             9.7       0.0       0.0       3.5       0.1       0.0
 2 C  s               3.2       0.0       0.0       3.0       1.2       0.0
 2 C  pz              0.0       1.0       0.5       0.0       0.0       0.4
 2 C  px              1.8       0.0       0.0       2.0       0.7       0.0
 2 C  py              0.1       0.0       0.0       0.5       1.6       0.0
 2 C  dz2             2.7       0.0       0.0      12.6       5.2       0.0
 2 C  dxz             0.0      14.5      10.0       0.0       0.0       0.9
 2 C  dyz             0.0       3.9       3.4       0.0       0.0       9.0
 2 C  dx2y2           1.4       0.0       0.0       3.4       1.9       0.0
 2 C  dxy             1.9       0.0       0.0       0.8       0.3       0.0
 3 C  s               0.1       0.0       0.0       3.3       0.9       0.0
 3 C  pz              0.0       0.0       1.5       0.0       0.0       0.4
 3 C  px              1.3       0.0       0.0       0.3       1.9       0.0
 3 C  py              0.2       0.0       0.0       2.2       0.4       0.0
 3 C  dz2             0.1       0.0       0.0      14.0       3.7       0.0
 3 C  dxz             0.0       7.0       3.1       0.0       0.0       8.6
 3 C  dyz             0.0       0.3      21.3       0.0       0.0       0.0
 3 C  dx2y2          11.3       0.0       0.0       1.1       1.8       0.0
 3 C  dxy             9.7       0.0       0.0       3.5       0.1       0.0
 4 C  s               3.2       0.0       0.0       3.0       1.2       0.0
 4 C  pz              0.0       1.0       0.5       0.0       0.0       0.4
 4 C  px              1.8       0.0       0.0       2.0       0.7       0.0
 4 C  py              0.1       0.0       0.0       0.5       1.6       0.0
 4 C  dz2             2.7       0.0       0.0      12.6       5.2       0.0
 4 C  dxz             0.0      14.5      10.0       0.0       0.0       0.9
 4 C  dyz             0.0       3.9       3.4       0.0       0.0       9.0
 4 C  dx2y2           1.4       0.0       0.0       3.4       1.9       0.0
 4 C  dxy             1.9       0.0       0.0       0.8       0.3       0.0
 5 C  s               2.1       0.0       0.0       0.0       4.2       0.0
 5 C  pz              0.0       1.3       0.2       0.0       0.0       0.0
 5 C  px              1.2       0.0       0.0       1.5       0.8       0.0
 5 C  py              0.6       0.0       0.0       0.7       1.8       0.0
 5 C  dz2             1.8       0.0       0.0       0.0      17.7       0.0
 5 C  dxz             0.0       3.2       9.8       0.0       0.0      20.1
 5 C  dyz             0.0      18.8       0.0       0.0       0.0      10.5
 5 C  dx2y2           6.7       0.0       0.0       0.9       0.5       0.0
 5 C  dxy             2.9       0.0       0.0       0.0       4.9       0.0
 6 H  s               0.4       0.0       0.0       0.0       0.1       0.0
 7 H  s               0.0       0.0       0.0       0.1       0.0       0.0
 8 H  s               0.6       0.0       0.0       0.1       0.0       0.0
 9 H  s               0.0       0.0       0.0       0.1       0.0       0.0
10 H  s               0.4       0.0       0.0       0.0       0.1       0.0
11 H  s               0.6       0.0       0.0       0.1       0.0       0.0

                     84        85        86        87        88        89   
                   2.31213   2.32403   2.54861   2.54882   2.65885   2.70846
                   0.00000   0.00000   0.00000   0.00000   0.00000   0.00000
                  --------  --------  --------  --------  --------  --------
 0 C  s               0.0       0.0       0.8       5.4       0.0       0.2
 0 C  pz              0.6       1.0       0.0       0.0       0.0       0.0
 0 C  px              0.0       0.0       0.2       0.6       0.0       0.8
 0 C  py              0.0       0.0       0.5       0.4       0.0       0.7
 0 C  dz2             0.0       0.0       2.5      16.9       0.0       0.6
 0 C  dxz             0.9       5.3       0.0       0.0      11.1       0.0
 0 C  dyz             1.2      10.4       0.0       0.0       5.6       0.0
 0 C  dx2y2           0.0       0.0       3.1       0.1       0.0       2.9
 0 C  dxy             0.0       0.0       0.0       1.5       0.0       7.7
 1 C  s               0.0       0.0       2.5       3.8       0.0       0.1
 1 C  pz              0.1       1.0       0.0       0.0       0.0       0.0
 1 C  px              0.0       0.0       0.1       0.6       0.0       1.5
 1 C  py              0.0       0.0       0.7       0.3       0.0       0.5
 1 C  dz2             0.0       0.0       7.7      11.7       0.0       0.2
 1 C  dxz            17.2       2.8       0.0       0.0      13.8       0.0
 1 C  dyz             7.0      13.0       0.0       0.0       2.9       0.0
 1 C  dx2y2           0.0       0.0       2.4       0.1       0.0       3.4
 1 C  dxy             0.0       0.0       0.2       2.0       0.0       0.8
 2 C  s               0.0       0.0       6.1       0.2       0.0       0.6
 2 C  pz              0.2       1.0       0.0       0.0       0.0       0.0
 2 C  px              0.0       0.0       1.0       0.0       0.0       0.2
 2 C  py              0.0       0.0       0.0       0.6       0.0       0.1
 2 C  dz2             0.0       0.0      18.9       0.5       0.0       1.5
 2 C  dxz             1.4      15.5       0.0       0.0       0.1       0.0
 2 C  dyz            21.5       0.1       0.0       0.0      16.5       0.0
 2 C  dx2y2           0.0       0.0       1.3       0.0       0.0      24.6
 2 C  dxy             0.0       0.0       0.0       3.3       0.0       1.1
 3 C  s               0.0       0.0       2.5       3.8       0.0       0.1
 3 C  pz              0.1       1.0       0.0       0.0       0.0       0.0
 3 C  px              0.0       0.0       0.1       0.6       0.0       1.5
 3 C  py              0.0       0.0       0.7       0.3       0.0       0.5
 3 C  dz2             0.0       0.0       7.7      11.7       0.0       0.2
 3 C  dxz            17.2       2.8       0.0       0.0      13.8       0.0
 3 C  dyz             7.0      13.0       0.0       0.0       2.9       0.0
 3 C  dx2y2           0.0       0.0       2.4       0.1       0.0       3.4
 3 C  dxy             0.0       0.0       0.2       2.0       0.0       0.8
 4 C  s               0.0       0.0       6.1       0.2       0.0       0.6
 4 C  pz              0.2       1.0       0.0       0.0       0.0       0.0
 4 C  px              0.0       0.0       1.0       0.0       0.0       0.2
 4 C  py              0.0       0.0       0.0       0.6       0.0       0.1
 4 C  dz2             0.0       0.0      18.9       0.5       0.0       1.5
 4 C  dxz             1.4      15.5       0.0       0.0       0.1       0.0
 4 C  dyz            21.5       0.1       0.0       0.0      16.5       0.0
 4 C  dx2y2           0.0       0.0       1.3       0.0       0.0      24.6
 4 C  dxy             0.0       0.0       0.0       3.3       0.0       1.1
 5 C  s               0.0       0.0       0.8       5.4       0.0       0.3
 5 C  pz              0.6       1.0       0.0       0.0       0.0       0.0
 5 C  px              0.0       0.0       0.2       0.6       0.0       0.8
 5 C  py              0.0       0.0       0.5       0.4       0.0       0.7
 5 C  dz2             0.0       0.0       2.5      16.9       0.0       0.6
 5 C  dxz             0.9       5.3       0.0       0.0      11.1       0.0
 5 C  dyz             1.2      10.4       0.0       0.0       5.6       0.0
 5 C  dx2y2           0.0       0.0       3.1       0.1       0.0       2.9
 5 C  dxy             0.0       0.0       0.0       1.5       0.0       7.7
 6 H  s               0.0       0.0       0.2       1.3       0.0       0.6
 7 H  s               0.0       0.0       0.6       0.9       0.0       0.2
 8 H  s               0.0       0.0       1.4       0.0       0.0       1.5
 9 H  s               0.0       0.0       0.6       0.9       0.0       0.2
10 H  s               0.0       0.0       0.2       1.3       0.0       0.6
11 H  s               0.0       0.0       1.4       0.0       0.0       1.5

                     90        91        92        93        94        95   
                   2.70852   2.72691   2.72698   2.76372   3.01970   3.41325
                   0.00000   0.00000   0.00000   0.00000   0.00000   0.00000
                  --------  --------  --------  --------  --------  --------
 0 C  s               0.4       2.0       0.5       4.6       0.0       1.8
 0 C  px              0.8       0.0       2.8       0.1       2.3       0.0
 0 C  py              0.2       1.6       0.4       0.2       1.2       0.1
 0 C  dz2             0.9       0.6       0.1       8.8       0.0       1.2
 0 C  dx2y2           0.7       4.7      17.7       0.2      11.7       1.4
 0 C  dxy            15.8       0.4       2.3       2.0       1.4      11.6
 1 C  s               0.6       1.8       0.8       4.6       0.0       1.8
 1 C  px              0.4       0.4       2.9       0.1       2.9       0.0
 1 C  py              0.1       1.5       0.0       0.3       0.6       0.1
 1 C  dz2             1.3       0.5       0.2       8.8       0.0       1.2
 1 C  dx2y2           8.3       4.5       9.9       0.9       7.5       5.5
 1 C  dxy            14.6       3.0       7.7       1.3       5.6       7.5
 2 C  s               0.0       0.0       2.6       4.6       0.0       1.8
 2 C  px              0.0       0.1       1.1       0.4       0.0       0.1
 2 C  py              2.2       3.6       0.0       0.0       3.5       0.0
 2 C  dz2             0.0       0.0       0.8       8.7       0.0       1.2
 2 C  dx2y2           0.8       0.9       0.0       2.1       0.5      12.5
 2 C  dxy             0.5      24.2       0.1       0.1      12.7       0.5
 3 C  s               0.6       1.8       0.8       4.6       0.0       1.8
 3 C  px              0.4       0.4       2.9       0.1       2.9       0.0
 3 C  py              0.1       1.5       0.0       0.3       0.6       0.1
 3 C  dz2             1.3       0.5       0.2       8.8       0.0       1.2
 3 C  dx2y2           8.2       4.5       9.9       0.9       7.5       5.5
 3 C  dxy            14.6       3.0       7.7       1.3       5.6       7.5
 4 C  s               0.0       0.0       2.6       4.6       0.0       1.8
 4 C  px              0.0       0.1       1.1       0.4       0.0       0.1
 4 C  py              2.2       3.6       0.0       0.0       3.5       0.0
 4 C  dz2             0.0       0.0       0.8       8.7       0.0       1.2
 4 C  dx2y2           0.8       0.9       0.0       2.1       0.5      12.5
 4 C  dxy             0.5      24.2       0.1       0.1      12.7       0.5
 5 C  s               0.4       2.0       0.5       4.6       0.0       1.8
 5 C  px              0.8       0.0       2.8       0.1       2.3       0.0
 5 C  py              0.2       1.6       0.4       0.2       1.2       0.1
 5 C  dz2             0.9       0.6       0.1       8.8       0.0       1.2
 5 C  dx2y2           0.7       4.7      17.7       0.2      11.7       1.4
 5 C  dxy            15.8       0.4       2.3       2.0       1.4      11.6
 6 H  s               0.9       0.1       0.0       0.7       0.0       0.6
 7 H  s               1.3       0.1       0.0       0.7       0.0       0.6
 8 H  s               0.0       0.0       0.1       0.7       0.0       0.6
 9 H  s               1.3       0.1       0.0       0.7       0.0       0.6
10 H  s               0.9       0.1       0.0       0.7       0.0       0.6
11 H  s               0.0       0.0       0.1       0.7       0.0       0.6



                      *****************************
                      * MAYER POPULATION ANALYSIS *
                      *****************************

  NA   - Mulliken gross atomic population
  ZA   - Total nuclear charge
  QA   - Mulliken gross atomic charge
  VA   - Mayer's total valence
  BVA  - Mayer's bonded valence
  FA   - Mayer's free valence

  ATOM       NA         ZA         QA         VA         BVA        FA
  0 C      6.1263     6.0000    -0.1263     3.9532     3.9532    -0.0000
  1 C      6.1266     6.0000    -0.1266     3.9531     3.9531    -0.0000
  2 C      6.1278     6.0000    -0.1278     3.9528     3.9528    -0.0000
  3 C      6.1266     6.0000    -0.1266     3.9530     3.9530    -0.0000
  4 C      6.1278     6.0000    -0.1278     3.9529     3.9529     0.0000
  5 C      6.1263     6.0000    -0.1263     3.9532     3.9532    -0.0000
  6 H      0.8731     1.0000     0.1269     0.9371     0.9371    -0.0000
  7 H      0.8733     1.0000     0.1267     0.9372     0.9372     0.0000
  8 H      0.8729     1.0000     0.1271     0.9371     0.9371    -0.0000
  9 H      0.8733     1.0000     0.1267     0.9372     0.9372    -0.0000
 10 H      0.8731     1.0000     0.1269     0.9371     0.9371    -0.0000
 11 H      0.8729     1.0000     0.1271     0.9371     0.9371    -0.0000

  Mayer bond orders larger than 0.1
B(  0-C ,  1-C ) :   1.4561 B(  0-C ,  2-C ) :   1.4561 B(  0-C ,  6-H ) :   0.9306 
B(  1-C ,  4-C ) :   1.4560 B(  1-C ,  7-H ) :   0.9307 B(  2-C ,  3-C ) :   1.4559 
B(  2-C ,  8-H ) :   0.9306 B(  3-C ,  5-C ) :   1.4561 B(  3-C ,  9-H ) :   0.9307 
B(  4-C ,  5-C ) :   1.4562 B(  4-C , 11-H ) :   0.9306 B(  5-C , 10-H ) :   0.9306 


-------
TIMINGS
-------

Total SCF time: 0 days 0 hours 0 min 7 sec 

Total time                  ....       7.362 sec
Sum of individual times     ....       7.099 sec  ( 96.4%)

Fock matrix formation       ....       5.798 sec  ( 78.8%)
  XC integration            ....       1.396 sec  ( 24.1% of F)
    Basis function eval.    ....       0.504 sec  ( 36.1% of XC)
    Density eval.           ....       0.343 sec  ( 24.6% of XC)
    XC-Functional eval.     ....       0.115 sec  (  8.2% of XC)
    XC-Potential eval.      ....       0.340 sec  ( 24.3% of XC)
Diagonalization             ....       0.001 sec  (  0.0%)
Density matrix formation    ....       0.001 sec  (  0.0%)
Population analysis         ....       0.023 sec  (  0.3%)
Initial guess               ....       0.002 sec  (  0.0%)
Orbital Transformation      ....       0.000 sec  (  0.0%)
Orbital Orthonormalization  ....       0.001 sec  (  0.0%)
DIIS solution               ....       0.000 sec  (  0.0%)
SOSCF solution              ....       0.004 sec  (  0.0%)
Grid generation             ....       1.271 sec  ( 17.3%)

-------------------------   --------------------
FINAL SINGLE POINT ENERGY      -232.089457839903
-------------------------   --------------------

                                *** OPTIMIZATION RUN DONE ***

                            ***************************************
                            *     ORCA property calculations      *
                            ***************************************

                                    ---------------------
                                    Active property flags
                                    ---------------------
   (+) Dipole Moment


------------------------------------------------------------------------------
                       ORCA ELECTRIC PROPERTIES CALCULATION
------------------------------------------------------------------------------

Dipole Moment Calculation                       ... on
Quadrupole Moment Calculation                   ... off
Polarizability Calculation                      ... off
GBWName                                         ... /Users/lailaal-madhagi/Desktop/Testing_XAS_Analysis_code/Benzene//Results_dir_Benzene_geom_element_C_2019-11-05_19-06-04//GTE1_Benzene_geom_2019-11-05_19-06-39//opt.gbw
Electron density file                           ... /Users/lailaal-madhagi/Desktop/Testing_XAS_Analysis_code/Benzene//Results_dir_Benzene_geom_element_C_2019-11-05_19-06-04//GTE1_Benzene_geom_2019-11-05_19-06-39//opt.scfp.tmp
The origin for moment calculation is the CENTER OF MASS  = (-3.235470,  0.006821 -0.005915)

-------------
DIPOLE MOMENT
-------------
                                X             Y             Z
Electronic contribution:     -0.00019      -0.00001      -0.00000
Nuclear contribution   :      0.00025       0.00002       0.00000
                        -----------------------------------------
Total Dipole Moment    :      0.00006       0.00001       0.00000
                        -----------------------------------------
Magnitude (a.u.)       :      0.00006
Magnitude (Debye)      :      0.00015



--------------------
Rotational spectrum 
--------------------
 
Rotational constants in cm-1:     0.189374     0.189355     0.094682 
Rotational constants in MHz :  5677.294415  5676.730916  2838.506326 

 Dipole components along the rotational axes: 
x,y,z [a.u.] :     0.000008     0.000059    -0.000000 
x,y,z [Debye]:     0.000020     0.000149    -0.000000 

 

Timings for individual modules:

Sum of individual times         ...       58.338 sec (=   0.972 min)
GTO integral calculation        ...        1.546 sec (=   0.026 min)   2.6 %
SCF iterations                  ...       37.350 sec (=   0.623 min)  64.0 %
SCF Gradient evaluation         ...       17.934 sec (=   0.299 min)  30.7 %
Geometry relaxation             ...        1.509 sec (=   0.025 min)   2.6 %
                             ****ORCA TERMINATED NORMALLY****
TOTAL RUN TIME: 0 days 0 hours 0 minutes 59 seconds 373 msec
