
                                 *****************
                                 * O   R   C   A *
                                 *****************

           --- An Ab Initio, DFT and Semiempirical electronic structure package ---

                  #######################################################
                  #                        -***-                        #
                  #          Department of theory and spectroscopy      #
                  #               Directorship: Frank Neese             #
                  #        Max Planck Institute fuer Kohlenforschung    #
                  #                Kaiser Wilhelm Platz 1               #
                  #                 D-45470 Muelheim/Ruhr               #
                  #                      Germany                        #
                  #                                                     #
                  #                  All rights reserved                #
                  #                        -***-                        #
                  #######################################################


                         Program Version 4.1.0  - RELEASE  -


 With contributions from (in alphabetic order):
   Daniel Aravena         : Magnetic Properties
   Michael Atanasov       : Ab Initio Ligand Field Theory
   Alexander A. Auer      : GIAO ZORA
   Ute Becker             : Parallelization
   Giovanni Bistoni       : ED, Open-shell LED
   Martin Brehm           : Molecular dynamics
   Dmytro Bykov           : SCF Hessian
   Vijay G. Chilkuri      : MRCI spin determinant printing
   Dipayan Datta          : RHF DLPNO-CCSD density
   Achintya Kumar Dutta   : EOM-CC, STEOM-CC
   Dmitry Ganyushin       : Spin-Orbit,Spin-Spin,Magnetic field MRCI
   Miquel Garcia          : C-PCM Hessian
   Yang Guo               : DLPNO-NEVPT2, CIM, IAO-localization
   Andreas Hansen         : Spin unrestricted coupled pair/coupled cluster methods
   Benjamin Helmich-Paris : CASSCF linear response (MC-RPA)
   Lee Huntington         : MR-EOM, pCC
   Robert Izsak           : Overlap fitted RIJCOSX, COSX-SCS-MP3, EOM
   Christian Kollmar      : KDIIS, OOCD, Brueckner-CCSD(T), CCSD density
   Simone Kossmann        : Meta GGA functionals, TD-DFT gradient, OOMP2, MP2 Hessian
   Martin Krupicka        : AUTO-CI
   Lucas Lang             : DCDCAS
   Dagmar Lenk            : GEPOL surface, SMD
   Dimitrios Liakos       : Extrapolation schemes; parallel MDCI
   Dimitrios Manganas     : ROCIS; embedding schemes
   Dimitrios Pantazis     : SARC Basis sets
   Taras Petrenko         : DFT Hessian,TD-DFT gradient, ASA, ECA, R-Raman, ABS, FL, XAS/XES, NRVS
   Peter Pinski           : DLPNO-MP2, DLPNO-MP2 Gradient
   Christoph Reimann      : Effective Core Potentials
   Marius Retegan         : Local ZFS, SOC
   Christoph Riplinger    : Optimizer, TS searches, QM/MM, DLPNO-CCSD(T), (RO)-DLPNO pert. Triples
   Tobias Risthaus        : Range-separated hybrids, TD-DFT gradient, RPA, STAB
   Michael Roemelt        : Restricted open shell CIS
   Masaaki Saitow         : Open-shell DLPNO
   Barbara Sandhoefer     : DKH picture change effects
   Avijit Sen             : IP-ROCIS
   Kantharuban Sivalingam : CASSCF convergence, NEVPT2, FIC-MRCI
   Bernardo de Souza      : ESD, SOC TD-DFT
   Georgi Stoychev        : AutoAux, RI-MP2 NMR
   Willem Van den Heuvel  : Paramagnetic NMR
   Boris Wezisla          : Elementary symmetry handling
   Frank Wennmohs         : Technical directorship


 We gratefully acknowledge several colleagues who have allowed us to
 interface, adapt or use parts of their codes:
   Stefan Grimme, W. Hujo, H. Kruse,             : VdW corrections, initial TS optimization,
                  C. Bannwarth                     DFT functionals, gCP, sTDA/sTD-DF
   Ed Valeev                                     : LibInt (2-el integral package), F12 methods
   Garnet Chan, S. Sharma, J. Yang, R. Olivares  : DMRG
   Ulf Ekstrom                                   : XCFun DFT Library
   Mihaly Kallay                                 : mrcc  (arbitrary order and MRCC methods)
   Andreas Klamt, Michael Diedenhofen            : otool_cosmo (COSMO solvation model)
   Jiri Pittner, Ondrej Demel                    : Mk-CCSD
   Frank Weinhold                                : gennbo (NPA and NBO analysis)
   Christopher J. Cramer and Donald G. Truhlar   : smd solvation model
   Lars Goerigk                                  : TD-DFT with DH, B97 family of functionals
   V. Asgeirsson, H. Jonsson                     : NEB implementation
   FAccTs GmbH                                   : IRC, NEB, NEB-TS, Multilevel


 Your calculation uses the libint2 library for the computation of 2-el integrals
 For citations please refer to: http://libint.valeyev.net

 This ORCA versions uses:
   CBLAS   interface :  Fast vector & matrix operations
   LAPACKE interface :  Fast linear algebra routines
   SCALAPACK package :  Parallel linear algebra routines




***************************************
The coordinates will be read from file: /Users/lailaal-madhagi/Desktop/Testing_XAS_Analysis_code/Benzene//Results_dir_Benzene_geom_element_C_2019-11-05_19-06-04//GTE1_Benzene_geom_2019-11-05_19-06-39//opt.xyz
***************************************


----- Orbital basis set information -----
Your calculation utilizes the basis: 6-31G*
   H-He, Li-Ne : W. J. Hehre, R. Ditchfield and J.A. Pople, J. Chem. Phys. 56, 2257 (1972).
                 Note: He and Ne are unpublished basis sets taken from the Gaussian program.
                 Note: Li and B from J. D. Dill and J. A. Pople, J. Chem. Phys. 62, 2921 (1975).
   Na - Ar     : M. M. Francl, W. J. Pietro, W. J. Hehre, J. S. Binkley, M. S. Gordon, 
                 D. J. DeFrees and J. A. Pople, J. Chem. Phys. 77, 3654 (1982).
   K - Zn      : V. A. Rassolov, J. A. Pople, M. A. Ratner, and T. L. Windus, J. Chem. Phys. 109, 1223 (1998).

================================================================================
                                        WARNINGS
                       Please study these warnings very carefully!
================================================================================

INFO   : Checking CIS options ...

WARNING: CIS/ROCIS methods need fully converged wavefunctions
  ===> : Setting SCFConvForced true
         You can overwrite this default with %scf ConvForced false 


INFO   : the flag for use of LIBINT has been found!

================================================================================
                                       INPUT FILE
================================================================================
NAME = /Users/lailaal-madhagi/Desktop/Testing_XAS_Analysis_code/Benzene//Results_dir_Benzene_geom_element_C_2019-11-05_19-06-04//GTE1_Benzene_geom_2019-11-05_19-06-39//TDDFT_C-edge.inp
|  1> #This is C K-edge calculation 
|  2> ! B3LYP 6-31G* TIGHTSCF Grid3 FinalGrid5 
|  3> !NormalPrint 
|  4> %output 
|  5> Print[P_Basis] 2 
|  6> Print[P_MOS] 1 
|  7> end 
|  8> 
|  9> %tddft 
| 10> orbwin[0]=0,5,-1,-1 
| 11> nroots=20 
| 12> maxdim=200 
| 13> end 
| 14> *xyzfile 0 1 /Users/lailaal-madhagi/Desktop/Testing_XAS_Analysis_code/Benzene//Results_dir_Benzene_geom_element_C_2019-11-05_19-06-04//GTE1_Benzene_geom_2019-11-05_19-06-39//opt.xyz                           ****END OF INPUT****
================================================================================

                       ****************************
                       * Single Point Calculation *
                       ****************************

---------------------------------
CARTESIAN COORDINATES (ANGSTROEM)
---------------------------------
  C     -2.521133    1.142780    0.015058
  C     -1.130042    1.273604    0.026121
  C     -3.103231   -0.127205   -0.014187
  C     -2.294239   -1.266387   -0.032381
  C     -0.321050    0.134423    0.007926
  C     -0.903147   -1.135561   -0.021318
  H     -3.150644    2.029213    0.029203
  H     -0.677013    2.261719    0.048849
  H     -4.185761   -0.229027   -0.022764
  H     -2.747116   -2.254571   -0.055110
  H     -0.273505   -2.021902   -0.035460
  H      0.761481    0.236244    0.016504

----------------------------
CARTESIAN COORDINATES (A.U.)
----------------------------
  NO LB      ZA    FRAG     MASS         X           Y           Z
   0 C     6.0000    0    12.011   -4.764251    2.159541    0.028456
   1 C     6.0000    0    12.011   -2.135471    2.406763    0.049362
   2 C     6.0000    0    12.011   -5.864258   -0.240383   -0.026809
   3 C     6.0000    0    12.011   -4.335483   -2.393124   -0.061192
   4 C     6.0000    0    12.011   -0.606696    0.254022    0.014979
   5 C     6.0000    0    12.011   -1.706700   -2.145899   -0.040286
   6 H     1.0000    0     1.008   -5.953855    3.834657    0.055186
   7 H     1.0000    0     1.008   -1.279368    4.274030    0.092310
   8 H     1.0000    0     1.008   -7.909941   -0.432799   -0.043017
   9 H     1.0000    0     1.008   -5.191298   -4.260521   -0.104143
  10 H     1.0000    0     1.008   -0.516849   -3.820842   -0.067011
  11 H     1.0000    0     1.008    1.438991    0.446436    0.031187

--------------------------------
INTERNAL COORDINATES (ANGSTROEM)
--------------------------------
 C      0   0   0     0.000000000000     0.00000000     0.00000000
 C      1   0   0     1.397272723220     0.00000000     0.00000000
 C      1   2   0     1.397338708964   119.99960856     0.00000000
 C      3   1   2     1.397331026026   120.00304061     0.00000000
 C      2   1   3     1.397331085634   119.99735131     0.00000000
 C      4   3   1     1.397274270507   119.99729166     0.00000000
 H      1   2   3     1.087312483934   119.99771850   180.00019681
 H      2   1   3     1.087255205988   120.00568787   179.99834006
 H      3   1   2     1.087341230136   120.00041741   179.99804138
 H      4   3   1     1.087254372041   120.00577719   179.99837055
 H      6   4   3     1.087313435361   120.00606599   179.99919098
 H      5   2   1     1.087342891813   119.99659269   179.99805443

---------------------------
INTERNAL COORDINATES (A.U.)
---------------------------
 C      0   0   0     0.000000000000     0.00000000     0.00000000
 C      1   0   0     2.640462781285     0.00000000     0.00000000
 C      1   2   0     2.640587476268   119.99960856     0.00000000
 C      3   1   2     2.640572957621   120.00304061     0.00000000
 C      2   1   3     2.640573070262   119.99735131     0.00000000
 C      4   3   1     2.640465705233   119.99729166     0.00000000
 H      1   2   3     2.054722816629   119.99771850   180.00019681
 H      2   1   3     2.054614576997   120.00568787   179.99834006
 H      3   1   2     2.054777139079   120.00041741   179.99804138
 H      4   3   1     2.054613001066   120.00577719   179.99837055
 H      6   4   3     2.054724614566   120.00606599   179.99919098
 H      5   2   1     2.054780279192   119.99659269   179.99805443

---------------------
BASIS SET INFORMATION
---------------------
There are 2 groups of distinct atoms

 Group   1 Type C   : 10s4p1d contracted to 3s2p1d pattern {631/31/1}
 Group   2 Type H   : 4s contracted to 2s pattern {31}

Atom   0C    basis set group =>   1
Atom   1C    basis set group =>   1
Atom   2C    basis set group =>   1
Atom   3C    basis set group =>   1
Atom   4C    basis set group =>   1
Atom   5C    basis set group =>   1
Atom   6H    basis set group =>   2
Atom   7H    basis set group =>   2
Atom   8H    basis set group =>   2
Atom   9H    basis set group =>   2
Atom  10H    basis set group =>   2
Atom  11H    basis set group =>   2

-------------------------
BASIS SET IN INPUT FORMAT
-------------------------

 # Basis set for element : H 
 NewGTO H 
 S 3 
   1      18.7311370000      0.0334945995
   2       2.8253937000      0.2347269467
   3       0.6401217000      0.8137573184
 S 1 
   1       0.1612778000      1.0000000000
  end;

 # Basis set for element : C 
 NewGTO C 
 S 6 
   1    3047.5249000000      0.0018347002
   2     457.3695100000      0.0140373012
   3     103.9486900000      0.0688426061
   4      29.2101550000      0.2321844206
   5       9.2866630000      0.4679413416
   6       3.1639270000      0.3623120322
 S 3 
   1       7.8682724000     -0.1193324086
   2       1.8812885000     -0.1608542116
   3       0.5442493000      1.1434564826
 P 3 
   1       7.8682724000      0.0689990956
   2       1.8812885000      0.3164239798
   3       0.5442493000      0.7443082524
 S 1 
   1       0.1687144000      1.0000000000
 P 1 
   1       0.1687144000      1.0000000000
 D 1 
   1       0.8000000000      1.0000000000
  end;

------------------------------------------------------------------------------
                           ORCA GTO INTEGRAL CALCULATION
------------------------------------------------------------------------------

                         BASIS SET STATISTICS AND STARTUP INFO

 # of primitive gaussian shells          ...  114
 # of primitive gaussian functions       ...  186
 # of contracted shells                  ...   48
 # of contracted basis functions         ...   96
 Highest angular momentum                ...    2
 Maximum contraction depth               ...    6
 Integral package used                   ... LIBINT
 Integral threshhold            Thresh   ...  2.500e-11
 Primitive cut-off              TCut     ...  2.500e-12


------------------------------ INTEGRAL EVALUATION ----------------------------


 * One electron integrals 
 Pre-screening matrix                    ... done
 Shell pair data                         ... done (   0.001 sec)

-------------------------------------------------------------------------------
                                 ORCA SCF
-------------------------------------------------------------------------------

------------
SCF SETTINGS
------------
Hamiltonian:
 Density Functional     Method          .... DFT(GTOs)
 Exchange Functional    Exchange        .... B88
   X-Alpha parameter    XAlpha          ....  0.666667
   Becke's b parameter  XBeta           ....  0.004200
 Correlation Functional Correlation     .... LYP
 LDA part of GGA corr.  LDAOpt          .... VWN-5
 Gradients option       PostSCFGGA      .... off
 Hybrid DFT is turned on
   Fraction HF Exchange ScalHFX         ....  0.200000
   Scaling of DF-GGA-X  ScalDFX         ....  0.720000
   Scaling of DF-GGA-C  ScalDFC         ....  0.810000
   Scaling of DF-LDA-C  ScalLDAC        ....  1.000000
   Perturbative correction              ....  0.000000
   Density functional embedding theory  .... OFF
   NL short-range parameter             ....  4.800000


General Settings:
 Integral files         IntName         .... /Users/lailaal-madhagi/Desktop/Testing_XAS_Analysis_code/Benzene//Results_dir_Benzene_geom_element_C_2019-11-05_19-06-04//GTE1_Benzene_geom_2019-11-05_19-06-39//TDDFT_C-edge
 Hartree-Fock type      HFTyp           .... RHF
 Total Charge           Charge          ....    0
 Multiplicity           Mult            ....    1
 Number of Electrons    NEL             ....   42
 Basis Dimension        Dim             ....   96
 Nuclear Repulsion      ENuc            ....    203.0923043076 Eh

Convergence Acceleration:
 DIIS                   CNVDIIS         .... on
   Start iteration      DIISMaxIt       ....    12
   Startup error        DIISStart       ....  0.200000
   # of expansion vecs  DIISMaxEq       ....     5
   Bias factor          DIISBfac        ....   1.050
   Max. coefficient     DIISMaxC        ....  10.000
 Newton-Raphson         CNVNR           .... off
 SOSCF                  CNVSOSCF        .... on
   Start iteration      SOSCFMaxIt      ....   150
   Startup grad/error   SOSCFStart      ....  0.003300
 Level Shifting         CNVShift        .... on
   Level shift para.    LevelShift      ....    0.2500
   Turn off err/grad.   ShiftErr        ....    0.0010
 Zerner damping         CNVZerner       .... off
 Static damping         CNVDamp         .... on
   Fraction old density DampFac         ....    0.7000
   Max. Damping (<1)    DampMax         ....    0.9800
   Min. Damping (>=0)   DampMin         ....    0.0000
   Turn off err/grad.   DampErr         ....    0.1000
 Fernandez-Rico         CNVRico         .... off

SCF Procedure:
 Maximum # iterations   MaxIter         ....   125
 SCF integral mode      SCFMode         .... Direct
   Integral package                     .... LIBINT
 Reset frequency        DirectResetFreq ....    20
 Integral Threshold     Thresh          ....  2.500e-11 Eh
 Primitive CutOff       TCut            ....  2.500e-12 Eh

Convergence Tolerance:
 Convergence Check Mode ConvCheckMode   .... Total+1el-Energy
 Convergence forced     ConvForced      .... 1
 Energy Change          TolE            ....  1.000e-08 Eh
 1-El. energy change                    ....  1.000e-05 Eh
 Orbital Gradient       TolG            ....  1.000e-05
 Orbital Rotation angle TolX            ....  1.000e-05
 DIIS Error             TolErr          ....  5.000e-07


Diagonalization of the overlap matrix:
Smallest eigenvalue                        ... 5.380e-04
Time for diagonalization                   ...    0.001 sec
Threshold for overlap eigenvalues          ... 1.000e-08
Number of eigenvalues below threshold      ... 0
Time for construction of square roots      ...    0.001 sec
Total time needed                          ...    0.002 sec

-------------------
DFT GRID GENERATION
-------------------

General Integration Accuracy     IntAcc      ...  4.340
Radial Grid Type                 RadialGrid  ... Gauss-Chebyshev
Angular Grid (max. acc.)         AngularGrid ... Lebedev-194
Angular grid pruning method      GridPruning ... 3 (G Style)
Weight generation scheme         WeightScheme... Becke
Basis function cutoff            BFCut       ...    1.0000e-11
Integration weight cutoff        WCut        ...    1.0000e-14
Grids for H and He will be reduced by one unit

# of grid points (after initial pruning)     ...  28824 (   0.0 sec)
# of grid points (after weights+screening)   ...  26872 (   0.0 sec)
nearest neighbour list constructed           ...    0.0 sec
Grid point re-assignment to atoms done       ...    0.0 sec
Grid point division into batches done        ...    0.0 sec
Reduced shell lists constructed in    0.1 sec

Total number of grid points                  ...    26872
Total number of batches                      ...      426
Average number of points per batch           ...       63
Average number of grid points per atom       ...     2239
Average number of shells per batch           ...    36.77 (76.60%)
Average number of basis functions per batch  ...    76.08 (79.25%)
Average number of large shells per batch     ...    30.43 (82.77%)
Average number of large basis fcns per batch ...    63.09 (82.93%)
Maximum spatial batch extension              ...  17.09, 17.79, 26.77 au
Average spatial batch extension              ...   3.10,  3.26,  4.05 au

Time for grid setup =    0.187 sec

------------------------------
INITIAL GUESS: MODEL POTENTIAL
------------------------------
Loading Hartree-Fock densities                     ... done
Calculating cut-offs                               ... done
Setting up the integral package                    ... done
Initializing the effective Hamiltonian             ... done
Starting the Coulomb interaction                   ... done (   0.0 sec)
Reading the grid                                   ... done
Mapping shells                                     ... done
Starting the XC term evaluation                    ... done (   0.2 sec)
  promolecular density results
     # of electrons  =     41.996405433
     EX              =    -32.600680367
     EC              =     -1.376746438
     EX+EC           =    -33.977426805
Transforming the Hamiltonian                       ... done (   0.0 sec)
Diagonalizing the Hamiltonian                      ... done (   0.0 sec)
Back transforming the eigenvectors                 ... done (   0.0 sec)
Now organizing SCF variables                       ... done
                      ------------------
                      INITIAL GUESS DONE (   0.5 sec)
                      ------------------
--------------
SCF ITERATIONS
--------------
               ***  Starting incremental Fock matrix formation  ***

                         ----------------------------
                         !        ITERATION     0   !
                         ----------------------------
   Total Energy        :    -231.944879925333 Eh
   Energy Change       :    -231.944879925333 Eh
   MAX-DP              :       0.042164574562
   RMS-DP              :       0.002812752593
   Actual Damping      :       0.7000
   Actual Level Shift  :       0.2500 Eh
   Int. Num. El.       :    41.99966709 (UP=   20.99983354 DN=   20.99983354)
   Exchange            :   -26.77242687
   Correlation         :    -1.65241934


                         ----------------------------
                         !        ITERATION     1   !
                         ----------------------------
   Total Energy        :    -232.009110906547 Eh
   Energy Change       :      -0.064230981214 Eh
   MAX-DP              :       0.030831861800
   RMS-DP              :       0.002117998323
   Actual Damping      :       0.7000
   Actual Level Shift  :       0.2500 Eh
   Int. Num. El.       :    41.99961771 (UP=   20.99980885 DN=   20.99980885)
   Exchange            :   -26.60146522
   Correlation         :    -1.64423413

                               ***Turning on DIIS***

                         ----------------------------
                         !        ITERATION     2   !
                         ----------------------------
   Total Energy        :    -232.037788423733 Eh
   Energy Change       :      -0.028677517186 Eh
   MAX-DP              :       0.054797982645
   RMS-DP              :       0.003647651773
   Actual Damping      :       0.0000
   Actual Level Shift  :       0.2500 Eh
   Int. Num. El.       :    41.99958643 (UP=   20.99979321 DN=   20.99979321)
   Exchange            :   -26.47997565
   Correlation         :    -1.63825261
   DIIS-Error          :       0.029509029134


                         ----------------------------
                         !        ITERATION     3   !
                         ----------------------------
   Total Energy        :    -232.078273654175 Eh
   Energy Change       :      -0.040485230442 Eh
   MAX-DP              :       0.023328887463
   RMS-DP              :       0.001465126601
   Actual Damping      :       0.0000
   Actual Level Shift  :       0.2500 Eh
   Int. Num. El.       :    41.99953500 (UP=   20.99976750 DN=   20.99976750)
   Exchange            :   -26.28113153
   Correlation         :    -1.62835457
   DIIS-Error          :       0.039889638138
   DIIS coefficients:
      0.56148   0.43852


                         ----------------------------
                         !        ITERATION     4   !
                         ----------------------------
   Total Energy        :    -232.088806675709 Eh
   Energy Change       :      -0.010533021535 Eh
   MAX-DP              :       0.009110161962
   RMS-DP              :       0.000449638173
   Actual Damping      :       0.0000
   Actual Level Shift  :       0.2500 Eh
   Int. Num. El.       :    41.99955027 (UP=   20.99977514 DN=   20.99977514)
   Exchange            :   -26.35367239
   Correlation         :    -1.63236874
   DIIS-Error          :       0.008112599608
   DIIS coefficients:
      0.15848  -0.03988   0.88140

                      *** Initiating the SOSCF procedure ***
                           *** Shutting down DIIS ***
                      *** Re-Reading the Fockian *** 
                      *** Removing any level shift *** 

                         ----------------------------
                         !        ITERATION     5   !
                         ----------------------------
   Total Energy        :    -232.089354328067 Eh
   Energy Change       :      -0.000547652358 Eh
   MAX-DP              :       0.002757901888
   RMS-DP              :       0.000137812198
   Orbital gradient    :       0.000664013008
   Orbital Rotation    :       0.000664013008
   Actual Damping      :       0.0000
   Int. Num. El.       :    41.99955335 (UP=   20.99977668 DN=   20.99977668)
   Exchange            :   -26.37321763
   Correlation         :    -1.63337084

               *** Restarting incremental Fock matrix formation ***

                         ----------------------------
                         !        ITERATION     6   !
                         ----------------------------
   Total Energy        :    -232.089374627552 Eh
   Energy Change       :      -0.000020299485 Eh
   MAX-DP              :       0.001294460773
   RMS-DP              :       0.000067200501
   Orbital gradient    :       0.000226138443
   Orbital Rotation    :       0.000433410853
   Actual Damping      :       0.0000
   Int. Num. El.       :    41.99955311 (UP=   20.99977656 DN=   20.99977656)
   Exchange            :   -26.37666017
   Correlation         :    -1.63354669


                         ----------------------------
                         !        ITERATION     7   !
                         ----------------------------
   Total Energy        :    -232.089375283571 Eh
   Energy Change       :      -0.000000656019 Eh
   MAX-DP              :       0.000186616023
   RMS-DP              :       0.000013548612
   Orbital gradient    :       0.000177155171
   Orbital Rotation    :       0.000143697130
   Actual Damping      :       0.0000
   Int. Num. El.       :    41.99955289 (UP=   20.99977645 DN=   20.99977645)
   Exchange            :   -26.37811931
   Correlation         :    -1.63362765


                         ----------------------------
                         !        ITERATION     8   !
                         ----------------------------
   Total Energy        :    -232.089375823456 Eh
   Energy Change       :      -0.000000539886 Eh
   MAX-DP              :       0.000087678158
   RMS-DP              :       0.000005635962
   Orbital gradient    :       0.000031506405
   Orbital Rotation    :       0.000029495396
   Actual Damping      :       0.0000
   Int. Num. El.       :    41.99955271 (UP=   20.99977636 DN=   20.99977636)
   Exchange            :   -26.37745594
   Correlation         :    -1.63359080


                         ----------------------------
                         !        ITERATION     9   !
                         ----------------------------
   Total Energy        :    -232.089375837252 Eh
   Energy Change       :      -0.000000013795 Eh
   MAX-DP              :       0.000016836415
   RMS-DP              :       0.000001115412
   Orbital gradient    :       0.000011707168
   Orbital Rotation    :       0.000008193677
   Actual Damping      :       0.0000
   Int. Num. El.       :    41.99955273 (UP=   20.99977637 DN=   20.99977637)
   Exchange            :   -26.37742524
   Correlation         :    -1.63359022

                  ***Gradient check signals convergence***
              ***Rediagonalizing the Fockian in SOSCF/NRSCF***

               *****************************************************
               *                     SUCCESS                       *
               *           SCF CONVERGED AFTER  10 CYCLES          *
               *****************************************************

Setting up the final grid:

General Integration Accuracy     IntAcc      ...  5.010
Radial Grid Type                 RadialGrid  ... Gauss-Chebyshev
Angular Grid (max. acc.)         AngularGrid ... Lebedev-434
Angular grid pruning method      GridPruning ... 3 (G Style)
Weight generation scheme         WeightScheme... Becke
Basis function cutoff            BFCut       ...    1.0000e-11
Integration weight cutoff        WCut        ...    1.0000e-14
Grids for H and He will be reduced by one unit

# of grid points (after initial pruning)     ... 104340 (   0.0 sec)
# of grid points (after weights+screening)   ...  96552 (   0.1 sec)
nearest neighbour list constructed           ...    0.0 sec
Grid point re-assignment to atoms done       ...    0.0 sec
Grid point division into batches done        ...    0.5 sec
Reduced shell lists constructed in    0.9 sec

Total number of grid points                  ...    96552
Total number of batches                      ...     1518
Average number of points per batch           ...       63
Average number of grid points per atom       ...     8046
Average number of shells per batch           ...    34.08 (70.99%)
Average number of basis functions per batch  ...    70.37 (73.30%)
Average number of large shells per batch     ...    27.70 (81.30%)
Average number of large basis fcns per batch ...    57.26 (81.37%)
Maximum spatial batch extension              ...  16.59, 16.35, 17.81 au
Average spatial batch extension              ...   2.15,  2.17,  2.40 au

Final grid set up in    1.1 sec
Final integration                            ... done (   0.7 sec)
Change in XC energy                          ...    -0.000082001
Integrated number of electrons               ...    41.999995763
Previous integrated no of electrons          ...    41.999552740

----------------
TOTAL SCF ENERGY
----------------

Total Energy       :         -232.08945784 Eh           -6315.47522 eV

Components:
Nuclear Repulsion  :          203.09230431 Eh            5526.42256 eV
Electronic Energy  :         -435.18176215 Eh          -11841.89778 eV
One Electron Energy:         -713.62767706 Eh          -19418.79633 eV
Two Electron Energy:          278.44591491 Eh            7576.89855 eV

Virial components:
Potential Energy   :         -462.77733406 Eh          -12592.81147 eV
Kinetic Energy     :          230.68787622 Eh            6277.33625 eV
Virial Ratio       :            2.00607566


DFT components:
N(Alpha)           :       20.999997881346 electrons
N(Beta)            :       20.999997881346 electrons
N(Total)           :       41.999995762692 electrons
E(X)               :      -26.377529382243 Eh       
E(C)               :       -1.633596575020 Eh       
E(XC)              :      -28.011125957263 Eh       
DFET-embed. en.    :        0.000000000000 Eh       

---------------
SCF CONVERGENCE
---------------

  Last Energy change         ...   -7.8458e-10  Tolerance :   1.0000e-08
  Last MAX-Density change    ...    2.4916e-06  Tolerance :   1.0000e-07
  Last RMS-Density change    ...    1.5532e-07  Tolerance :   5.0000e-09
  Last Orbital Gradient      ...    6.8117e-07  Tolerance :   1.0000e-05
  Last Orbital Rotation      ...    5.4562e-07  Tolerance :   1.0000e-05

             **** THE GBW FILE WAS UPDATED (/Users/lailaal-madhagi/Desktop/Testing_XAS_Analysis_code/Benzene//Results_dir_Benzene_geom_element_C_2019-11-05_19-06-04//GTE1_Benzene_geom_2019-11-05_19-06-39//TDDFT_C-edge.gbw) ****
             **** DENSITY FILE WAS UPDATED (/Users/lailaal-madhagi/Desktop/Testing_XAS_Analysis_code/Benzene//Results_dir_Benzene_geom_element_C_2019-11-05_19-06-04//GTE1_Benzene_geom_2019-11-05_19-06-39//TDDFT_C-edge.scfp.tmp) ****
             **** ENERGY FILE WAS UPDATED (/Users/lailaal-madhagi/Desktop/Testing_XAS_Analysis_code/Benzene//Results_dir_Benzene_geom_element_C_2019-11-05_19-06-04//GTE1_Benzene_geom_2019-11-05_19-06-39//TDDFT_C-edge.en.tmp) ****
----------------
ORBITAL ENERGIES
----------------

  NO   OCC          E(Eh)            E(eV) 
   0   2.0000     -10.178002      -276.9575 
   1   2.0000     -10.177824      -276.9527 
   2   2.0000     -10.177782      -276.9515 
   3   2.0000     -10.177375      -276.9404 
   4   2.0000     -10.177331      -276.9393 
   5   2.0000     -10.177152      -276.9344 
   6   2.0000      -0.842316       -22.9206 
   7   2.0000      -0.736028       -20.0283 
   8   2.0000      -0.736009       -20.0278 
   9   2.0000      -0.593778       -16.1575 
  10   2.0000      -0.593767       -16.1572 
  11   2.0000      -0.514757       -14.0072 
  12   2.0000      -0.455781       -12.4024 
  13   2.0000      -0.434410       -11.8209 
  14   2.0000      -0.413597       -11.2546 
  15   2.0000      -0.413584       -11.2542 
  16   2.0000      -0.355693        -9.6789 
  17   2.0000      -0.336725        -9.1628 
  18   2.0000      -0.336721        -9.1626 
  19   2.0000      -0.242754        -6.6057 
  20   2.0000      -0.242722        -6.6048 
  21   0.0000       0.006908         0.1880 
  22   0.0000       0.006942         0.1889 
  23   0.0000       0.094026         2.5586 
  24   0.0000       0.147766         4.0209 
  25   0.0000       0.147863         4.0235 
  26   0.0000       0.167048         4.5456 
  27   0.0000       0.184934         5.0323 
  28   0.0000       0.184991         5.0339 
  29   0.0000       0.193379         5.2621 
  30   0.0000       0.305769         8.3204 
  31   0.0000       0.306109         8.3297 
  32   0.0000       0.322283         8.7698 
  33   0.0000       0.322353         8.7717 
  34   0.0000       0.478720        13.0266 
  35   0.0000       0.530953        14.4480 
  36   0.0000       0.551840        15.0163 
  37   0.0000       0.555349        15.1118 
  38   0.0000       0.566856        15.4249 
  39   0.0000       0.602414        16.3925 
  40   0.0000       0.605367        16.4729 
  41   0.0000       0.605838        16.4857 
  42   0.0000       0.607151        16.5214 
  43   0.0000       0.607459        16.5298 
  44   0.0000       0.636609        17.3230 
  45   0.0000       0.636790        17.3279 
  46   0.0000       0.670838        18.2544 
  47   0.0000       0.671212        18.2646 
  48   0.0000       0.748297        20.3622 
  49   0.0000       0.843854        22.9624 
  50   0.0000       0.843887        22.9633 
  51   0.0000       0.846915        23.0457 
  52   0.0000       0.868744        23.6397 
  53   0.0000       0.868980        23.6461 
  54   0.0000       0.946400        25.7528 
  55   0.0000       0.946878        25.7659 
  56   0.0000       0.947225        25.7753 
  57   0.0000       0.961107        26.1531 
  58   0.0000       1.090779        29.6816 
  59   0.0000       1.091223        29.6937 
  60   0.0000       1.145781        31.1783 
  61   0.0000       1.145850        31.1802 
  62   0.0000       1.206827        32.8394 
  63   0.0000       1.265254        34.4293 
  64   0.0000       1.399936        38.0942 
  65   0.0000       1.439438        39.1691 
  66   0.0000       1.439720        39.1768 
  67   0.0000       1.490067        40.5468 
  68   0.0000       1.490103        40.5478 
  69   0.0000       1.518691        41.3257 
  70   0.0000       1.518736        41.3269 
  71   0.0000       1.766237        48.0618 
  72   0.0000       1.792653        48.7806 
  73   0.0000       1.861241        50.6469 
  74   0.0000       1.905122        51.8410 
  75   0.0000       1.976681        53.7882 
  76   0.0000       1.976748        53.7900 
  77   0.0000       2.070268        56.3348 
  78   0.0000       2.070428        56.3392 
  79   0.0000       2.154452        58.6256 
  80   0.0000       2.154469        58.6261 
  81   0.0000       2.159238        58.7559 
  82   0.0000       2.159348        58.7589 
  83   0.0000       2.312117        62.9159 
  84   0.0000       2.312131        62.9163 
  85   0.0000       2.324026        63.2400 
  86   0.0000       2.548609        69.3512 
  87   0.0000       2.548823        69.3570 
  88   0.0000       2.658848        72.3509 
  89   0.0000       2.708462        73.7010 
  90   0.0000       2.708520        73.7026 
  91   0.0000       2.726908        74.2029 
  92   0.0000       2.726979        74.2049 
  93   0.0000       2.763725        75.2048 
  94   0.0000       3.019704        82.1703 
  95   0.0000       3.413247        92.8792 
------------------
MOLECULAR ORBITALS
------------------
                      0         1         2         3         4         5   
                 -10.17800 -10.17782 -10.17778 -10.17737 -10.17733 -10.17715
                   2.00000   2.00000   2.00000   2.00000   2.00000   2.00000
                  --------  --------  --------  --------  --------  --------
  0C   1s         0.410182  0.391326 -0.420760 -0.438733  0.372261  0.401023
  0C   2s         0.013059  0.013655 -0.014849 -0.016696  0.014316  0.016675
  0C   1pz        0.000007  0.000012  0.000018  0.000020  0.000004 -0.000010
  0C   1px       -0.000206  0.000830  0.000596  0.000154  0.000965  0.000531
  0C   1py        0.000394  0.000361  0.000711  0.000936 -0.000099 -0.000629
  0C   3s        -0.005175 -0.006701  0.008804  0.015578 -0.013635 -0.030688
  0C   2pz       -0.000013 -0.000022 -0.000042 -0.000067  0.000006  0.000148
  0C   2px        0.000359 -0.001508 -0.000677  0.000427 -0.003018 -0.006809
  0C   2py       -0.000745 -0.000644 -0.001847 -0.003424  0.001177  0.009363
  0C   1dz2       0.000168  0.000086 -0.000035  0.000546 -0.000506 -0.000750
  0C   1dxz      -0.000009 -0.000004  0.000001 -0.000016  0.000014  0.000023
  0C   1dyz      -0.000007 -0.000018 -0.000014 -0.000031  0.000004  0.000024
  0C   1dx2y2    -0.000064  0.000627  0.000699  0.000402  0.000759  0.000294
  0C   1dxy      -0.000341 -0.000347 -0.000167 -0.000643  0.000213  0.000672
  1C   1s         0.379050 -0.137746 -0.540657 -0.133159 -0.573817 -0.433992
  1C   2s         0.011896 -0.004736 -0.018851 -0.005001 -0.021827 -0.017849
  1C   1pz        0.000010 -0.000003  0.000006  0.000007  0.000018  0.000018
  1C   1px        0.000194  0.001125 -0.000188 -0.000807  0.000566  0.000367
  1C   1py        0.000441 -0.000468  0.000357  0.000569  0.000714  0.000759
  1C   3s        -0.004208  0.001879  0.009329  0.004356  0.020145  0.031410
  1C   2pz       -0.000021  0.000009 -0.000012 -0.000023 -0.000079 -0.000244
  1C   2px       -0.000385 -0.001953  0.000314  0.001843 -0.002084 -0.004882
  1C   2py       -0.000904  0.001018 -0.000706 -0.001664 -0.003275 -0.010590
  1C   1dz2       0.000197 -0.000046 -0.000118  0.000151  0.000713  0.000753
  1C   1dxz       0.000002 -0.000017  0.000004  0.000015 -0.000004  0.000000
  1C   1dyz      -0.000000  0.000012 -0.000002 -0.000013 -0.000012 -0.000013
  1C   1dx2y2    -0.000234 -0.000695  0.000303  0.000569 -0.000550 -0.000488
  1C   1dxy       0.000284 -0.000680  0.000039  0.000657  0.000344  0.000546
  2C   1s         0.436615  0.561879  0.167230  0.537245  0.156982 -0.377792
  2C   2s         0.014059  0.019800  0.005963  0.020630  0.006096 -0.015848
  2C   1pz       -0.000004 -0.000004  0.000025  0.000013 -0.000016 -0.000006
  2C   1px       -0.000398  0.000342 -0.000005  0.000873  0.000380 -0.000803
  2C   1py       -0.000062 -0.000307  0.001223  0.000376 -0.000912 -0.000043
  2C   3s        -0.006080 -0.011364 -0.004010 -0.019741 -0.006031  0.030189
  2C   2pz        0.000006  0.000002 -0.000049 -0.000045  0.000035  0.000090
  2C   2px        0.000632 -0.001364 -0.000476 -0.003886 -0.001476  0.011471
  2C   2py        0.000119  0.000484 -0.002259 -0.001085  0.002178  0.001020
  2C   1dz2       0.000139  0.000061 -0.000004 -0.000719 -0.000228  0.000748
  2C   1dxz       0.000001 -0.000005  0.000018  0.000006 -0.000015 -0.000000
  2C   1dyz      -0.000011 -0.000007  0.000009  0.000040  0.000004 -0.000040
  2C   1dx2y2     0.000316  0.000158 -0.000171 -0.000677 -0.000048  0.000715
  2C   1dxy       0.000038 -0.000244  0.000956  0.000135 -0.000860  0.000162
  3C   1s         0.385471  0.124911  0.541441 -0.144878 -0.574381  0.426681
  3C   2s         0.012118  0.004314  0.018896 -0.005462 -0.021868  0.017572
  3C   1pz       -0.000010 -0.000003  0.000006 -0.000007 -0.000018  0.000017
  3C   1px       -0.000165  0.001133 -0.000179  0.000794 -0.000574  0.000378
  3C   1py       -0.000451 -0.000462  0.000361 -0.000583 -0.000716  0.000742
  3C   3s        -0.004306 -0.001669 -0.009409  0.005020  0.020345 -0.031156
  3C   2pz        0.000021  0.000009 -0.000013  0.000027  0.000081 -0.000243
  3C   2px        0.000335 -0.001966  0.000291 -0.001737  0.002132 -0.004900
  3C   2py        0.000927  0.001017 -0.000723  0.001868  0.003352 -0.010529
  3C   1dz2       0.000199  0.000045  0.000113  0.000164  0.000720 -0.000744
  3C   1dxz       0.000003  0.000018 -0.000004  0.000015 -0.000004  0.000000
  3C   1dyz      -0.000001 -0.000012  0.000002 -0.000013 -0.000012  0.000013
  3C   1dx2y2    -0.000217  0.000702 -0.000295  0.000557 -0.000558  0.000494
  3C   1dxy       0.000301  0.000677 -0.000040  0.000663  0.000346 -0.000530
  4C   1s         0.420852 -0.569287 -0.168029  0.534080  0.154782  0.389452
  4C   2s         0.013504 -0.020014 -0.005980  0.020468  0.005998  0.016296
  4C   1pz        0.000004 -0.000004  0.000025 -0.000013  0.000016 -0.000006
  4C   1px        0.000406  0.000325 -0.000009 -0.000859 -0.000374 -0.000823
  4C   1py        0.000061 -0.000307  0.001215 -0.000379  0.000921 -0.000043
  4C   3s        -0.005759  0.011379  0.003987 -0.019238 -0.005800 -0.030614
  4C   2pz       -0.000006  0.000002 -0.000048  0.000044 -0.000036  0.000090
  4C   2px       -0.000670 -0.001319 -0.000463  0.003672  0.001385  0.011556
  4C   2py       -0.000119  0.000486 -0.002239  0.001072 -0.002202  0.001023
  4C   1dz2       0.000137 -0.000069  0.000001 -0.000704 -0.000222 -0.000764
  4C   1dxz       0.000001  0.000005 -0.000018  0.000006 -0.000015  0.000000
  4C   1dyz      -0.000011  0.000007 -0.000009  0.000039  0.000003  0.000041
  4C   1dx2y2     0.000313 -0.000170  0.000167 -0.000663 -0.000041 -0.000728
  4C   1dxy       0.000039  0.000241 -0.000950  0.000142 -0.000866 -0.000167
  5C   1s         0.402056 -0.403395  0.414161 -0.430399  0.379428 -0.406443
  5C   2s         0.012777 -0.014047  0.014611 -0.016353  0.014588 -0.016880
  5C   1pz       -0.000006  0.000012  0.000018 -0.000020 -0.000004 -0.000010
  5C   1px        0.000231  0.000820  0.000600 -0.000172 -0.000968  0.000520
  5C   1py       -0.000381  0.000366  0.000708 -0.000929  0.000108 -0.000646
  5C   3s        -0.005045  0.006883 -0.008618  0.014978 -0.013959  0.030874
  5C   2pz        0.000012 -0.000022 -0.000041  0.000064 -0.000007  0.000150
  5C   2px       -0.000402 -0.001490 -0.000695 -0.000282  0.003074 -0.006791
  5C   2py        0.000717 -0.000646 -0.001828  0.003253 -0.001262  0.009417
  5C   1dz2       0.000166 -0.000089  0.000039  0.000531 -0.000512  0.000756
  5C   1dxz      -0.000009  0.000004 -0.000001 -0.000016  0.000014 -0.000023
  5C   1dyz      -0.000006  0.000018  0.000014 -0.000031  0.000004 -0.000025
  5C   1dx2y2    -0.000084 -0.000620 -0.000701  0.000415  0.000759 -0.000280
  5C   1dxy      -0.000331  0.000352  0.000165 -0.000633  0.000219 -0.000683
  6H   1s        -0.000674 -0.000595  0.000633  0.000466 -0.000378 -0.000525
  6H   2s         0.002148  0.001408 -0.001384 -0.001273  0.001042 -0.000654
  7H   1s        -0.000638  0.000211  0.000823  0.000144  0.000607  0.000572
  7H   2s         0.002052 -0.000548 -0.001949 -0.000429 -0.001690  0.000543
  8H   1s        -0.000703 -0.000847 -0.000250 -0.000552 -0.000155  0.000491
  8H   2s         0.002225  0.001872  0.000503  0.001494  0.000409  0.000731
  9H   1s        -0.000648 -0.000191 -0.000822  0.000161  0.000607 -0.000564
  9H   2s         0.002077  0.000486  0.001946 -0.000430 -0.001675 -0.000565
 10H   1s        -0.000661  0.000614 -0.000625  0.000455 -0.000388  0.000531
 10H   2s         0.002118 -0.001468  0.001359 -0.001283  0.001050  0.000637
 11H   1s        -0.000679  0.000861  0.000252 -0.000549 -0.000153 -0.000503
 11H   2s         0.002172 -0.001919 -0.000510  0.001523  0.000419 -0.000698
                      6         7         8         9        10        11   
                  -0.84232  -0.73603  -0.73601  -0.59378  -0.59377  -0.51476
                   2.00000   2.00000   2.00000   2.00000   2.00000   2.00000
                  --------  --------  --------  --------  --------  --------
  0C   1s        -0.093682  0.112049 -0.065860 -0.025199  0.098319 -0.008822
  0C   2s         0.177242 -0.218944  0.128702  0.051365 -0.200475  0.019688
  0C   1pz       -0.000784 -0.000722 -0.001784  0.003521 -0.000044  0.002589
  0C   1px        0.034855 -0.058051 -0.074027  0.151111  0.080802 -0.115195
  0C   1py       -0.049054 -0.018371 -0.065978  0.128723 -0.026296  0.162228
  0C   3s         0.112810 -0.163339  0.095885  0.038145 -0.147887  0.031567
  0C   2pz       -0.000093 -0.000275 -0.000199  0.001068 -0.000507  0.000894
  0C   2px        0.004232 -0.002632 -0.016263  0.035003  0.043818 -0.039551
  0C   2py       -0.005911 -0.012762 -0.005121  0.042481 -0.038265  0.055804
  0C   1dz2      -0.009046  0.008365 -0.004910 -0.001132  0.004389 -0.001443
  0C   1dxz       0.000093 -0.000095  0.000067 -0.000027  0.000070  0.000055
  0C   1dyz       0.000317 -0.000184  0.000356 -0.000135 -0.000205  0.000049
  0C   1dx2y2    -0.000032 -0.005052 -0.008141  0.007412  0.003858  0.000617
  0C   1dxy      -0.000094  0.001126  0.003210 -0.004094  0.004557  0.001784
  1C   1s        -0.093686  0.113074  0.064104 -0.072553 -0.070976 -0.008836
  1C   2s         0.177198 -0.220884 -0.125242  0.147925  0.144715  0.019700
  1C   1pz       -0.001261  0.000231  0.000517  0.001471  0.000599  0.004163
  1C   1px       -0.025081  0.059118 -0.085997 -0.108821  0.153194  0.082899
  1C   1py       -0.054677 -0.006440  0.051121  0.105248 -0.016045  0.180863
  1C   3s         0.113100 -0.165277 -0.093525  0.109176  0.106727  0.031924
  1C   2pz       -0.000155 -0.000214 -0.000056  0.000995  0.000738  0.001430
  1C   2px       -0.003037  0.004800 -0.017075 -0.017338  0.052620  0.028557
  1C   2py       -0.006767 -0.011747  0.002252  0.053834  0.020858  0.061815
  1C   1dz2      -0.009052  0.008447  0.004785 -0.003240 -0.003166 -0.001454
  1C   1dxz       0.000096 -0.000171  0.000111  0.000188 -0.000031 -0.000007
  1C   1dyz       0.000319 -0.000228 -0.000262  0.000117  0.000253  0.000017
  1C   1dx2y2    -0.000060 -0.004189  0.006461  0.001876 -0.007293  0.001226
  1C   1dxy       0.000067 -0.002800  0.006025  0.007041 -0.000973 -0.001437
  2C   1s        -0.093679 -0.001015 -0.129973  0.097752 -0.027347 -0.008824
  2C   2s         0.177207  0.002004  0.253887 -0.199227  0.055758  0.019673
  2C   1pz        0.000476 -0.002240  0.000189 -0.000544 -0.004002 -0.001571
  2C   1px        0.059925  0.010877  0.021429  0.072656 -0.000464 -0.198099
  2C   1py        0.005633 -0.113797  0.002898 -0.048380 -0.197469 -0.018650
  2C   3s         0.112896  0.001246  0.189894 -0.147422  0.041191  0.031502
  2C   2pz        0.000062 -0.000367 -0.000075  0.000161 -0.001165 -0.000544
  2C   2px        0.007191  0.001578 -0.010116  0.057273 -0.010643 -0.068301
  2C   2py        0.000785 -0.018765 -0.000674 -0.009462 -0.054120 -0.006182
  2C   1dz2      -0.009053 -0.000076 -0.009713  0.004378 -0.001227 -0.001442
  2C   1dxz       0.000095 -0.000190  0.000096 -0.000142 -0.000128 -0.000003
  2C   1dyz       0.000316 -0.000096  0.000355 -0.000072 -0.000067  0.000086
  2C   1dx2y2     0.000100  0.001886 -0.000697 -0.005010  0.003071 -0.001857
  2C   1dxy       0.000024 -0.009967 -0.000045 -0.003319 -0.007868 -0.000340
  3C   1s        -0.093686 -0.113074 -0.064103 -0.072557 -0.070975 -0.008838
  3C   2s         0.177199  0.220885  0.125241  0.147932  0.144714  0.019704
  3C   1pz        0.001261  0.000231  0.000517 -0.001471 -0.000599 -0.004163
  3C   1px        0.025081  0.059121 -0.085993  0.108825 -0.153173 -0.082895
  3C   1py        0.054677 -0.006443  0.051124 -0.105264  0.016048 -0.180868
  3C   3s         0.113100  0.165282  0.093520  0.109205  0.106722  0.031929
  3C   2pz        0.000155 -0.000214 -0.000056 -0.000995 -0.000738 -0.001430
  3C   2px        0.003038  0.004801 -0.017073  0.017344 -0.052616 -0.028555
  3C   2py        0.006767 -0.011745  0.002251 -0.053823 -0.020862 -0.061816
  3C   1dz2      -0.009052 -0.008448 -0.004785 -0.003241 -0.003166 -0.001454
  3C   1dxz       0.000096  0.000171 -0.000111  0.000188 -0.000031 -0.000007
  3C   1dyz       0.000319  0.000228  0.000262  0.000117  0.000253  0.000017
  3C   1dx2y2    -0.000061  0.004187 -0.006462  0.001874 -0.007294  0.001224
  3C   1dxy       0.000066  0.002799 -0.006026  0.007041 -0.000975 -0.001439
  4C   1s        -0.093678  0.001015  0.129973  0.097747 -0.027346 -0.008821
  4C   2s         0.177204 -0.002003 -0.253887 -0.199218  0.055756  0.019666
  4C   1pz       -0.000476 -0.002240  0.000189  0.000544  0.004002  0.001571
  4C   1px       -0.059923  0.010877  0.021427 -0.072655  0.000462  0.198093
  4C   1py       -0.005633 -0.113798  0.002899  0.048383  0.197479  0.018650
  4C   3s         0.112894 -0.001245 -0.189890 -0.147389  0.041182  0.031494
  4C   2pz       -0.000062 -0.000367 -0.000075 -0.000161  0.001165  0.000544
  4C   2px       -0.007190  0.001579 -0.010120 -0.057287  0.010646  0.068300
  4C   2py       -0.000785 -0.018770 -0.000675  0.009462  0.054128  0.006182
  4C   1dz2      -0.009053  0.000076  0.009713  0.004377 -0.001227 -0.001443
  4C   1dxz       0.000095  0.000190 -0.000096 -0.000142 -0.000128 -0.000003
  4C   1dyz       0.000316  0.000096 -0.000355 -0.000072 -0.000067  0.000086
  4C   1dx2y2     0.000100 -0.001886  0.000697 -0.005009  0.003071 -0.001857
  4C   1dxy       0.000024  0.009967  0.000046 -0.003319 -0.007868 -0.000340
  5C   1s        -0.093681 -0.112049  0.065861 -0.025194  0.098317 -0.008820
  5C   2s         0.177240  0.218942 -0.128703  0.051359 -0.200472  0.019685
  5C   1pz        0.000784 -0.000722 -0.001784 -0.003520  0.000044 -0.002589
  5C   1px       -0.034854 -0.058048 -0.074031 -0.151120 -0.080821  0.115196
  5C   1py        0.049054 -0.018368 -0.065977 -0.128710  0.026287 -0.162223
  5C   3s         0.112809  0.163333 -0.095889  0.038118 -0.147875  0.031562
  5C   2pz        0.000093 -0.000275 -0.000199 -0.001068  0.000507 -0.000894
  5C   2px       -0.004232 -0.002631 -0.016265 -0.034998 -0.043824  0.039552
  5C   2py        0.005911 -0.012764 -0.005122 -0.042493  0.038267 -0.055803
  5C   1dz2      -0.009046 -0.008364  0.004910 -0.001132  0.004389 -0.001443
  5C   1dxz       0.000093  0.000095 -0.000067 -0.000027  0.000070  0.000055
  5C   1dyz       0.000317  0.000184 -0.000356 -0.000135 -0.000205  0.000049
  5C   1dx2y2    -0.000031  0.005054  0.008140  0.007413  0.003856  0.000620
  5C   1dxy      -0.000095 -0.001127 -0.003210 -0.004093  0.004558  0.001783
  6H   1s         0.035440 -0.067257  0.039537  0.028307 -0.110443  0.108407
  6H   2s         0.004765 -0.013101  0.007711  0.009821 -0.038261  0.066923
  7H   1s         0.035448 -0.067882 -0.038487  0.081498  0.079741  0.108429
  7H   2s         0.004784 -0.013258 -0.007488  0.028182  0.027564  0.067000
  8H   1s         0.035427  0.000613  0.078007 -0.109775  0.030718  0.108398
  8H   2s         0.004730  0.000094  0.015214 -0.038017  0.010647  0.066820
  9H   1s         0.035448  0.067885  0.038481  0.081516  0.079726  0.108432
  9H   2s         0.004784  0.013260  0.007486  0.028195  0.027555  0.067002
 10H   1s         0.035439  0.067254 -0.039542  0.028285 -0.110446  0.108404
 10H   2s         0.004765  0.013099 -0.007713  0.009806 -0.038262  0.066921
 11H   1s         0.035426 -0.000612 -0.078007 -0.109770  0.030717  0.108392
 11H   2s         0.004730 -0.000093 -0.015213 -0.038011  0.010646  0.066816
                     12        13        14        15        16        17   
                  -0.45578  -0.43441  -0.41360  -0.41358  -0.35569  -0.33673
                   2.00000   2.00000   2.00000   2.00000   2.00000   2.00000
                  --------  --------  --------  --------  --------  --------
  0C   1s        -0.058629  0.000008  0.022882  0.000810  0.000000  0.001986
  0C   2s         0.118320 -0.000018 -0.050561 -0.001796 -0.000005 -0.007801
  0C   1pz        0.001737 -0.004580  0.003929  0.001566  0.221920  0.005306
  0C   1px       -0.077381 -0.224251 -0.179392  0.063818 -0.001340  0.137294
  0C   1py        0.108891 -0.159165  0.247594  0.058311 -0.004491  0.220926
  0C   3s         0.155211  0.000033 -0.091243 -0.003213 -0.000033  0.013470
  0C   2pz        0.000507 -0.001545  0.001248 -0.000271  0.128855  0.001802
  0C   2px       -0.022818 -0.075536 -0.054366 -0.017250 -0.000799  0.067347
  0C   2py        0.032159 -0.053729  0.077763 -0.008227 -0.002605  0.068817
  0C   1dz2      -0.002575  0.000001 -0.002358 -0.000084 -0.000215 -0.001510
  0C   1dxz      -0.000309  0.000004 -0.000153 -0.000018  0.005531 -0.000203
  0C   1dyz       0.000106  0.000082  0.000101 -0.000270 -0.007768 -0.000149
  0C   1dx2y2    -0.005239 -0.003638 -0.003212  0.012118 -0.000190  0.006181
  0C   1dxy      -0.015012  0.001266 -0.007824 -0.004544 -0.000066 -0.012674
  1C   1s         0.058637  0.000002  0.012121 -0.019416 -0.000001 -0.004437
  1C   2s        -0.118302  0.000022 -0.026792  0.042908 -0.000001  0.017422
  1C   1pz       -0.002795 -0.000807  0.003179 -0.005563  0.221925 -0.004664
  1C   1px       -0.055632  0.250038  0.133650 -0.066753 -0.001339 -0.108724
  1C   1py       -0.121474 -0.114537  0.117057 -0.254786 -0.004508 -0.197977
  1C   3s        -0.155360 -0.000280 -0.048033  0.077100  0.000050 -0.030218
  1C   2pz       -0.000828 -0.000276  0.001090 -0.001655  0.128835 -0.000779
  1C   2px       -0.016475  0.084204  0.006335 -0.042587 -0.000794 -0.021906
  1C   2py       -0.035818 -0.038372  0.051946 -0.068670 -0.002579 -0.031944
  1C   1dz2       0.002571  0.000004 -0.001253  0.002004 -0.000346  0.003362
  1C   1dxz      -0.000208 -0.000069 -0.000131 -0.000224 -0.003980 -0.000276
  1C   1dyz      -0.000372  0.000044  0.000248 -0.000119 -0.008662 -0.000521
  1C   1dx2y2     0.010379 -0.002918 -0.011241 -0.000515 -0.000152  0.015016
  1C   1dxy      -0.012044 -0.002505 -0.003780 -0.009898  0.000133 -0.016372
  2C   1s         0.058631  0.000001  0.010746  0.020207  0.000001  0.002448
  2C   2s        -0.118273  0.000009 -0.023808 -0.044680 -0.000015 -0.009651
  2C   1pz        0.001052  0.005390 -0.002622 -0.001343  0.221885 -0.005365
  2C   1px        0.132940 -0.025811 -0.135907 -0.272734 -0.001350 -0.103064
  2C   1py        0.012547  0.273760 -0.088992  0.014831 -0.004495 -0.234165
  2C   3s        -0.155388 -0.000275 -0.042291 -0.080473  0.000002  0.016874
  2C   2pz        0.000319  0.001824 -0.000025 -0.000840  0.129098 -0.001904
  2C   2px        0.039284 -0.008919 -0.045718 -0.082613 -0.000732 -0.012731
  2C   2py        0.003745  0.092398  0.012414 -0.016499 -0.002604 -0.090046
  2C   1dz2       0.002584  0.000007 -0.001118 -0.002085  0.000130 -0.001875
  2C   1dxz      -0.000181  0.000073 -0.000165  0.000208  0.009506 -0.000037
  2C   1dyz       0.000208  0.000037 -0.000146 -0.000008  0.000892 -0.000255
  2C   1dx2y2    -0.015620 -0.000714  0.006033  0.006202 -0.000041  0.013806
  2C   1dxy      -0.002965  0.003790 -0.010488  0.007376 -0.000197 -0.006878
  3C   1s        -0.058631  0.000006 -0.012116  0.019416  0.000001 -0.004435
  3C   2s         0.118290 -0.000040  0.026782 -0.042908  0.000001  0.017417
  3C   1pz       -0.002795 -0.000808  0.003180 -0.005563  0.221928  0.004663
  3C   1px       -0.055626  0.250055  0.133654 -0.066733 -0.001339  0.108754
  3C   1py       -0.121466 -0.114574  0.117081 -0.254791 -0.004507  0.197956
  3C   3s         0.155350  0.000270  0.048024 -0.077100 -0.000050 -0.030224
  3C   2pz       -0.000828 -0.000275  0.001090 -0.001655  0.128836  0.000779
  3C   2px       -0.016475  0.084220  0.006351 -0.042592 -0.000794  0.021938
  3C   2py       -0.035813 -0.038359  0.051947 -0.068666 -0.002579  0.031934
  3C   1dz2      -0.002571 -0.000005  0.001253 -0.002004  0.000346  0.003362
  3C   1dxz       0.000208  0.000069  0.000131  0.000224  0.003980 -0.000276
  3C   1dyz       0.000372 -0.000044 -0.000248  0.000119  0.008662 -0.000521
  3C   1dx2y2    -0.010381  0.002918  0.011244  0.000513  0.000152  0.015018
  3C   1dxy       0.012041  0.002508  0.003779  0.009897 -0.000133 -0.016370
  4C   1s        -0.058642 -0.000001 -0.010748 -0.020212 -0.000001  0.002451
  4C   2s         0.118296 -0.000009  0.023813  0.044690  0.000015 -0.009656
  4C   1pz        0.001052  0.005388 -0.002622 -0.001343  0.221878  0.005366
  4C   1px        0.132960 -0.025806 -0.135901 -0.272716 -0.001350  0.103068
  4C   1py        0.012549  0.273697 -0.088981  0.014827 -0.004494  0.234222
  4C   3s         0.155409  0.000275  0.042294  0.080482 -0.000002  0.016868
  4C   2pz        0.000319  0.001823 -0.000025 -0.000840  0.129095  0.001904
  4C   2px        0.039293 -0.008917 -0.045717 -0.082606 -0.000732  0.012726
  4C   2py        0.003746  0.092379  0.012431 -0.016508 -0.002604  0.090058
  4C   1dz2      -0.002584 -0.000007  0.001118  0.002085 -0.000130 -0.001875
  4C   1dxz       0.000181 -0.000072  0.000165 -0.000208 -0.009505 -0.000037
  4C   1dyz      -0.000208 -0.000037  0.000146  0.000008 -0.000892 -0.000255
  4C   1dx2y2     0.015623  0.000713 -0.006032 -0.006200  0.000041  0.013806
  4C   1dxy       0.002966 -0.003787  0.010488 -0.007375  0.000197 -0.006879
  5C   1s         0.058635 -0.000016 -0.022884 -0.000806 -0.000000  0.001982
  5C   2s        -0.118332  0.000035  0.050567  0.001787  0.000005 -0.007792
  5C   1pz        0.001737 -0.004579  0.003929  0.001566  0.221917 -0.005308
  5C   1px       -0.077388 -0.224240 -0.179400  0.063799 -0.001340 -0.137312
  5C   1py        0.108899 -0.159124  0.247574  0.058327 -0.004491 -0.220983
  5C   3s        -0.155222 -0.000024  0.091249  0.003205  0.000033  0.013461
  5C   2pz        0.000507 -0.001545  0.001248 -0.000271  0.128853 -0.001803
  5C   2px       -0.022819 -0.075518 -0.054353 -0.017263 -0.000799 -0.067354
  5C   2py        0.032164 -0.053738  0.077768 -0.008226 -0.002605 -0.068844
  5C   1dz2       0.002575  0.000000  0.002358  0.000084  0.000215 -0.001510
  5C   1dxz       0.000309 -0.000004  0.000153  0.000018 -0.005530 -0.000203
  5C   1dyz      -0.000106 -0.000082 -0.000101  0.000270  0.007768 -0.000149
  5C   1dx2y2     0.005237  0.003637  0.003209 -0.012117  0.000190  0.006182
  5C   1dxy       0.015014 -0.001263  0.007824  0.004546  0.000066 -0.012676
  6H   1s         0.140500  0.000012  0.166291  0.005757 -0.000000  0.076146
  6H   2s         0.098966  0.000048  0.156995  0.005426 -0.000005  0.086785
  7H   1s        -0.140524  0.000054  0.088187 -0.141128 -0.000007 -0.170403
  7H   2s        -0.098936  0.000001  0.083399 -0.133308 -0.000032 -0.194281
  8H   1s        -0.140450  0.000021  0.078130  0.146929  0.000005  0.094210
  8H   2s        -0.098860 -0.000036  0.073777  0.138686  0.000024  0.107367
  9H   1s         0.140513 -0.000024 -0.088207  0.141126  0.000007 -0.170400
  9H   2s         0.098928  0.000035 -0.083417  0.133305  0.000032 -0.194274
 10H   1s        -0.140512 -0.000042 -0.166281 -0.005776  0.000000  0.076162
 10H   2s        -0.098975 -0.000083 -0.156987 -0.005444  0.000005  0.086808
 11H   1s         0.140473 -0.000022 -0.078123 -0.146913 -0.000005  0.094213
 11H   2s         0.098876  0.000035 -0.073772 -0.138673 -0.000024  0.107375
                     18        19        20        21        22        23   
                  -0.33672  -0.24275  -0.24272   0.00691   0.00694   0.09403
                   2.00000   2.00000   2.00000   0.00000   0.00000   0.00000
                  --------  --------  --------  --------  --------  --------
  0C   1s        -0.003979  0.000002 -0.000000 -0.000001  0.000001  0.038535
  0C   2s         0.015608 -0.000005  0.000006 -0.000012 -0.000005 -0.063999
  0C   1pz       -0.000629  0.144149 -0.307540 -0.239772  0.274566 -0.001634
  0C   1px        0.214488 -0.000875  0.001868  0.001437 -0.001673  0.073516
  0C   1py       -0.095437 -0.002911  0.006233  0.004857 -0.005557 -0.103338
  0C   3s        -0.027050 -0.000031  0.000005  0.000085  0.000030 -0.509175
  0C   2pz        0.000347  0.103624 -0.220932 -0.319171  0.364902 -0.003622
  0C   2px        0.058353 -0.000663  0.001361  0.001972 -0.002208  0.162173
  0C   2py       -0.000700 -0.002118  0.004494  0.006529 -0.007426 -0.228366
  0C   1dz2       0.003021 -0.000537 -0.000130  0.000489  0.000754 -0.002597
  0C   1dxz       0.000384 -0.012663 -0.009083  0.022550  0.011333 -0.000356
  0C   1dyz      -0.000231 -0.011535 -0.001004  0.007200  0.018113  0.000110
  0C   1dx2y2     0.011271 -0.000158  0.000036  0.000011  0.000298 -0.006014
  0C   1dxy       0.017154  0.000326  0.000191 -0.000501 -0.000340 -0.017224
  1C   1s         0.000267  0.000001  0.000003 -0.000002 -0.000003  0.038592
  1C   2s        -0.001083 -0.000006  0.000015 -0.000008 -0.000014 -0.063855
  1C   1pz        0.001075 -0.194167 -0.278675  0.357581  0.070671 -0.002629
  1C   1px       -0.237502  0.001180  0.001674 -0.002152 -0.000418 -0.052862
  1C   1py        0.124028  0.003937  0.005653 -0.007241 -0.001429 -0.115221
  1C   3s         0.002013  0.000017 -0.000072  0.000001  0.000059 -0.510747
  1C   2pz        0.000362 -0.139556 -0.200178  0.475706  0.093684 -0.005917
  1C   2px       -0.095288  0.000819  0.001234 -0.002816 -0.000566 -0.117435
  1C   2py        0.046201  0.002821  0.004012 -0.009618 -0.001783 -0.255450
  1C   1dz2      -0.000210  0.000180  0.000093  0.000358  0.000226 -0.002576
  1C   1dxz       0.000216 -0.012844  0.011452  0.009723 -0.025864  0.000235
  1C   1dyz      -0.000096  0.008965 -0.000826  0.007310  0.014173  0.000416
  1C   1dx2y2     0.007575  0.000260 -0.000086  0.000088  0.000444 -0.011893
  1C   1dxy       0.008319  0.000205 -0.000228 -0.000241  0.000439  0.013820
  2C   1s         0.003705  0.000001  0.000000 -0.000002 -0.000000  0.038518
  2C   2s        -0.014551 -0.000005 -0.000005 -0.000000 -0.000008 -0.064014
  2C   1pz        0.001422  0.338318 -0.028865 -0.117670 -0.344881  0.000982
  2C   1px       -0.201243 -0.002049  0.000166  0.000710  0.002087  0.126198
  2C   1py        0.129647 -0.006860  0.000585  0.002387  0.006992  0.011839
  2C   3s         0.025150 -0.000024  0.000001  0.000070 -0.000051 -0.508679
  2C   2pz        0.000893  0.243323 -0.020759 -0.156599 -0.458762  0.002185
  2C   2px       -0.037471 -0.001437  0.000133  0.000928  0.002701  0.279745
  2C   2py        0.055187 -0.004943  0.000437  0.003170  0.009290  0.025844
  2C   1dz2      -0.002817  0.000013 -0.000642 -0.000915  0.000470 -0.002603
  2C   1dxz       0.000325  0.005018  0.001342  0.006169  0.009374  0.000204
  2C   1dyz      -0.000189 -0.001133 -0.018678 -0.027890  0.010596 -0.000250
  2C   1dx2y2     0.017077 -0.000054 -0.000387 -0.000603  0.000158  0.017935
  2C   1dxy       0.009530 -0.000095  0.000086  0.000044 -0.000254  0.003403
  3C   1s         0.000272  0.000001  0.000003  0.000002  0.000003  0.038590
  3C   2s        -0.001094 -0.000006  0.000015  0.000008  0.000014 -0.063850
  3C   1pz       -0.001074  0.194163  0.278678  0.357582  0.070678  0.002629
  3C   1px        0.237487 -0.001180 -0.001674 -0.002152 -0.000418  0.052871
  3C   1py       -0.123977 -0.003936 -0.005653 -0.007241 -0.001429  0.115211
  3C   3s         0.002022  0.000017 -0.000072 -0.000001 -0.000059 -0.510755
  3C   2pz       -0.000361  0.139553  0.200180  0.475707  0.093694  0.005917
  3C   2px        0.095289 -0.000819 -0.001234 -0.002816 -0.000566  0.117364
  3C   2py       -0.046177 -0.002821 -0.004012 -0.009618 -0.001783  0.255468
  3C   1dz2      -0.000211  0.000180  0.000093 -0.000358 -0.000226 -0.002576
  3C   1dxz       0.000216 -0.012844  0.011453 -0.009722  0.025864  0.000235
  3C   1dyz      -0.000096  0.008965 -0.000826 -0.007311 -0.014173  0.000416
  3C   1dx2y2     0.007576  0.000260 -0.000086 -0.000088 -0.000444 -0.011895
  3C   1dxy       0.008317  0.000205 -0.000228  0.000241 -0.000439  0.013820
  4C   1s         0.003709  0.000001  0.000000  0.000002  0.000000  0.038522
  4C   2s        -0.014559 -0.000005 -0.000004  0.000000  0.000008 -0.064025
  4C   1pz       -0.001422 -0.338318  0.028866 -0.117668 -0.344877 -0.000982
  4C   1px        0.201262  0.002049 -0.000166  0.000710  0.002087 -0.126208
  4C   1py       -0.129682  0.006860 -0.000585  0.002387  0.006992 -0.011841
  4C   3s         0.025139 -0.000024  0.000001 -0.000069  0.000051 -0.508653
  4C   2pz       -0.000893 -0.243325  0.020759 -0.156597 -0.458757 -0.002185
  4C   2px        0.037468  0.001437 -0.000133  0.000928  0.002701 -0.279776
  4C   2py       -0.055196  0.004943 -0.000437  0.003170  0.009290 -0.025846
  4C   1dz2      -0.002817  0.000013 -0.000642  0.000915 -0.000470 -0.002603
  4C   1dxz       0.000325  0.005018  0.001342 -0.006169 -0.009374  0.000204
  4C   1dyz      -0.000189 -0.001133 -0.018678  0.027890 -0.010596 -0.000250
  4C   1dx2y2     0.017077 -0.000054 -0.000387  0.000603 -0.000158  0.017932
  4C   1dxy       0.009531 -0.000095  0.000086 -0.000044  0.000254  0.003403
  5C   1s        -0.003983  0.000002 -0.000000  0.000001 -0.000001  0.038537
  5C   2s         0.015618 -0.000005  0.000006  0.000012  0.000005 -0.064004
  5C   1pz        0.000629 -0.144154  0.307537 -0.239774  0.274560  0.001634
  5C   1px       -0.214470  0.000875 -0.001868  0.001437 -0.001673 -0.073508
  5C   1py        0.095441  0.002911 -0.006233  0.004857 -0.005557  0.103350
  5C   3s        -0.027047 -0.000031  0.000005 -0.000084 -0.000030 -0.509164
  5C   2pz       -0.000347 -0.103628  0.220931 -0.319175  0.364895  0.003621
  5C   2px       -0.058326  0.000663 -0.001361  0.001972 -0.002208 -0.162236
  5C   2py        0.000706  0.002118 -0.004494  0.006529 -0.007426  0.228336
  5C   1dz2       0.003021 -0.000537 -0.000130 -0.000489 -0.000754 -0.002598
  5C   1dxz       0.000384 -0.012663 -0.009082 -0.022550 -0.011332 -0.000356
  5C   1dyz      -0.000231 -0.011535 -0.001004 -0.007200 -0.018113  0.000110
  5C   1dx2y2     0.011269 -0.000158  0.000036 -0.000011 -0.000298 -0.006012
  5C   1dxy       0.017154  0.000326  0.000191  0.000501  0.000340 -0.017223
  6H   1s        -0.152775  0.000005 -0.000000 -0.000001  0.000001  0.060074
  6H   2s        -0.174157  0.000020  0.000005 -0.000066 -0.000014  0.729375
  7H   1s         0.010424  0.000004  0.000006 -0.000007 -0.000006  0.060127
  7H   2s         0.011867  0.000009  0.000044 -0.000048 -0.000121  0.730836
  8H   1s         0.142337  0.000004  0.000006 -0.000001 -0.000011  0.060137
  8H   2s         0.162171  0.000017  0.000011 -0.000022 -0.000031  0.729754
  9H   1s         0.010406  0.000004  0.000006  0.000007  0.000006  0.060131
  9H   2s         0.011842  0.000009  0.000044  0.000047  0.000121  0.730820
 10H   1s        -0.152771  0.000005 -0.000000  0.000001 -0.000001  0.060070
 10H   2s        -0.174155  0.000020  0.000005  0.000066  0.000014  0.729389
 11H   1s         0.142343  0.000004  0.000006  0.000001  0.000011  0.060129
 11H   2s         0.162183  0.000017  0.000011  0.000022  0.000031  0.729789
                     24        25        26        27        28        29   
                   0.14777   0.14786   0.16705   0.18493   0.18499   0.19338
                   0.00000   0.00000   0.00000   0.00000   0.00000   0.00000
                  --------  --------  --------  --------  --------  --------
  0C   1s         0.022173 -0.031294 -0.000008  0.041248  0.077886 -0.053863
  0C   2s        -0.021024  0.030022 -0.000009 -0.059892 -0.113572  0.153637
  0C   1pz       -0.002203  0.002406 -0.291597  0.000462 -0.002080  0.001019
  0C   1px        0.066016 -0.130199  0.001748  0.092508  0.030181 -0.044335
  0C   1py       -0.129813  0.157093  0.005899 -0.003539 -0.109508  0.062423
  0C   3s        -0.557936  0.785509  0.000202 -0.734903 -1.388993 -0.219193
  0C   2pz       -0.001616  0.008453 -0.539581  0.002952 -0.009617  0.016128
  0C   2px        0.344662 -0.183603  0.003234  0.460334  0.116655 -0.720232
  0C   2py       -0.181967  0.472669  0.010989  0.011715 -0.509982  1.012064
  0C   1dz2       0.001392 -0.001953 -0.000381 -0.000191 -0.000359  0.011852
  0C   1dxz      -0.000150  0.000194  0.009784  0.000126  0.000208 -0.000294
  0C   1dyz      -0.000257 -0.000094 -0.013771  0.000230 -0.000119 -0.000407
  0C   1dx2y2     0.007631  0.009687 -0.000338 -0.008545  0.008728 -0.002687
  0C   1dxy      -0.009153  0.005790 -0.000117  0.008549  0.007407 -0.007607
  1C   1s         0.038242  0.003520  0.000001  0.046767 -0.074617  0.053898
  1C   2s        -0.036287 -0.003388 -0.000006 -0.067707  0.108358 -0.153560
  1C   1pz       -0.005149 -0.000425  0.291599 -0.001079  0.002273 -0.001589
  1C   1px       -0.101171 -0.033354 -0.001746 -0.090597  0.002410 -0.031970
  1C   1py       -0.226497 -0.010042 -0.005907 -0.028753  0.111107 -0.069431
  1C   3s        -0.960444 -0.088923 -0.000062 -0.836239  1.331908  0.218878
  1C   2pz       -0.012532 -0.001787  0.539590 -0.004935  0.010355 -0.025987
  1C   2px       -0.269020  0.170935 -0.003182 -0.452064 -0.013858 -0.518940
  1C   2py       -0.538352 -0.139379 -0.010885 -0.111657  0.515152 -1.128962
  1C   1dz2       0.002397  0.000222  0.000613 -0.000195  0.000337 -0.011862
  1C   1dxz       0.000112 -0.000213  0.007035 -0.000252 -0.000010  0.000030
  1C   1dyz       0.000094  0.000150  0.015352  0.000023  0.000232  0.000274
  1C   1dx2y2    -0.005996 -0.010081  0.000268 -0.004042 -0.011191  0.005285
  1C   1dxy       0.008754 -0.007394 -0.000233 -0.011330  0.002884 -0.006138
  2C   1s        -0.016015 -0.034885  0.000010 -0.088104 -0.003215  0.053822
  2C   2s         0.015204  0.033322 -0.000006  0.128150  0.004542 -0.153376
  2C   1pz       -0.001319 -0.001557  0.291529 -0.000973  0.001597  0.000589
  2C   1px       -0.101373 -0.226563 -0.001743 -0.119870 -0.012118  0.075900
  2C   1py       -0.033433 -0.010293 -0.005905 -0.014306  0.082125  0.007151
  2C   3s         0.403064  0.875344 -0.000162  1.570630  0.057292  0.218797
  2C   2pz        0.001851 -0.006079  0.539591 -0.004563  0.008343  0.009792
  2C   2px       -0.268674 -0.537668 -0.003097 -0.544287 -0.061346  1.236149
  2C   2py        0.171357 -0.140291 -0.010961 -0.066387  0.429118  0.115533
  2C   1dz2      -0.001007 -0.002186 -0.000231  0.000393  0.000023 -0.011838
  2C   1dxz       0.000184 -0.000170 -0.016818  0.000110 -0.000229  0.000046
  2C   1dyz       0.000228  0.000209 -0.001576 -0.000218 -0.000130  0.000568
  2C   1dx2y2    -0.006468 -0.008499  0.000069  0.010886  0.002724 -0.007932
  2C   1dxy       0.010362 -0.006935  0.000351  0.002546 -0.012005 -0.001523
  3C   1s        -0.038232 -0.003537  0.000001  0.046867 -0.074620 -0.053815
  3C   2s         0.036268  0.003421 -0.000006 -0.068011  0.108359  0.153450
  3C   1pz       -0.005148 -0.000425 -0.291596  0.001081 -0.002274 -0.001587
  3C   1px       -0.101182 -0.033362  0.001746  0.090655 -0.002401 -0.031772
  3C   1py       -0.226491 -0.010050  0.005907  0.028867 -0.111144 -0.069372
  3C   3s         0.960334  0.089117 -0.000060 -0.835516  1.332058 -0.220462
  3C   2pz       -0.012531 -0.001788 -0.539584  0.004989 -0.010355 -0.025978
  3C   2px       -0.268855  0.170818  0.003182  0.453104  0.013929 -0.517941
  3C   2py       -0.538391 -0.139399  0.010885  0.114006 -0.515138 -1.128791
  3C   1dz2      -0.002397 -0.000221  0.000613 -0.000221  0.000335  0.011863
  3C   1dxz      -0.000112  0.000213  0.007035 -0.000251 -0.000009 -0.000030
  3C   1dyz      -0.000094 -0.000150  0.015352  0.000024  0.000232 -0.000274
  3C   1dx2y2     0.006002  0.010082  0.000268 -0.004031 -0.011189 -0.005290
  3C   1dxy      -0.008752  0.007397 -0.000233 -0.011342  0.002885  0.006121
  4C   1s         0.016023  0.034900  0.000010 -0.087989 -0.003210 -0.053991
  4C   2s        -0.015220 -0.033351 -0.000006  0.127818  0.004526  0.153602
  4C   1pz       -0.001318 -0.001557 -0.291535  0.000971 -0.001596  0.000591
  4C   1px       -0.101374 -0.226563  0.001743  0.119678  0.012105  0.076178
  4C   1py       -0.033428 -0.010295  0.005905  0.014287 -0.082092  0.007175
  4C   3s        -0.403157 -0.875516 -0.000163  1.571153  0.057311 -0.215547
  4C   2pz        0.001855 -0.006082 -0.539602  0.004542 -0.008344  0.009801
  4C   2px       -0.268722 -0.537711  0.003097  0.541571  0.061207  1.237315
  4C   2py        0.171567 -0.140389  0.010962  0.066137 -0.429133  0.115634
  4C   1dz2       0.001007  0.002185 -0.000231  0.000367  0.000022  0.011837
  4C   1dxz      -0.000184  0.000170 -0.016818  0.000110 -0.000229 -0.000046
  4C   1dyz      -0.000228 -0.000208 -0.001576 -0.000217 -0.000130 -0.000568
  4C   1dx2y2     0.006465  0.008495  0.000069  0.010868  0.002724  0.007952
  4C   1dxy      -0.010358  0.006933  0.000351  0.002543 -0.012008  0.001527
  5C   1s        -0.022193  0.031290 -0.000008  0.041147  0.077873  0.053950
  5C   2s         0.021063 -0.030015 -0.000009 -0.059588 -0.113541 -0.153752
  5C   1pz       -0.002204  0.002406  0.291600 -0.000464  0.002079  0.001018
  5C   1px        0.066018 -0.130187 -0.001748 -0.092426 -0.030173 -0.044542
  5C   1py       -0.129823  0.157095 -0.005900  0.003439  0.109460  0.062452
  5C   3s         0.558169 -0.785467  0.000203 -0.735612 -1.388925  0.217526
  5C   2pz       -0.001614  0.008452  0.539586 -0.002986  0.009613  0.016123
  5C   2px        0.344862 -0.183638 -0.003233 -0.458863 -0.116563 -0.721241
  5C   2py       -0.181921  0.472619 -0.010989 -0.013826  0.509774  1.012081
  5C   1dz2      -0.001391  0.001954 -0.000381 -0.000165 -0.000358 -0.011851
  5C   1dxz       0.000150 -0.000194  0.009784  0.000125  0.000208  0.000295
  5C   1dyz       0.000257  0.000094 -0.013771  0.000229 -0.000120  0.000407
  5C   1dx2y2    -0.007632 -0.009682 -0.000338 -0.008551  0.008729  0.002677
  5C   1dxy       0.009150 -0.005791 -0.000117  0.008534  0.007404  0.007622
  6H   1s         0.026082 -0.036829 -0.000002  0.007612  0.014219 -0.047667
  6H   2s         0.708235 -0.999968 -0.000129  0.589366  1.112010 -1.215125
  7H   1s         0.045013  0.004166 -0.000004  0.008561 -0.013659  0.047701
  7H   2s         1.221866  0.112982 -0.000040  0.667813 -1.064938  1.215867
  8H   1s        -0.018862 -0.041104  0.000016 -0.016192 -0.000620  0.047626
  8H   2s        -0.511794 -1.114419  0.000216 -1.258644 -0.046633  1.213796
  9H   1s        -0.045015 -0.004172 -0.000004  0.008672 -0.013643 -0.047681
  9H   2s        -1.221790 -0.113140 -0.000042  0.670124 -1.065020 -1.214573
 10H   1s        -0.026085  0.036823 -0.000002  0.007501  0.014224  0.047688
 10H   2s        -0.708416  0.999921 -0.000130  0.587045  1.111691  1.216484
 11H   1s         0.018859  0.041099  0.000016 -0.016101 -0.000615 -0.047667
 11H   2s         0.511857  1.114537  0.000217 -1.255979 -0.046496 -1.216449
                     30        31        32        33        34        35   
                   0.30577   0.30611   0.32228   0.32235   0.47872   0.53095
                   0.00000   0.00000   0.00000   0.00000   0.00000   0.00000
                  --------  --------  --------  --------  --------  --------
  0C   1s         0.044227 -0.057425 -0.051562  0.000296  0.000207 -0.000003
  0C   2s        -0.048458  0.062771  0.041883  0.000139  0.000479  0.000086
  0C   1pz        0.001824 -0.002906 -0.000559  0.004906 -0.005489  0.424603
  0C   1px       -0.104592  0.111642  0.028089  0.238379 -0.268445 -0.002580
  0C   1py        0.122780 -0.176823 -0.037641  0.169713 -0.189936 -0.008625
  0C   3s        -1.178621  1.527341  1.947843 -0.013525 -0.007253  0.000260
  0C   2pz        0.000955 -0.024467 -0.002432  0.032462  0.008418 -0.304706
  0C   2px       -1.090806  0.275767  0.125038  1.587213  0.407669  0.002125
  0C   2py        0.372080 -1.289483 -0.156066  1.130408  0.293269  0.006093
  0C   1dz2      -0.000812  0.001122  0.001697  0.000023 -0.000090 -0.000363
  0C   1dxz      -0.000018 -0.000034 -0.000859  0.000029  0.000047  0.008901
  0C   1dyz      -0.000606 -0.000531 -0.000017  0.000566  0.001034 -0.012678
  0C   1dx2y2     0.028346  0.021891 -0.013315 -0.025219 -0.046096 -0.000317
  0C   1dxy      -0.009885 -0.007722 -0.037556  0.009047  0.016319 -0.000097
  1C   1s        -0.071798 -0.009644 -0.025509  0.044796 -0.000070  0.000005
  1C   2s         0.078155  0.010306  0.020367 -0.036381  0.000289  0.000050
  1C   1pz       -0.005420 -0.000776 -0.001250  0.000390 -0.001030  0.424111
  1C   1px       -0.110841  0.002033  0.221792  0.148786  0.297466 -0.002564
  1C   1py       -0.236259 -0.039815 -0.127634 -0.023239 -0.136092 -0.008498
  1C   3s         1.912977  0.256909  0.964224 -1.689905  0.003581 -0.000548
  1C   2pz       -0.031434 -0.006714 -0.007013  0.000780  0.001461 -0.303910
  1C   2px       -0.734389  0.681280  1.498275  0.947831 -0.458511  0.001973
  1C   2py       -1.331892 -0.534986 -0.793731 -0.246488  0.205064  0.006213
  1C   1dz2       0.001327  0.000187  0.000856 -0.001544 -0.000037 -0.000563
  1C   1dxz      -0.000102  0.000668  0.000626 -0.000146 -0.000871 -0.006382
  1C   1dyz       0.000012 -0.000436  0.000056 -0.000713  0.000560 -0.014112
  1C   1dx2y2    -0.003825  0.028569  0.004705  0.032655 -0.037197 -0.000242
  1C   1dxy      -0.003290  0.024629  0.030104 -0.017600 -0.032141  0.000208
  2C   1s         0.027569  0.067063 -0.026031 -0.044495 -0.000033  0.000011
  2C   2s        -0.030399 -0.073424  0.021440  0.035932  0.000423  0.000056
  2C   1pz       -0.000459 -0.002053 -0.004763  0.003203  0.006490  0.426240
  2C   1px       -0.101025 -0.242026  0.047050  0.026500 -0.031247 -0.002504
  2C   1py        0.007104 -0.029878 -0.248691  0.151117  0.328136 -0.008569
  2C   3s        -0.733795 -1.783702  0.981630  1.682061  0.003609 -0.000196
  2C   2pz        0.010878 -0.017555 -0.032201  0.020673 -0.009841 -0.307044
  2C   2px       -0.654230 -1.377415  0.257595  0.080801  0.051546  0.001401
  2C   2py        0.731533 -0.456509 -1.666322  0.995916 -0.498629  0.006195
  2C   1dz2      -0.000499 -0.001315  0.000852  0.001441 -0.000098  0.000202
  2C   1dxz      -0.000656  0.000284  0.000622  0.000063  0.000915  0.015419
  2C   1dyz      -0.000321  0.000189 -0.000182 -0.000824  0.000481  0.001465
  2C   1dx2y2     0.006518 -0.002788  0.015434  0.036314 -0.009244 -0.000056
  2C   1dxy      -0.034418  0.014177  0.026480 -0.006870  0.047896 -0.000323
  3C   1s        -0.071802 -0.009626  0.025496 -0.044795  0.000064 -0.000005
  3C   2s         0.078158  0.010283 -0.020350  0.036386 -0.000300 -0.000050
  3C   1pz        0.005421  0.000777 -0.001250  0.000390 -0.001028  0.424116
  3C   1px        0.110790 -0.002037  0.221798  0.148794  0.297534 -0.002564
  3C   1py        0.236288  0.039837 -0.127594 -0.023254 -0.135983 -0.008498
  3C   3s         1.913229  0.256261 -0.963816  1.689895 -0.003561  0.000548
  3C   2pz        0.031436  0.006717 -0.007010  0.000780  0.001459 -0.303916
  3C   2px        0.734127 -0.681534  1.498221  0.947691 -0.458518  0.001973
  3C   2py        1.332035  0.535163 -0.793527 -0.246473  0.204987  0.006214
  3C   1dz2       0.001326  0.000191 -0.000861  0.001541  0.000048  0.000563
  3C   1dxz      -0.000102  0.000668 -0.000626  0.000146  0.000871  0.006382
  3C   1dyz       0.000012 -0.000437 -0.000056  0.000713 -0.000561  0.014112
  3C   1dx2y2    -0.003830  0.028576 -0.004706 -0.032652  0.037188  0.000242
  3C   1dxy      -0.003290  0.024628 -0.030101  0.017608  0.032140 -0.000208
  4C   1s         0.027570  0.067059  0.026037  0.044509  0.000033 -0.000011
  4C   2s        -0.030400 -0.073423 -0.021443 -0.035940 -0.000426 -0.000056
  4C   1pz        0.000459  0.002053 -0.004763  0.003203  0.006489  0.426231
  4C   1px        0.101022  0.242012  0.047074  0.026552 -0.031241 -0.002504
  4C   1py       -0.007107  0.029868 -0.248693  0.151126  0.328102 -0.008569
  4C   3s        -0.733734 -1.783364 -0.981790 -1.682470 -0.003606  0.000195
  4C   2pz       -0.010870  0.017551 -0.032206  0.020680 -0.009843 -0.307034
  4C   2px        0.654176  1.377383  0.257708  0.081016  0.051552  0.001401
  4C   2py       -0.731124  0.456281 -1.666586  0.996151 -0.498706  0.006195
  4C   1dz2      -0.000499 -0.001315 -0.000852 -0.001442  0.000098 -0.000202
  4C   1dxz      -0.000656  0.000284 -0.000622 -0.000063 -0.000915 -0.015418
  4C   1dyz      -0.000321  0.000189  0.000182  0.000824 -0.000481 -0.001465
[...]
---------------

DFT calculation                         ... on
Name of the grid file                   ... /Users/lailaal-madhagi/Desktop/Testing_XAS_Analysis_code/Benzene//Results_dir_Benzene_geom_element_C_2019-11-05_19-06-04//GTE1_Benzene_geom_2019-11-05_19-06-39//TDDFT_C-edge.grid_cis.tmp
Exchange functional (SCF)               ... B88
Exchange functional (TD-DFT)            ... B88
   X-Alpha parameter    XAlpha (SCF)    ...  0.666667
   X-Alpha parameter    XAlpha (TD-DFT) ...  0.666667
   Becke's b parameter  XBeta (SCF)     ...  0.004200
   Becke's b parameter  XBeta (TD-DFT)  ...  0.004200
Correlation functional (SCF)            ... LYP
Correlation functional (TD-DFT)         ... LYP
 LDA part of GGA corr.  LDAOpt (SCF)    ... VWN-5
 LDA part of GGA corr.  LDAOpt (TD-DFT) ... VWN-5
Hybrid DFT                              ... on
   Exchange mixing (SCF)                ...  0.200
   Exchange mixing (TD-DFT)             ...  0.200
   GGA exch. scaling(SCF)               ...  0.720
   GGA exch. scaling (TD-DFT)           ...  0.720
   GGA corr. scaling (SCF)              ...  0.810
   GGA corr. scaling (TD-DFT)           ...  0.810

Building densities             ... done
Calculating rho(r) on the grid ... done
Building xc-kernel on the grid ... done
                    *** TD-DFT CALCULATION INITIALIZED ***


------------------------
DAVIDSON-DIAGONALIZATION
------------------------

Dimension of the eigenvalue problem            ...    450
Number of roots to be determined               ...     20
Maximum size of the expansion space            ...    450
Maximum number of iterations                   ...    100
Convergence tolerance for the residual         ...    2.500e-07
Convergence tolerance for the energies         ...    2.500e-07
Orthogonality tolerance                        ...    1.000e-14
Level Shift                                    ...    0.000e+00
Constructing the preconditioner                ... o.k.
Building the initial guess                     ... o.k.
Number of trial vectors determined             ...    450


                       ****Iteration    0****

   Memory handling for direct AO based CIS:
   Memory per vector needed      ...     1 MB
   Memory needed                 ...    16 MB
   Memory available              ...   512 MB
   Number of vectors per batch   ...   512
   Number of batches             ...     1
   Time for densities:     0.012
   Using LibInt in JK Direct
   Time for J+K (Direct):    48.791
   Time for XC-Integration:     1.846
   Time for Sigma-Completion:     0.073
   Size of expansion space: 60
   Lowest Energy          :    10.110064156324
   Maximum Energy change  :    10.278428883702 (vector 19)
   Maximum residual norm  :     0.000801326545

                       ****Iteration    1****
   Time for densities:     0.003
   Using LibInt in JK Direct
   Time for J+K (Direct):    12.026
   Time for XC-Integration:     0.622
   Time for Sigma-Completion:     0.026
   Size of expansion space: 80
   Lowest Energy          :    10.108874866170
   Maximum Energy change  :     0.001189290155 (vector 0)
   Maximum residual norm  :     0.000005766811

                       ****Iteration    2****
   Time for densities:     0.003
   Using LibInt in JK Direct
   Time for J+K (Direct):    10.438
   Time for XC-Integration:     0.621
   Time for Sigma-Completion:     0.028
   Size of expansion space: 100
   Lowest Energy          :    10.108873575121
   Maximum Energy change  :     0.000026191497 (vector 19)
   Maximum residual norm  :     0.000035582564

                       ****Iteration    3****
   Time for densities:     0.004
   Using LibInt in JK Direct
   Time for J+K (Direct):    10.361
   Time for XC-Integration:     0.624
   Time for Sigma-Completion:     0.024
   Size of expansion space: 120
   Lowest Energy          :    10.108873574565
   Maximum Energy change  :     0.000151215607 (vector 18)
   Maximum residual norm  :     0.000001184028

                       ****Iteration    4****
   Time for densities:     0.005
   Using LibInt in JK Direct
   Time for J+K (Direct):    10.676
   Time for XC-Integration:     0.638
   Time for Sigma-Completion:     0.025
   Size of expansion space: 140
   Lowest Energy          :    10.108873574565
   Maximum Energy change  :     0.000001853784 (vector 18)
   Maximum residual norm  :     0.000000007387

      *** CONVERGENCE OF RESIDUAL NORM REACHED ***

Storing the converged CI vectors               ... /Users/lailaal-madhagi/Desktop/Testing_XAS_Analysis_code/Benzene//Results_dir_Benzene_geom_element_C_2019-11-05_19-06-04//GTE1_Benzene_geom_2019-11-05_19-06-39//TDDFT_C-edge.cis1

                 *** DAVIDSON DONE ***

Total time for solving the CIS problem:    98.007sec

------------------------------------
TD-DFT/TDA EXCITED STATES (SINGLETS)
------------------------------------

the weight of the individual excitations are printed if larger than 1.0e-02

STATE  1:  E=  10.108874 au    275.076 eV  2218641.3 cm**-1
     0a ->  26a  :     0.023369 (c=  0.15286797)
     1a ->  22a  :     0.408115 (c= -0.63883916)
     2a ->  21a  :     0.550421 (c= -0.74190352)

STATE  2:  E=  10.108919 au    275.078 eV  2218651.2 cm**-1
     0a ->  21a  :     0.435126 (c= -0.65964084)
     2a ->  26a  :     0.023630 (c=  0.15372138)
     3a ->  21a  :     0.108473 (c=  0.32935261)
     3a ->  22a  :     0.136130 (c= -0.36895759)
     4a ->  21a  :     0.199834 (c=  0.44702803)
     4a ->  22a  :     0.093391 (c=  0.30559964)

STATE  3:  E=  10.108979 au    275.079 eV  2218664.5 cm**-1
     0a ->  22a  :     0.498591 (c=  0.70610944)
     1a ->  26a  :     0.023630 (c= -0.15372186)
     3a ->  21a  :     0.156055 (c=  0.39503805)
     3a ->  22a  :     0.065731 (c=  0.25638022)
     4a ->  21a  :     0.113421 (c= -0.33677972)
     4a ->  22a  :     0.139106 (c=  0.37296873)

STATE  4:  E=  10.109247 au    275.087 eV  2218723.2 cm**-1
     1a ->  21a  :     0.092312 (c= -0.30382904)
     1a ->  22a  :     0.165469 (c=  0.40677848)
     2a ->  21a  :     0.074752 (c= -0.27340816)
     2a ->  22a  :     0.111839 (c= -0.33442334)
     4a ->  26a  :     0.022918 (c= -0.15138851)
     5a ->  21a  :     0.524777 (c= -0.72441515)

STATE  5:  E=  10.109307 au    275.088 eV  2218736.5 cm**-1
     1a ->  21a  :     0.130918 (c=  0.36182612)
     1a ->  22a  :     0.158588 (c=  0.39823124)
     2a ->  21a  :     0.074905 (c= -0.27368707)
     2a ->  22a  :     0.143088 (c=  0.37826996)
     3a ->  26a  :     0.022982 (c= -0.15159740)
     5a ->  22a  :     0.462442 (c= -0.68003109)

STATE  6:  E=  10.109701 au    275.099 eV  2218822.9 cm**-1
     3a ->  22a  :     0.524308 (c=  0.72409149)
     4a ->  21a  :     0.445169 (c=  0.66721010)
     5a ->  26a  :     0.022634 (c=  0.15044722)

STATE  7:  E=  10.129087 au    275.626 eV  2223077.6 cm**-1
     3a ->  21a  :     0.457931 (c= -0.67670598)
     4a ->  22a  :     0.540565 (c=  0.73523149)

STATE  8:  E=  10.129205 au    275.630 eV  2223103.6 cm**-1
     1a ->  21a  :     0.128885 (c=  0.35900590)
     1a ->  22a  :     0.094646 (c=  0.30764612)
     2a ->  21a  :     0.106775 (c= -0.32676374)
     2a ->  22a  :     0.153349 (c=  0.39159740)
     5a ->  22a  :     0.514504 (c=  0.71728945)

STATE  9:  E=  10.129233 au    275.630 eV  2223109.8 cm**-1
     1a ->  21a  :     0.099339 (c= -0.31518023)
     1a ->  22a  :     0.151309 (c=  0.38898435)
     2a ->  21a  :     0.172692 (c= -0.41556171)
     2a ->  22a  :     0.127410 (c= -0.35694533)
     5a ->  21a  :     0.447156 (c=  0.66869751)

STATE 10:  E=  10.129409 au    275.635 eV  2223148.2 cm**-1
     0a ->  22a  :     0.478509 (c=  0.69174326)
     3a ->  21a  :     0.161854 (c= -0.40231062)
     3a ->  22a  :     0.117654 (c= -0.34300751)
     4a ->  21a  :     0.102337 (c=  0.31990226)
     4a ->  22a  :     0.134076 (c= -0.36616388)

STATE 11:  E=  10.129436 au    275.636 eV  2223154.2 cm**-1
     0a ->  21a  :     0.542798 (c= -0.73674824)
     3a ->  21a  :     0.107950 (c= -0.32855730)
     3a ->  22a  :     0.137294 (c=  0.37053147)
     4a ->  21a  :     0.119280 (c= -0.34536896)
     4a ->  22a  :     0.086230 (c= -0.29365000)

STATE 12:  E=  10.129543 au    275.639 eV  2223177.8 cm**-1
     1a ->  21a  :     0.540227 (c=  0.73500103)
     2a ->  22a  :     0.455099 (c= -0.67461047)

STATE 13:  E=  10.221202 au    278.133 eV  2243294.6 cm**-1
     3a ->  25a  :     0.040827 (c= -0.20205760)
     4a ->  24a  :     0.045786 (c= -0.21397707)
     5a ->  23a  :     0.904203 (c= -0.95089569)

STATE 14:  E=  10.221439 au    278.139 eV  2243346.5 cm**-1
     1a ->  25a  :     0.014507 (c=  0.12044569)
     2a ->  24a  :     0.015401 (c= -0.12410095)
     4a ->  23a  :     0.903775 (c= -0.95067087)
     5a ->  24a  :     0.046807 (c= -0.21634947)

STATE 15:  E=  10.221487 au    278.141 eV  2243357.0 cm**-1
     1a ->  24a  :     0.016027 (c= -0.12659587)
     2a ->  25a  :     0.018074 (c= -0.13443881)
     3a ->  23a  :     0.903842 (c=  0.95070620)
     5a ->  25a  :     0.040909 (c=  0.20226003)

STATE 16:  E=  10.222046 au    278.156 eV  2243479.8 cm**-1
     0a ->  24a  :     0.039519 (c=  0.19879397)
     2a ->  23a  :     0.904530 (c= -0.95106784)
     3a ->  25a  :     0.018252 (c=  0.13509951)
     4a ->  24a  :     0.016401 (c= -0.12806509)

STATE 17:  E=  10.222092 au    278.157 eV  2243490.0 cm**-1
     0a ->  25a  :     0.044920 (c=  0.21194286)
     1a ->  23a  :     0.904565 (c= -0.95108644)
     3a ->  24a  :     0.016302 (c=  0.12767828)
     4a ->  25a  :     0.014363 (c=  0.11984385)

STATE 18:  E=  10.222504 au    278.168 eV  2243580.4 cm**-1
     0a ->  23a  :     0.908541 (c=  0.95317399)
     1a ->  25a  :     0.042891 (c= -0.20710101)
     2a ->  24a  :     0.039261 (c= -0.19814380)

STATE 19:  E=  10.277078 au    279.654 eV  2255557.9 cm**-1
     0a ->  29a  :     0.011264 (c= -0.10613280)
     1a ->  27a  :     0.016443 (c=  0.12822978)
     2a ->  28a  :     0.020212 (c= -0.14216878)
     3a ->  25a  :     0.359551 (c=  0.59962536)
     4a ->  24a  :     0.472649 (c=  0.68749506)
     5a ->  23a  :     0.093951 (c= -0.30651356)

STATE 20:  E=  10.277231 au    279.658 eV  2255591.4 cm**-1
     0a ->  28a  :     0.014640 (c= -0.12099550)
     1a ->  24a  :     0.036039 (c= -0.18983848)
     1a ->  25a  :     0.126246 (c=  0.35531145)
     2a ->  24a  :     0.156686 (c= -0.39583620)
     2a ->  25a  :     0.039761 (c= -0.19940255)
     2a ->  29a  :     0.011270 (c= -0.10616090)
     4a ->  23a  :     0.092849 (c=  0.30471155)
     5a ->  24a  :     0.487547 (c= -0.69824560)


-----------------------------
TD-DFT/TDA-EXCITATION SPECTRA
-----------------------------

Center of mass = ( -3.2355,  0.0068, -0.0059)
Calculating the Dipole integrals                  ... done
Transforming integrals                            ... done
Calculating the Linear Momentum integrals         ... done
Transforming integrals                            ... done
Calculating angular momentum integrals            ... done
Transforming integrals                            ... done

-----------------------------------------------------------------------------
         ABSORPTION SPECTRUM VIA TRANSITION ELECTRIC DIPOLE MOMENTS
-----------------------------------------------------------------------------
State   Energy    Wavelength  fosc         T2        TX        TY        TZ  
        (cm-1)      (nm)                 (au**2)    (au)      (au)      (au) 
-----------------------------------------------------------------------------
   1 2218641.3      4.5   0.000000449   0.00000  -0.00000  -0.00001   0.00026
   2 2218651.2      4.5   0.000354657   0.00005   0.00004   0.00015  -0.00725
   3 2218664.5      4.5   0.000380690   0.00006  -0.00005  -0.00015   0.00751
   4 2218723.2      4.5   0.000000210   0.00000  -0.00000  -0.00000   0.00018
   5 2218736.5      4.5   0.000007390   0.00000  -0.00001  -0.00002   0.00105
   6 2218822.9      4.5   0.222261690   0.03298   0.00110   0.00368  -0.18156
   7 2223077.6      4.5   0.000000000   0.00000  -0.00000  -0.00000   0.00000
   8 2223103.6      4.5   0.000000000   0.00000   0.00000   0.00000  -0.00000
   9 2223109.8      4.5   0.000000000   0.00000  -0.00000  -0.00000  -0.00000
  10 2223148.2      4.5   0.000000037   0.00000  -0.00000   0.00000   0.00007
  11 2223154.2      4.5   0.000000047   0.00000   0.00000   0.00000  -0.00008
  12 2223177.8      4.5   0.000000000   0.00000  -0.00000  -0.00000   0.00000
  13 2243294.6      4.5   0.000047054   0.00001  -0.00190  -0.00181  -0.00005
  14 2243346.5      4.5   0.000000266   0.00000   0.00008  -0.00018  -0.00000
  15 2243357.0      4.5   0.000000407   0.00000  -0.00021  -0.00012  -0.00000
  16 2243479.8      4.5   0.030243135   0.00444  -0.01433  -0.06504  -0.00139
  17 2243490.0      4.5   0.030270060   0.00444  -0.06508   0.01439  -0.00010
  18 2243580.4      4.5   0.000001306   0.00000   0.00044   0.00002   0.00000
  19 2255557.9      4.4   0.000301108   0.00004   0.00424   0.00509   0.00011
  20 2255591.5      4.4   0.000000415   0.00000   0.00012  -0.00021  -0.00000

-----------------------------------------------------------------------------
         ABSORPTION SPECTRUM VIA TRANSITION VELOCITY DIPOLE MOMENTS
-----------------------------------------------------------------------------
State   Energy    Wavelength   fosc        P2         PX        PY        PZ  
        (cm-1)      (nm)                 (au**2)     (au)      (au)      (au) 
-----------------------------------------------------------------------------
   1 2218641.3      4.5   0.000000431   0.00001   0.00002   0.00005  -0.00256
   2 2218651.2      4.5   0.000340808   0.00517  -0.00041  -0.00144   0.07187
   3 2218664.5      4.5   0.000365803   0.00555   0.00045   0.00149  -0.07446
   4 2218723.2      4.5   0.000000202   0.00000   0.00001   0.00004  -0.00175
   5 2218736.5      4.5   0.000007101   0.00011   0.00006   0.00021  -0.01037
   6 2218822.9      4.5   0.213580156   3.23885  -0.01086  -0.03644   1.79928
   7 2223077.6      4.5   0.000000000   0.00000   0.00003   0.00000  -0.00001
   8 2223103.6      4.5   0.000000000   0.00000  -0.00000  -0.00000   0.00002
   9 2223109.8      4.5   0.000000000   0.00000   0.00000   0.00000   0.00000
  10 2223148.2      4.5   0.000000036   0.00000   0.00002  -0.00001  -0.00074
  11 2223154.2      4.5   0.000000046   0.00000  -0.00003  -0.00001   0.00083
  12 2223177.8      4.5   0.000000000   0.00000   0.00000   0.00000  -0.00002
  13 2243294.6      4.5   0.000044519   0.00068   0.01892   0.01801   0.00047
  14 2243346.5      4.5   0.000000252   0.00000  -0.00080   0.00179   0.00003
  15 2243357.0      4.5   0.000000385   0.00001   0.00212   0.00119   0.00004
  16 2243479.8      4.5   0.028636081   0.43908   0.14258   0.64696   0.01387
  17 2243490.0      4.5   0.028660942   0.43946   0.64728  -0.14313   0.00098
  18 2243580.4      4.5   0.000001236   0.00002  -0.00435  -0.00024  -0.00003
  19 2255557.9      4.4   0.000288410   0.00445  -0.04266  -0.05123  -0.00114
  20 2255591.5      4.4   0.000000397   0.00001  -0.00123   0.00215   0.00004

-------------------------------------------------------------------
                             CD SPECTRUM
-------------------------------------------------------------------
State  Energy     Wavelength     R         MX        MY        MZ   
       (cm-1)       (nm)     (1e40*cgs)   (au)      (au)      (au)  
-------------------------------------------------------------------
   1 2218641.3      4.5     -0.00000   0.11568  -0.13911  -0.00213
   2 2218651.2      4.5      0.00001  -0.00538  -0.00414  -0.00012
   3 2218664.5      4.5      0.00001  -0.00662   0.01023   0.00017
   4 2218723.2      4.5     -0.00000   1.66985  -0.21831   0.00565
   5 2218736.5      4.5     -0.00003  -0.22805  -1.66873  -0.03520
   6 2218822.9      4.5      0.00001   0.00042  -0.00946  -0.00019
   7 2223077.6      4.5      0.00000  -0.00051  -0.00008  -0.00000
   8 2223103.6      4.5      0.00000  -0.00523  -0.02924  -0.00060
   9 2223109.8      4.5     -0.00000   0.03058  -0.00558   0.00009
  10 2223148.2      4.5     -0.00000   0.00012  -0.00025  -0.00000
  11 2223154.2      4.5      0.00000   0.00023   0.00005   0.00000
  12 2223177.8      4.5      0.00000  -0.00076  -0.00021   0.00000
  13 2243294.6      4.5     -0.00000   0.00000   0.00000  -0.00000
  14 2243346.5      4.5      0.00001   0.00006  -0.00004   0.00026
  15 2243357.0      4.5      0.00001  -0.00004  -0.00005   0.00021
  16 2243479.8      4.5     -0.00000   0.00000   0.00000  -0.00004
  17 2243490.0      4.5     -0.00002   0.00000  -0.00000   0.00001
  18 2243580.4      4.5      0.00002   0.00008  -0.00004  -0.00004
  19 2255557.9      4.4      0.00000   0.00000   0.00000  -0.00000
  20 2255591.5      4.4      0.00002   0.00017  -0.00010  -0.00002

Total run time:       98.242 sec

           *** ORCA-CIS/TD-DFT FINISHED WITHOUT ERROR ***

-----------------------
CIS/TD-DFT TOTAL ENERGY
-----------------------

    E(SCF)  =   -232.089457839 Eh
    DE(CIS) =     10.108873575 Eh (Root  1)
    ----------------------------- ---------
    E(tot)  =   -221.980584264 Eh


-------------------------   --------------------
FINAL SINGLE POINT ENERGY      -221.980584263979
-------------------------   --------------------


                            ***************************************
                            *     ORCA property calculations      *
                            ***************************************

                                    ---------------------
                                    Active property flags
                                    ---------------------
   (+) Dipole Moment


------------------------------------------------------------------------------
                       ORCA ELECTRIC PROPERTIES CALCULATION
------------------------------------------------------------------------------

Dipole Moment Calculation                       ... on
Quadrupole Moment Calculation                   ... off
Polarizability Calculation                      ... off
GBWName                                         ... /Users/lailaal-madhagi/Desktop/Testing_XAS_Analysis_code/Benzene//Results_dir_Benzene_geom_element_C_2019-11-05_19-06-04//GTE1_Benzene_geom_2019-11-05_19-06-39//TDDFT_C-edge.gbw
Electron density file                           ... /Users/lailaal-madhagi/Desktop/Testing_XAS_Analysis_code/Benzene//Results_dir_Benzene_geom_element_C_2019-11-05_19-06-04//GTE1_Benzene_geom_2019-11-05_19-06-39//TDDFT_C-edge.scfp.tmp
The origin for moment calculation is the CENTER OF MASS  = (-3.235470,  0.006821 -0.005915)

-------------
DIPOLE MOMENT
-------------
                                X             Y             Z
Electronic contribution:     -0.00022      -0.00002      -0.00000
Nuclear contribution   :      0.00025       0.00002       0.00000
                        -----------------------------------------
Total Dipole Moment    :      0.00003       0.00000       0.00000
                        -----------------------------------------
Magnitude (a.u.)       :      0.00003
Magnitude (Debye)      :      0.00007



--------------------
Rotational spectrum 
--------------------
 
Rotational constants in cm-1:     0.189374     0.189355     0.094682 
Rotational constants in MHz :  5677.294415  5676.730916  2838.506326 

 Dipole components along the rotational axes: 
x,y,z [a.u.] :     0.000003     0.000028    -0.000000 
x,y,z [Debye]:     0.000009     0.000072    -0.000000 

 

Timings for individual modules:

Sum of individual times         ...      116.142 sec (=   1.936 min)
GTO integral calculation        ...        0.341 sec (=   0.006 min)   0.3 %
SCF iterations                  ...       16.893 sec (=   0.282 min)  14.5 %
CIS module                      ...       98.908 sec (=   1.648 min)  85.2 %
                             ****ORCA TERMINATED NORMALLY****
TOTAL RUN TIME: 0 days 0 hours 1 minutes 56 seconds 294 msec
