13
	Energy:     494.4471467
C         -3.75859        0.67700        0.00002
C         -3.58202       -0.78194        0.00033
C         -2.67078        1.45913       -0.00188
C         -2.33904       -1.28199       -0.00128
C         -1.15746       -0.40813       -0.00334
C         -1.31486        0.89237       -0.00363
N         -0.25308        1.56582       -0.00544
N          0.03432       -0.80883       -0.00492
S          1.15783        0.53187       -0.00709
H         -2.79374        2.53803       -0.00213
H         -4.75339        1.11095        0.00129
H         -4.44459       -1.44066        0.00185
H         -2.20109       -2.35907       -0.00105
