
                                 *****************
                                 * O   R   C   A *
                                 *****************

           --- An Ab Initio, DFT and Semiempirical electronic structure package ---

                  #######################################################
                  #                        -***-                        #
                  #          Department of theory and spectroscopy      #
                  #               Directorship: Frank Neese             #
                  #        Max Planck Institute fuer Kohlenforschung    #
                  #                Kaiser Wilhelm Platz 1               #
                  #                 D-45470 Muelheim/Ruhr               #
                  #                      Germany                        #
                  #                                                     #
                  #                  All rights reserved                #
                  #                        -***-                        #
                  #######################################################


                         Program Version 4.1.0  - RELEASE  -


 With contributions from (in alphabetic order):
   Daniel Aravena         : Magnetic Properties
   Michael Atanasov       : Ab Initio Ligand Field Theory
   Alexander A. Auer      : GIAO ZORA
   Ute Becker             : Parallelization
   Giovanni Bistoni       : ED, Open-shell LED
   Martin Brehm           : Molecular dynamics
   Dmytro Bykov           : SCF Hessian
   Vijay G. Chilkuri      : MRCI spin determinant printing
   Dipayan Datta          : RHF DLPNO-CCSD density
   Achintya Kumar Dutta   : EOM-CC, STEOM-CC
   Dmitry Ganyushin       : Spin-Orbit,Spin-Spin,Magnetic field MRCI
   Miquel Garcia          : C-PCM Hessian
   Yang Guo               : DLPNO-NEVPT2, CIM, IAO-localization
   Andreas Hansen         : Spin unrestricted coupled pair/coupled cluster methods
   Benjamin Helmich-Paris : CASSCF linear response (MC-RPA)
   Lee Huntington         : MR-EOM, pCC
   Robert Izsak           : Overlap fitted RIJCOSX, COSX-SCS-MP3, EOM
   Christian Kollmar      : KDIIS, OOCD, Brueckner-CCSD(T), CCSD density
   Simone Kossmann        : Meta GGA functionals, TD-DFT gradient, OOMP2, MP2 Hessian
   Martin Krupicka        : AUTO-CI
   Lucas Lang             : DCDCAS
   Dagmar Lenk            : GEPOL surface, SMD
   Dimitrios Liakos       : Extrapolation schemes; parallel MDCI
   Dimitrios Manganas     : ROCIS; embedding schemes
   Dimitrios Pantazis     : SARC Basis sets
   Taras Petrenko         : DFT Hessian,TD-DFT gradient, ASA, ECA, R-Raman, ABS, FL, XAS/XES, NRVS
   Peter Pinski           : DLPNO-MP2, DLPNO-MP2 Gradient
   Christoph Reimann      : Effective Core Potentials
   Marius Retegan         : Local ZFS, SOC
   Christoph Riplinger    : Optimizer, TS searches, QM/MM, DLPNO-CCSD(T), (RO)-DLPNO pert. Triples
   Tobias Risthaus        : Range-separated hybrids, TD-DFT gradient, RPA, STAB
   Michael Roemelt        : Restricted open shell CIS
   Masaaki Saitow         : Open-shell DLPNO
   Barbara Sandhoefer     : DKH picture change effects
   Avijit Sen             : IP-ROCIS
   Kantharuban Sivalingam : CASSCF convergence, NEVPT2, FIC-MRCI
   Bernardo de Souza      : ESD, SOC TD-DFT
   Georgi Stoychev        : AutoAux, RI-MP2 NMR
   Willem Van den Heuvel  : Paramagnetic NMR
   Boris Wezisla          : Elementary symmetry handling
   Frank Wennmohs         : Technical directorship


 We gratefully acknowledge several colleagues who have allowed us to
 interface, adapt or use parts of their codes:
   Stefan Grimme, W. Hujo, H. Kruse,             : VdW corrections, initial TS optimization,
                  C. Bannwarth                     DFT functionals, gCP, sTDA/sTD-DF
   Ed Valeev                                     : LibInt (2-el integral package), F12 methods
   Garnet Chan, S. Sharma, J. Yang, R. Olivares  : DMRG
   Ulf Ekstrom                                   : XCFun DFT Library
   Mihaly Kallay                                 : mrcc  (arbitrary order and MRCC methods)
   Andreas Klamt, Michael Diedenhofen            : otool_cosmo (COSMO solvation model)
   Jiri Pittner, Ondrej Demel                    : Mk-CCSD
   Frank Weinhold                                : gennbo (NPA and NBO analysis)
   Christopher J. Cramer and Donald G. Truhlar   : smd solvation model
   Lars Goerigk                                  : TD-DFT with DH, B97 family of functionals
   V. Asgeirsson, H. Jonsson                     : NEB implementation
   FAccTs GmbH                                   : IRC, NEB, NEB-TS, Multilevel


 Your calculation uses the libint2 library for the computation of 2-el integrals
 For citations please refer to: http://libint.valeyev.net

 This ORCA versions uses:
   CBLAS   interface :  Fast vector & matrix operations
   LAPACKE interface :  Fast linear algebra routines
   SCALAPACK package :  Parallel linear algebra routines




***************************************
The coordinates will be read from file: /Users/lailaal-madhagi/Desktop/Testing_XAS_Analysis_code/Imidazole/Gas/Imidazole_geom.xyz
***************************************


----- Orbital basis set information -----
Your calculation utilizes the basis: 6-31G*
   H-He, Li-Ne : W. J. Hehre, R. Ditchfield and J.A. Pople, J. Chem. Phys. 56, 2257 (1972).
                 Note: He and Ne are unpublished basis sets taken from the Gaussian program.
                 Note: Li and B from J. D. Dill and J. A. Pople, J. Chem. Phys. 62, 2921 (1975).
   Na - Ar     : M. M. Francl, W. J. Pietro, W. J. Hehre, J. S. Binkley, M. S. Gordon, 
                 D. J. DeFrees and J. A. Pople, J. Chem. Phys. 77, 3654 (1982).
   K - Zn      : V. A. Rassolov, J. A. Pople, M. A. Ratner, and T. L. Windus, J. Chem. Phys. 109, 1223 (1998).

================================================================================
                                        WARNINGS
                       Please study these warnings very carefully!
================================================================================


WARNING: Geometry Optimization
  ===> : Switching off AutoStart
         For restart on a previous wavefunction, please use MOREAD

INFO   : the flag for use of LIBINT has been found!

================================================================================
                                       INPUT FILE
================================================================================
NAME = /Users/lailaal-madhagi/Desktop/Testing_XAS_Analysis_code/Imidazole/Gas//Results_dir_Imidazole_geom_element_N_2019-11-03_16-54-11//GTE1_Imidazole_geom_2019-11-03_16-54-36//opt.inp
|  1> ! B3LYP 6-31G* TIGHTSCF Grid3 FinalGrid5 Opt 
|  2> !NormalPrint 
|  3> %output 
|  4> Print[P_Basis] 2 
|  5> Print[P_MOS] 1 
|  6> end 
|  7> *xyzfile 0 1 /Users/lailaal-madhagi/Desktop/Testing_XAS_Analysis_code/Imidazole/Gas/Imidazole_geom.xyz                           ****END OF INPUT****
================================================================================

                       *****************************
                       * Geometry Optimization Run *
                       *****************************

Geometry optimization settings:
Update method            Update   .... BFGS
Choice of coordinates    CoordSys .... Z-matrix Internals
Initial Hessian          InHess   .... Almoef's Model

Convergence Tolerances:
Energy Change            TolE     ....  5.0000e-06 Eh
Max. Gradient            TolMAXG  ....  3.0000e-04 Eh/bohr
RMS Gradient             TolRMSG  ....  1.0000e-04 Eh/bohr
Max. Displacement        TolMAXD  ....  4.0000e-03 bohr
RMS Displacement         TolRMSD  ....  2.0000e-03 bohr

------------------------------------------------------------------------------
                        ORCA OPTIMIZATION COORDINATE SETUP
------------------------------------------------------------------------------

The optimization will be done in new redundant internal coordinates
Making redundant internal coordinates   ...  (new redundants) done
Evaluating the initial hessian          ...  (Almloef) done
Evaluating the coordinates              ...  done
Calculating the B-matrix                .... done
Calculating the G-matrix                .... done
Diagonalizing the G-matrix              .... done
The first mode is                       ....   17
The number of degrees of freedom        ....   21

    -----------------------------------------------------------------
                    Redundant Internal Coordinates


    -----------------------------------------------------------------
         Definition                    Initial Value    Approx d2E/dq
    -----------------------------------------------------------------
      1. B(C   1,C   0)                  1.3770         0.655320   
      2. B(N   2,C   0)                  1.3419         0.667827   
      3. B(C   3,N   2)                  1.3451         0.659883   
      4. B(N   4,C   3)                  1.3485         0.651875   
      5. B(N   4,C   1)                  1.3477         0.653737   
      6. B(H   5,N   2)                  1.0439         0.382046   
      7. B(H   6,C   0)                  1.0820         0.370865   
      8. B(H   7,C   1)                  1.0817         0.371251   
      9. B(H   8,C   3)                  1.0820         0.370859   
     10. A(C   1,C   0,H   6)          126.9088         0.358027   
     11. A(N   2,C   0,H   6)          124.9700         0.356957   
     12. A(C   1,C   0,N   2)          108.1212         0.441423   
     13. A(N   4,C   1,H   7)          124.4915         0.355730   
     14. A(C   0,C   1,N   4)          109.1203         0.439726   
     15. A(C   0,C   1,H   7)          126.3882         0.358090   
     16. A(C   3,N   2,H   5)          127.1186         0.354900   
     17. A(C   0,N   2,H   5)          127.1102         0.355621   
     18. A(C   0,N   2,C   3)          105.7712         0.439072   
     19. A(N   4,C   3,H   8)          123.8319         0.355494   
     20. A(N   2,C   3,H   8)          123.9598         0.356231   
     21. A(N   2,C   3,N   4)          112.2083         0.437162   
     22. A(C   1,N   4,C   3)          104.7789         0.436426   
     23. D(N   4,C   1,C   0,N   2)     -0.0005         0.029936   
     24. D(H   7,C   1,C   0,N   2)   -179.9999         0.029936   
     25. D(H   7,C   1,C   0,H   6)      0.0006         0.029936   
     26. D(N   4,C   1,C   0,H   6)    180.0000         0.029936   
     27. D(C   3,N   2,C   0,H   6)    179.9997         0.036574   
     28. D(H   5,N   2,C   0,C   1)   -179.9999         0.036574   
     29. D(C   3,N   2,C   0,C   1)      0.0002         0.036574   
     30. D(H   5,N   2,C   0,H   6)     -0.0004         0.036574   
     31. D(H   8,C   3,N   2,H   5)     -0.0001         0.035632   
     32. D(H   8,C   3,N   2,C   0)    179.9997         0.035632   
     33. D(N   4,C   3,N   2,H   5)   -179.9997         0.035632   
     34. D(N   4,C   3,N   2,C   0)      0.0002         0.035632   
     35. D(C   1,N   4,C   3,N   2)     -0.0005         0.031420   
     36. D(C   3,N   4,C   1,H   7)    180.0000         0.031615   
     37. D(C   3,N   4,C   1,C   0)      0.0006         0.031615   
     38. D(C   1,N   4,C   3,H   8)    179.9999         0.031420   
    -----------------------------------------------------------------

Number of atoms                         .... 9
Number of degrees of freedom            .... 38

         *************************************************************
         *                GEOMETRY OPTIMIZATION CYCLE   1            *
         *************************************************************
---------------------------------
CARTESIAN COORDINATES (ANGSTROEM)
---------------------------------
  C    -11.827630    8.373110   -0.108180
  C    -10.457830    8.263980   -0.019230
  N    -12.342690    7.134970   -0.156530
  C    -11.290720    6.298800   -0.096980
  N    -10.118440    6.959760   -0.012060
  H    -13.351210    6.874620   -0.225990
  H    -12.406240    9.286970   -0.135650
  H     -9.751270    9.081110    0.036830
  H    -11.374200    5.220190   -0.115040

----------------------------
CARTESIAN COORDINATES (A.U.)
----------------------------
  NO LB      ZA    FRAG     MASS         X           Y           Z
   0 C     6.0000    0    12.011  -22.350982   15.822885   -0.204431
   1 C     6.0000    0    12.011  -19.762435   15.616659   -0.036339
   2 N     7.0000    0    14.007  -23.324304   13.483139   -0.295799
   3 C     6.0000    0    12.011  -21.336369   11.903007   -0.183266
   4 N     7.0000    0    14.007  -19.121081   13.152040   -0.022790
   5 H     1.0000    0     1.008  -25.230130   12.991149   -0.427059
   6 H     1.0000    0     1.008  -23.444396   17.549830   -0.256341
   7 H     1.0000    0     1.008  -18.427230   17.160811    0.069599
   8 H     1.0000    0     1.008  -21.494123    9.864729   -0.217394

--------------------------------
INTERNAL COORDINATES (ANGSTROEM)
--------------------------------
 C      0   0   0     0.000000000000     0.00000000     0.00000000
 C      1   0   0     1.377016158003     0.00000000     0.00000000
 N      1   2   0     1.341870033088   108.12123931     0.00000000
 C      3   1   2     1.345127262492   105.77118868     0.00000000
 N      2   1   3     1.347674585870   109.12034568     0.00000000
 H      3   1   2     1.043896261369   127.11020211   180.00005136
 H      1   2   3     1.081981623042   126.90880912   180.00049633
 H      2   1   3     1.081698291623   126.38815307   180.00014087
 H      4   3   1     1.081986416782   123.95977827   179.99973252

---------------------------
INTERNAL COORDINATES (A.U.)
---------------------------
 C      0   0   0     0.000000000000     0.00000000     0.00000000
 C      1   0   0     2.602183420609     0.00000000     0.00000000
 N      1   2   0     2.535766869852   108.12123931     0.00000000
 C      3   1   2     2.541922141382   105.77118868     0.00000000
 N      2   1   3     2.546735884940   109.12034568     0.00000000
 H      3   1   2     1.972678046212   127.11020211   180.00005136
 H      1   2   3     2.044648949484   126.90880912   180.00049633
 H      2   1   3     2.044113530698   126.38815307   180.00014087
 H      4   3   1     2.044658008340   123.95977827   179.99973252

---------------------
BASIS SET INFORMATION
---------------------
There are 3 groups of distinct atoms

 Group   1 Type C   : 10s4p1d contracted to 3s2p1d pattern {631/31/1}
 Group   2 Type N   : 10s4p1d contracted to 3s2p1d pattern {631/31/1}
 Group   3 Type H   : 4s contracted to 2s pattern {31}

Atom   0C    basis set group =>   1
Atom   1C    basis set group =>   1
Atom   2N    basis set group =>   2
Atom   3C    basis set group =>   1
Atom   4N    basis set group =>   2
Atom   5H    basis set group =>   3
Atom   6H    basis set group =>   3
Atom   7H    basis set group =>   3
Atom   8H    basis set group =>   3

-------------------------
BASIS SET IN INPUT FORMAT
-------------------------

 # Basis set for element : H 
 NewGTO H 
 S 3 
   1      18.7311370000      0.0334945995
   2       2.8253937000      0.2347269467
   3       0.6401217000      0.8137573184
 S 1 
   1       0.1612778000      1.0000000000
  end;

 # Basis set for element : C 
 NewGTO C 
 S 6 
   1    3047.5249000000      0.0018347002
   2     457.3695100000      0.0140373012
   3     103.9486900000      0.0688426061
   4      29.2101550000      0.2321844206
   5       9.2866630000      0.4679413416
   6       3.1639270000      0.3623120322
 S 3 
   1       7.8682724000     -0.1193324086
   2       1.8812885000     -0.1608542116
   3       0.5442493000      1.1434564826
 P 3 
   1       7.8682724000      0.0689990956
   2       1.8812885000      0.3164239798
   3       0.5442493000      0.7443082524
 S 1 
   1       0.1687144000      1.0000000000
 P 1 
   1       0.1687144000      1.0000000000
 D 1 
   1       0.8000000000      1.0000000000
  end;

 # Basis set for element : N 
 NewGTO N 
 S 6 
   1    4173.5110000000      0.0018347994
   2     627.4579000000      0.0139949958
   3     142.9021000000      0.0685869792
   4      40.2343300000      0.2322409295
   5      12.8202100000      0.4690698576
   6       4.3904370000      0.3604548906
 S 3 
   1      11.6263580000     -0.1149610229
   2       2.7162800000     -0.1691180337
   3       0.7722180000      1.1458522281
 P 3 
   1      11.6263580000      0.0675800232
   2       2.7162800000      0.3239071114
   3       0.7722180000      0.7408952549
 S 1 
   1       0.2120313000      1.0000000000
 P 1 
   1       0.2120313000      1.0000000000
 D 1 
   1       0.8000000000      1.0000000000
  end;

------------------------------------------------------------------------------
                           ORCA GTO INTEGRAL CALCULATION
------------------------------------------------------------------------------

                         BASIS SET STATISTICS AND STARTUP INFO

 # of primitive gaussian shells          ...   91
 # of primitive gaussian functions       ...  151
 # of contracted shells                  ...   38
 # of contracted basis functions         ...   78
 Highest angular momentum                ...    2
 Maximum contraction depth               ...    6
 Integral package used                   ... LIBINT
 Integral threshhold            Thresh   ...  2.500e-11
 Primitive cut-off              TCut     ...  2.500e-12


------------------------------ INTEGRAL EVALUATION ----------------------------


 * One electron integrals 
 Pre-screening matrix                    ... done
 Shell pair data                         ... done (   0.001 sec)

-------------------------------------------------------------------------------
                                 ORCA SCF
-------------------------------------------------------------------------------

------------
SCF SETTINGS
------------
Hamiltonian:
 Density Functional     Method          .... DFT(GTOs)
 Exchange Functional    Exchange        .... B88
   X-Alpha parameter    XAlpha          ....  0.666667
   Becke's b parameter  XBeta           ....  0.004200
 Correlation Functional Correlation     .... LYP
 LDA part of GGA corr.  LDAOpt          .... VWN-5
 Gradients option       PostSCFGGA      .... off
 Hybrid DFT is turned on
   Fraction HF Exchange ScalHFX         ....  0.200000
   Scaling of DF-GGA-X  ScalDFX         ....  0.720000
   Scaling of DF-GGA-C  ScalDFC         ....  0.810000
   Scaling of DF-LDA-C  ScalLDAC        ....  1.000000
   Perturbative correction              ....  0.000000
   Density functional embedding theory  .... OFF
   NL short-range parameter             ....  4.800000


General Settings:
 Integral files         IntName         .... /Users/lailaal-madhagi/Desktop/Testing_XAS_Analysis_code/Imidazole/Gas//Results_dir_Imidazole_geom_element_N_2019-11-03_16-54-11//GTE1_Imidazole_geom_2019-11-03_16-54-36//opt
 Hartree-Fock type      HFTyp           .... RHF
 Total Charge           Charge          ....    0
 Multiplicity           Mult            ....    1
 Number of Electrons    NEL             ....   36
 Basis Dimension        Dim             ....   78
 Nuclear Repulsion      ENuc            ....    163.8820708112 Eh

Convergence Acceleration:
 DIIS                   CNVDIIS         .... on
   Start iteration      DIISMaxIt       ....    12
   Startup error        DIISStart       ....  0.200000
   # of expansion vecs  DIISMaxEq       ....     5
   Bias factor          DIISBfac        ....   1.050
   Max. coefficient     DIISMaxC        ....  10.000
 Newton-Raphson         CNVNR           .... off
 SOSCF                  CNVSOSCF        .... on
   Start iteration      SOSCFMaxIt      ....   150
   Startup grad/error   SOSCFStart      ....  0.003300
 Level Shifting         CNVShift        .... on
   Level shift para.    LevelShift      ....    0.2500
   Turn off err/grad.   ShiftErr        ....    0.0010
 Zerner damping         CNVZerner       .... off
 Static damping         CNVDamp         .... on
   Fraction old density DampFac         ....    0.7000
   Max. Damping (<1)    DampMax         ....    0.9800
   Min. Damping (>=0)   DampMin         ....    0.0000
   Turn off err/grad.   DampErr         ....    0.1000
 Fernandez-Rico         CNVRico         .... off

SCF Procedure:
 Maximum # iterations   MaxIter         ....   125
 SCF integral mode      SCFMode         .... Direct
   Integral package                     .... LIBINT
 Reset frequency        DirectResetFreq ....    20
 Integral Threshold     Thresh          ....  2.500e-11 Eh
 Primitive CutOff       TCut            ....  2.500e-12 Eh

Convergence Tolerance:
 Convergence Check Mode ConvCheckMode   .... Total+1el-Energy
 Convergence forced     ConvForced      .... 0
 Energy Change          TolE            ....  1.000e-08 Eh
 1-El. energy change                    ....  1.000e-05 Eh
 Orbital Gradient       TolG            ....  1.000e-05
 Orbital Rotation angle TolX            ....  1.000e-05
 DIIS Error             TolErr          ....  5.000e-07


Diagonalization of the overlap matrix:
Smallest eigenvalue                        ... 2.022e-03
Time for diagonalization                   ...    0.002 sec
Threshold for overlap eigenvalues          ... 1.000e-08
Number of eigenvalues below threshold      ... 0
Time for construction of square roots      ...    0.001 sec
Total time needed                          ...    0.003 sec

-------------------
DFT GRID GENERATION
-------------------

General Integration Accuracy     IntAcc      ...  4.340
Radial Grid Type                 RadialGrid  ... Gauss-Chebyshev
Angular Grid (max. acc.)         AngularGrid ... Lebedev-194
Angular grid pruning method      GridPruning ... 3 (G Style)
Weight generation scheme         WeightScheme... Becke
Basis function cutoff            BFCut       ...    1.0000e-11
Integration weight cutoff        WCut        ...    1.0000e-14
Grids for H and He will be reduced by one unit

# of grid points (after initial pruning)     ...  22610 (   0.0 sec)
# of grid points (after weights+screening)   ...  21432 (   0.0 sec)
nearest neighbour list constructed           ...    0.0 sec
Grid point re-assignment to atoms done       ...    0.0 sec
Grid point division into batches done        ...    0.0 sec
Reduced shell lists constructed in    0.1 sec

Total number of grid points                  ...    21432
Total number of batches                      ...      339
Average number of points per batch           ...       63
Average number of grid points per atom       ...     2381
Average number of shells per batch           ...    30.40 (80.01%)
Average number of basis functions per batch  ...    64.99 (83.31%)
Average number of large shells per batch     ...    26.10 (85.85%)
Average number of large basis fcns per batch ...    56.16 (86.42%)
Maximum spatial batch extension              ...  18.02, 18.43, 21.55 au
Average spatial batch extension              ...   3.28,  3.18,  3.97 au

Time for grid setup =    0.143 sec

------------------------------
INITIAL GUESS: MODEL POTENTIAL
------------------------------
Loading Hartree-Fock densities                     ... done
Calculating cut-offs                               ... done
Setting up the integral package                    ... done
Initializing the effective Hamiltonian             ... done
Starting the Coulomb interaction                   ... done (   0.0 sec)
Reading the grid                                   ... done
Mapping shells                                     ... done
Starting the XC term evaluation                    ... done (   0.1 sec)
  promolecular density results
     # of electrons  =     35.998291630
     EX              =    -29.781029962
     EC              =     -1.218974781
     EX+EC           =    -31.000004744
Transforming the Hamiltonian                       ... done (   0.0 sec)
Diagonalizing the Hamiltonian                      ... done (   0.0 sec)
Back transforming the eigenvectors                 ... done (   0.0 sec)
Now organizing SCF variables                       ... done
                      ------------------
                      INITIAL GUESS DONE (   0.4 sec)
                      ------------------
--------------
SCF ITERATIONS
--------------
               ***  Starting incremental Fock matrix formation  ***

                         ----------------------------
                         !        ITERATION     0   !
                         ----------------------------
   Total Energy        :    -225.921041762675 Eh
   Energy Change       :    -225.921041762675 Eh
   MAX-DP              :       0.085192212906
   RMS-DP              :       0.003896721774
   Actual Damping      :       0.7000
   Actual Level Shift  :       0.2500 Eh
   Int. Num. El.       :    35.99986340 (UP=   17.99993170 DN=   17.99993170)
   Exchange            :   -24.39060841
   Correlation         :    -1.45665803


                         ----------------------------
                         !        ITERATION     1   !
                         ----------------------------
   Total Energy        :    -225.991318530549 Eh
   Energy Change       :      -0.070276767874 Eh
   MAX-DP              :       0.056193865939
   RMS-DP              :       0.002771398518
   Actual Damping      :       0.7000
   Actual Level Shift  :       0.2500 Eh
   Int. Num. El.       :    35.99985549 (UP=   17.99992775 DN=   17.99992775)
   Exchange            :   -24.21327105
   Correlation         :    -1.44951354

                               ***Turning on DIIS***

                         ----------------------------
                         !        ITERATION     2   !
                         ----------------------------
   Total Energy        :    -226.018394382596 Eh
   Energy Change       :      -0.027075852048 Eh
   MAX-DP              :       0.076902523220
   RMS-DP              :       0.004273881338
   Actual Damping      :       0.0000
   Actual Level Shift  :       0.2500 Eh
   Int. Num. El.       :    35.99985692 (UP=   17.99992846 DN=   17.99992846)
   Exchange            :   -24.09691035
   Correlation         :    -1.44456390
   DIIS-Error          :       0.040914349614


                         ----------------------------
                         !        ITERATION     3   !
                         ----------------------------
   Total Energy        :    -226.059227556871 Eh
   Energy Change       :      -0.040833174275 Eh
   MAX-DP              :       0.038132493581
   RMS-DP              :       0.002013485983
   Actual Damping      :       0.0000
   Actual Level Shift  :       0.2500 Eh
   Int. Num. El.       :    35.99987695 (UP=   17.99993848 DN=   17.99993848)
   Exchange            :   -23.92675277
   Correlation         :    -1.43691213
   DIIS-Error          :       0.049607352472
   DIIS coefficients:
      0.59967   0.40033


                         ----------------------------
                         !        ITERATION     4   !
                         ----------------------------
   Total Energy        :    -226.069682992216 Eh
   Energy Change       :      -0.010455435345 Eh
   MAX-DP              :       0.009296473180
   RMS-DP              :       0.000611687412
   Actual Damping      :       0.0000
   Actual Level Shift  :       0.2500 Eh
   Int. Num. El.       :    35.99988131 (UP=   17.99994066 DN=   17.99994066)
   Exchange            :   -23.99808625
   Correlation         :    -1.44009850
   DIIS-Error          :       0.014598189012
   DIIS coefficients:
      0.24277   0.04669   0.71054


                         ----------------------------
                         !        ITERATION     5   !
                         ----------------------------
   Total Energy        :    -226.070359322057 Eh
   Energy Change       :      -0.000676329841 Eh
   MAX-DP              :       0.003086200852
   RMS-DP              :       0.000197521011
   Actual Damping      :       0.0000
   Actual Level Shift  :       0.2500 Eh
   Int. Num. El.       :    35.99987683 (UP=   17.99993841 DN=   17.99993841)
   Exchange            :   -24.01474509
   Correlation         :    -1.44096341
   DIIS-Error          :       0.003648904595
   DIIS coefficients:
      0.06978  -0.01027   0.22072   0.71978

                      *** Initiating the SOSCF procedure ***
                           *** Shutting down DIIS ***
                      *** Re-Reading the Fockian *** 
                      *** Removing any level shift *** 

                         ----------------------------
                         !        ITERATION     6   !
                         ----------------------------
   Total Energy        :    -226.070408985789 Eh
   Energy Change       :      -0.000049663732 Eh
   MAX-DP              :       0.002485598594
   RMS-DP              :       0.000103973036
   Orbital gradient    :       0.000499017775
   Orbital Rotation    :       0.000499017775
   Actual Damping      :       0.0000
   Int. Num. El.       :    35.99987656 (UP=   17.99993828 DN=   17.99993828)
   Exchange            :   -24.01820495
   Correlation         :    -1.44110070

               *** Restarting incremental Fock matrix formation ***

                         ----------------------------
                         !        ITERATION     7   !
                         ----------------------------
   Total Energy        :    -226.070411291066 Eh
   Energy Change       :      -0.000002305277 Eh
   MAX-DP              :       0.001262278850
   RMS-DP              :       0.000043153607
   Orbital gradient    :       0.000309639911
   Orbital Rotation    :       0.000777891696
   Actual Damping      :       0.0000
   Int. Num. El.       :    35.99987639 (UP=   17.99993820 DN=   17.99993820)
   Exchange            :   -24.01895187
   Correlation         :    -1.44112518


                         ----------------------------
                         !        ITERATION     8   !
                         ----------------------------
   Total Energy        :    -226.070409774003 Eh
   Energy Change       :       0.000001517063 Eh
   MAX-DP              :       0.000837262373
   RMS-DP              :       0.000026807688
   Orbital gradient    :       0.000488259921
   Orbital Rotation    :       0.000565207227
   Actual Damping      :       0.0000
   Int. Num. El.       :    35.99987666 (UP=   17.99993833 DN=   17.99993833)
   Exchange            :   -24.01814754
   Correlation         :    -1.44110304


                         ----------------------------
                         !        ITERATION     9   !
                         ----------------------------
   Total Energy        :    -226.070412339858 Eh
   Energy Change       :      -0.000002565855 Eh
   MAX-DP              :       0.000120805665
   RMS-DP              :       0.000004639842
   Orbital gradient    :       0.000026481285
   Orbital Rotation    :       0.000092741972
   Actual Damping      :       0.0000
   Int. Num. El.       :    35.99987655 (UP=   17.99993828 DN=   17.99993828)
   Exchange            :   -24.01863636
   Correlation         :    -1.44111692


                         ----------------------------
                         !        ITERATION    10   !
                         ----------------------------
   Total Energy        :    -226.070412322237 Eh
   Energy Change       :       0.000000017621 Eh
   MAX-DP              :       0.000072657073
   RMS-DP              :       0.000002874452
   Orbital gradient    :       0.000040862354
   Orbital Rotation    :       0.000053764460
   Actual Damping      :       0.0000
   Int. Num. El.       :    35.99987654 (UP=   17.99993827 DN=   17.99993827)
   Exchange            :   -24.01865345
   Correlation         :    -1.44111704


                         ----------------------------
                         !        ITERATION    11   !
                         ----------------------------
   Total Energy        :    -226.070412350512 Eh
   Energy Change       :      -0.000000028275 Eh
   MAX-DP              :       0.000015852108
   RMS-DP              :       0.000000750987
   Orbital gradient    :       0.000004267369
   Orbital Rotation    :       0.000014497360
   Actual Damping      :       0.0000
   Int. Num. El.       :    35.99987655 (UP=   17.99993827 DN=   17.99993827)
   Exchange            :   -24.01863633
   Correlation         :    -1.44111665


                         ----------------------------
                         !        ITERATION    12   !
                         ----------------------------
   Total Energy        :    -226.070412350345 Eh
   Energy Change       :       0.000000000167 Eh
   MAX-DP              :       0.000010850898
   RMS-DP              :       0.000000462627
   Orbital gradient    :       0.000007877101
   Orbital Rotation    :       0.000009062072
   Actual Damping      :       0.0000
   Int. Num. El.       :    35.99987655 (UP=   17.99993827 DN=   17.99993827)
   Exchange            :   -24.01864190
   Correlation         :    -1.44111698

                  ***Gradient check signals convergence***
              ***Rediagonalizing the Fockian in SOSCF/NRSCF***

               *****************************************************
               *                     SUCCESS                       *
               *           SCF CONVERGED AFTER  13 CYCLES          *
               *****************************************************

Setting up the final grid:

General Integration Accuracy     IntAcc      ...  5.010
Radial Grid Type                 RadialGrid  ... Gauss-Chebyshev
Angular Grid (max. acc.)         AngularGrid ... Lebedev-434
Angular grid pruning method      GridPruning ... 3 (G Style)
Weight generation scheme         WeightScheme... Becke
Basis function cutoff            BFCut       ...    1.0000e-11
Integration weight cutoff        WCut        ...    1.0000e-14
Grids for H and He will be reduced by one unit

# of grid points (after initial pruning)     ...  80042 (   0.0 sec)
# of grid points (after weights+screening)   ...  75344 (   0.1 sec)
nearest neighbour list constructed           ...    0.0 sec
Grid point re-assignment to atoms done       ...    0.0 sec
Grid point division into batches done        ...    0.4 sec
Reduced shell lists constructed in    0.6 sec

Total number of grid points                  ...    75344
Total number of batches                      ...     1182
Average number of points per batch           ...       63
Average number of grid points per atom       ...     8372
Average number of shells per batch           ...    28.27 (74.38%)
Average number of basis functions per batch  ...    60.37 (77.39%)
Average number of large shells per batch     ...    23.84 (84.34%)
Average number of large basis fcns per batch ...    51.27 (84.93%)
Maximum spatial batch extension              ...  20.17, 17.61, 16.91 au
Average spatial batch extension              ...   2.27,  2.24,  2.45 au

Final grid set up in    0.7 sec
Final integration                            ... done (   0.4 sec)
Change in XC energy                          ...    -0.000092571
Integrated number of electrons               ...    35.999996511
Previous integrated no of electrons          ...    35.999876548

----------------
TOTAL SCF ENERGY
----------------

Total Energy       :         -226.07050492 Eh           -6151.69118 eV

Components:
Nuclear Repulsion  :          163.88207081 Eh            4459.45786 eV
Electronic Energy  :         -389.95257573 Eh          -10611.14905 eV
One Electron Energy:         -629.47178003 Eh          -17128.79795 eV
Two Electron Energy:          239.51920429 Eh            6517.64890 eV

Virial components:
Potential Energy   :         -450.86385373 Eh          -12268.62919 eV
Kinetic Energy     :          224.79334881 Eh            6116.93800 eV
Virial Ratio       :            2.00568147


DFT components:
N(Alpha)           :       17.999998255268 electrons
N(Beta)            :       17.999998255268 electrons
N(Total)           :       35.999996510537 electrons
E(X)               :      -24.018728003920 Eh       
E(C)               :       -1.441121748147 Eh       
E(XC)              :      -25.459849752067 Eh       
DFET-embed. en.    :        0.000000000000 Eh       

---------------
SCF CONVERGENCE
---------------

  Last Energy change         ...   -4.3391e-10  Tolerance :   1.0000e-08
  Last MAX-Density change    ...    1.7324e-06  Tolerance :   1.0000e-07
  Last RMS-Density change    ...    8.8392e-08  Tolerance :   5.0000e-09
  Last Orbital Gradient      ...    4.9080e-07  Tolerance :   1.0000e-05
  Last Orbital Rotation      ...    1.1894e-06  Tolerance :   1.0000e-05

             **** THE GBW FILE WAS UPDATED (/Users/lailaal-madhagi/Desktop/Testing_XAS_Analysis_code/Imidazole/Gas//Results_dir_Imidazole_geom_element_N_2019-11-03_16-54-11//GTE1_Imidazole_geom_2019-11-03_16-54-36//opt.gbw) ****
             **** DENSITY FILE WAS UPDATED (/Users/lailaal-madhagi/Desktop/Testing_XAS_Analysis_code/Imidazole/Gas//Results_dir_Imidazole_geom_element_N_2019-11-03_16-54-11//GTE1_Imidazole_geom_2019-11-03_16-54-36//opt.scfp.tmp) ****
             **** ENERGY FILE WAS UPDATED (/Users/lailaal-madhagi/Desktop/Testing_XAS_Analysis_code/Imidazole/Gas//Results_dir_Imidazole_geom_element_N_2019-11-03_16-54-11//GTE1_Imidazole_geom_2019-11-03_16-54-36//opt.en.tmp) ****
----------------
ORBITAL ENERGIES
----------------

  NO   OCC          E(Eh)            E(eV) 
   0   2.0000     -14.391310      -391.6075 
   1   2.0000     -14.298650      -389.0860 
   2   2.0000     -10.223016      -278.1824 
   3   2.0000     -10.195847      -277.4431 
   4   2.0000     -10.178578      -276.9732 
   5   2.0000      -1.015431       -27.6313 
   6   2.0000      -0.864593       -23.5268 
   7   2.0000      -0.730815       -19.8865 
   8   2.0000      -0.612955       -16.6793 
   9   2.0000      -0.582864       -15.8605 
  10   2.0000      -0.555150       -15.1064 
  11   2.0000      -0.438529       -11.9330 
  12   2.0000      -0.428177       -11.6513 
  13   2.0000      -0.422335       -11.4923 
  14   2.0000      -0.398540       -10.8448 
  15   2.0000      -0.277818        -7.5598 
  16   2.0000      -0.254290        -6.9196 
  17   2.0000      -0.214462        -5.8358 
  18   0.0000       0.038955         1.0600 
  19   0.0000       0.060641         1.6501 
  20   0.0000       0.082550         2.2463 
  21   0.0000       0.136724         3.7205 
  22   0.0000       0.161402         4.3920 
  23   0.0000       0.174493         4.7482 
  24   0.0000       0.243185         6.6174 
  25   0.0000       0.246540         6.7087 
  26   0.0000       0.312003         8.4900 
  27   0.0000       0.352843         9.6013 
  28   0.0000       0.466969        12.7069 
  29   0.0000       0.536001        14.5853 
  30   0.0000       0.545312        14.8387 
  31   0.0000       0.572377        15.5752 
  32   0.0000       0.592793        16.1307 
  33   0.0000       0.623864        16.9762 
  34   0.0000       0.636475        17.3194 
  35   0.0000       0.648639        17.6504 
  36   0.0000       0.666804        18.1446 
  37   0.0000       0.679307        18.4849 
  38   0.0000       0.759310        20.6619 
  39   0.0000       0.807126        21.9630 
  40   0.0000       0.819557        22.3013 
  41   0.0000       0.833292        22.6750 
  42   0.0000       0.846969        23.0472 
  43   0.0000       0.857740        23.3403 
  44   0.0000       0.914376        24.8814 
  45   0.0000       0.920827        25.0570 
  46   0.0000       1.014082        27.5946 
  47   0.0000       1.041051        28.3284 
  48   0.0000       1.193014        32.4636 
  49   0.0000       1.265467        34.4351 
  50   0.0000       1.304014        35.4840 
  51   0.0000       1.325827        36.0776 
  52   0.0000       1.369720        37.2720 
  53   0.0000       1.395881        37.9839 
  54   0.0000       1.491067        40.5740 
  55   0.0000       1.559731        42.4424 
  56   0.0000       1.578505        42.9533 
  57   0.0000       1.584252        43.1097 
  58   0.0000       1.718643        46.7666 
  59   0.0000       1.904979        51.8371 
  60   0.0000       2.012581        54.7651 
  61   0.0000       2.045012        55.6476 
  62   0.0000       2.082587        56.6701 
  63   0.0000       2.123422        57.7813 
  64   0.0000       2.228614        60.6437 
  65   0.0000       2.250806        61.2475 
  66   0.0000       2.302026        62.6413 
  67   0.0000       2.315780        63.0156 
  68   0.0000       2.359305        64.2000 
  69   0.0000       2.421107        65.8817 
  70   0.0000       2.573422        70.0264 
  71   0.0000       2.612379        71.0864 
  72   0.0000       2.614630        71.1477 
  73   0.0000       2.692956        73.2790 
  74   0.0000       2.755124        74.9707 
  75   0.0000       2.976182        80.9860 
  76   0.0000       3.006485        81.8106 
  77   0.0000       3.074400        83.6587 
------------------
MOLECULAR ORBITALS
------------------
                      0         1         2         3         4         5   
                 -14.39131 -14.29865 -10.22302 -10.19585 -10.17858  -1.01543
                   2.00000   2.00000   2.00000   2.00000   2.00000   2.00000
                  --------  --------  --------  --------  --------  --------
  0C   1s         0.000073  0.000058 -0.000038  0.994877 -0.015808 -0.082083
  0C   2s        -0.000806  0.000313  0.000284  0.036092 -0.002041  0.154948
  0C   1pz        0.000012 -0.000029  0.000029 -0.000036 -0.000104 -0.001162
  0C   1px        0.000135 -0.000415  0.000393 -0.000162 -0.001551  0.000564
  0C   1py        0.000267 -0.000167  0.000295 -0.002137 -0.000147 -0.102751
  0C   3s         0.014609 -0.007543 -0.004330 -0.018149  0.009000  0.035427
  0C   2pz        0.000051 -0.000123 -0.000128 -0.000186  0.000236 -0.000087
  0C   2px        0.002407 -0.002772 -0.002721 -0.002456  0.003536 -0.005055
  0C   2py       -0.009231  0.005150  0.004438 -0.002053  0.000308  0.020552
  0C   1dz2       0.000234  0.000033  0.000270 -0.001072  0.000699 -0.011252
  0C   1dxz       0.000004 -0.000015 -0.000017  0.000101 -0.000152  0.000766
  0C   1dyz      -0.000060 -0.000002 -0.000003  0.000044  0.000013  0.000477
  0C   1dx2y2     0.000593 -0.000161  0.000203 -0.000384 -0.001118 -0.008336
  0C   1dxy      -0.000737 -0.000054  0.000078  0.000267  0.000211  0.002313
  1C   1s         0.000059  0.000085  0.000033  0.015772  0.994897 -0.058509
  1C   2s         0.000349 -0.000806  0.000246 -0.000817  0.035975  0.107467
  1C   1pz        0.000021 -0.000006 -0.000019  0.000092 -0.000056 -0.003111
  1C   1px        0.000356 -0.000153 -0.000333  0.001467 -0.000584 -0.036618
  1C   1py       -0.000241  0.000317  0.000216 -0.000391 -0.001428 -0.060083
  1C   3s        -0.007494  0.014997  0.000504  0.006054 -0.021281  0.051920
  1C   2pz        0.000287 -0.000352  0.000058 -0.000135  0.000235 -0.000709
  1C   2px        0.003577 -0.003725  0.000579 -0.002365  0.003742 -0.009908
  1C   2py        0.004449 -0.009137  0.001672  0.001748 -0.001013 -0.004571
  1C   1dz2       0.000033  0.000277  0.000185  0.000649 -0.000995 -0.008472
  1C   1dxz      -0.000012  0.000031 -0.000014 -0.000143  0.000097  0.000818
  1C   1dyz       0.000009  0.000026 -0.000014  0.000007  0.000011  0.000411
  1C   1dx2y2    -0.000141  0.000842  0.000138 -0.001056 -0.000225 -0.002870
  1C   1dxy       0.000124  0.000630 -0.000127  0.000114 -0.000171  0.003117
  2N   1s         0.995292  0.000105 -0.000135  0.000134  0.000044 -0.154531
  2N   2s         0.033590 -0.000309 -0.000599  0.000543  0.000449  0.318425
  2N   1pz        0.000068 -0.000010  0.000025 -0.000022  0.000007  0.005154
  2N   1px        0.000981 -0.000189  0.000531 -0.000184  0.000101  0.075573
  2N   1py        0.000273  0.000242 -0.000824 -0.000883  0.000029  0.015174
  2N   3s        -0.031531  0.000350  0.005997 -0.005944 -0.004948  0.324070
  2N   2pz       -0.000562 -0.000041  0.000455 -0.000404 -0.000192  0.002749
  2N   2px       -0.008050 -0.000825  0.006717 -0.005665 -0.002990  0.040212
  2N   2py       -0.002713  0.001151  0.001109 -0.002639  0.000404  0.009077
  2N   1dz2      -0.000005 -0.000178 -0.001235  0.001269 -0.000029 -0.014058
  2N   1dxz      -0.000004  0.000015  0.000148 -0.000091  0.000008  0.002054
  2N   1dyz      -0.000004  0.000021 -0.000069 -0.000106  0.000010  0.000388
  2N   1dx2y2    -0.000056 -0.000127  0.000338  0.001006  0.000036  0.006265
  2N   1dxy      -0.000077  0.000248 -0.001367 -0.001043  0.000153  0.002672
  3C   1s         0.000104  0.000123 -0.994956 -0.000216 -0.000118 -0.096930
  3C   2s        -0.000578 -0.000562 -0.035307 -0.000433 -0.000515  0.187505
  3C   1pz        0.000006 -0.000015  0.000018 -0.000006 -0.000005 -0.000790
  3C   1px        0.000112 -0.000213  0.000604 -0.000104 -0.000088 -0.030181
  3C   1py       -0.000127 -0.000095 -0.001907  0.000078  0.000029  0.102724
  3C   3s         0.010793  0.011229  0.010893  0.007372  0.006176  0.029709
  3C   2pz       -0.000061  0.000290 -0.000067  0.000188  0.000061 -0.000519
  3C   2px       -0.002064  0.003300 -0.000353  0.001502 -0.000213 -0.002605
  3C   2py        0.006444  0.006260 -0.003782  0.007617  0.006443 -0.030325
  3C   1dz2       0.000282  0.000339  0.001273 -0.000383 -0.000330 -0.013359
  3C   1dxz      -0.000044 -0.000093 -0.000156  0.000034  0.000029  0.001348
  3C   1dyz       0.000056 -0.000053 -0.000009  0.000009  0.000007 -0.000022
  3C   1dx2y2    -0.000333 -0.000678 -0.000193 -0.000150 -0.000130 -0.001898
  3C   1dxy       0.000885 -0.000813  0.000215 -0.000006 -0.000023 -0.004797
  4N   1s        -0.000124  0.995365 -0.000092  0.000044  0.000105 -0.077523
  4N   2s        -0.000235  0.033417 -0.000403  0.000457  0.000402  0.154450
  4N   1pz        0.000016 -0.000156 -0.000062  0.000002  0.000008 -0.005042
  4N   1px        0.000205 -0.002550 -0.000845  0.000029  0.000282 -0.080957
  4N   1py        0.000205  0.001066 -0.000586 -0.000007 -0.000900  0.025024
  4N   3s         0.000099 -0.031802  0.004008 -0.005125 -0.004098  0.148908
  4N   2pz        0.000070  0.000536 -0.000200  0.000171  0.000135 -0.002501
  4N   2px        0.000889  0.008921 -0.003150  0.002490  0.002369 -0.039705
  4N   2py        0.000999 -0.004423  0.000621  0.000574 -0.001818  0.009679
  4N   1dz2      -0.000129  0.000121 -0.001086 -0.000022  0.001176 -0.007542
  4N   1dxz      -0.000002 -0.000025  0.000188 -0.000001 -0.000057  0.001146
  4N   1dyz      -0.000005  0.000021  0.000074 -0.000007  0.000013  0.000001
  4N   1dx2y2    -0.000224 -0.000230  0.000793 -0.000038  0.001039  0.004516
  4N   1dxy      -0.000154  0.000312  0.000928 -0.000125  0.000747 -0.001502
  5H   1s        -0.000797 -0.000198  0.000772 -0.000637 -0.000197  0.063454
  5H   2s         0.001285  0.000068  0.001649 -0.001537 -0.000516  0.001950
  6H   1s         0.000019 -0.000296 -0.000234 -0.001404 -0.000307  0.017964
  6H   2s         0.002338 -0.001609 -0.002056  0.004646 -0.000286 -0.009552
  7H   1s        -0.000294 -0.000001 -0.000115 -0.000376 -0.001462  0.011423
  7H   2s        -0.001561  0.002435 -0.000945 -0.000500  0.004000  0.000283
  8H   1s        -0.000110 -0.000129  0.001418  0.000323  0.000264  0.022168
  8H   2s         0.001518  0.001594 -0.005366  0.002808  0.002309 -0.011786
                      6         7         8         9        10        11   
                  -0.86459  -0.73081  -0.61295  -0.58286  -0.55515  -0.43853
                   2.00000   2.00000   2.00000   2.00000   2.00000   2.00000
                  --------  --------  --------  --------  --------  --------
  0C   1s         0.024088 -0.141911  0.063471 -0.030076 -0.070081  0.020733
  0C   2s        -0.049868  0.282266 -0.125930  0.066872  0.140031 -0.033552
  0C   1pz        0.006420  0.002595 -0.003468 -0.015140 -0.000823 -0.014915
  0C   1px        0.088087  0.041622 -0.058908 -0.212677 -0.053888 -0.183727
  0C   1py        0.052955 -0.012337  0.035258 -0.097025  0.234457 -0.240397
  0C   3s        -0.001303  0.178437 -0.112170  0.008828  0.137153 -0.071217
  0C   2pz        0.000527 -0.000035 -0.001024 -0.004520 -0.001802 -0.004406
  0C   2px        0.012116 -0.005269 -0.015539 -0.069411 -0.040091 -0.058060
  0C   2py       -0.023305  0.025996 -0.000333  0.004216  0.071021 -0.051376
  0C   1dz2       0.002688 -0.010501  0.004660 -0.003541 -0.001919 -0.001229
  0C   1dxz       0.000161  0.001384  0.000265 -0.000181  0.000715 -0.000236
  0C   1dyz      -0.000836 -0.000004  0.000449  0.000591 -0.000399  0.001514
  0C   1dx2y2     0.008921  0.003187  0.010287 -0.009952  0.008368 -0.009435
  0C   1dxy      -0.010295 -0.002738  0.010085  0.006137 -0.005139  0.020922
  1C   1s        -0.086685 -0.102369 -0.043028  0.118278 -0.000562 -0.019420
  1C   2s         0.168079  0.201146  0.088817 -0.239159 -0.002600  0.038296
  1C   1pz        0.000287 -0.005172  0.009943 -0.002822 -0.000719  0.018412
  1C   1px        0.024146 -0.084777  0.163899 -0.020788 -0.036526  0.266508
  1C   1py       -0.112233  0.034653 -0.073504 -0.123517  0.144388  0.073404
  1C   3s         0.061791  0.159806  0.089867 -0.183773  0.027927  0.087910
  1C   2pz        0.000856 -0.001058  0.001857 -0.002708 -0.000922  0.005353
  1C   2px        0.009175 -0.016701  0.030322 -0.031642 -0.020319  0.082355
  1C   2py        0.022263  0.005858 -0.010947 -0.057113  0.038517 -0.001873
  1C   1dz2      -0.009728 -0.007306 -0.003784  0.005103  0.001081 -0.002275
  1C   1dxz       0.000177  0.001478 -0.000366 -0.000973  0.000179  0.000272
  1C   1dyz       0.000273  0.000147 -0.000166 -0.000477 -0.000270  0.000597
  1C   1dx2y2    -0.013966  0.009366 -0.011118 -0.004697  0.005084 -0.001306
  1C   1dxy      -0.001323  0.001607 -0.005646 -0.006447 -0.002908  0.008099
  2N   1s         0.121450  0.021577 -0.045701 -0.001349  0.031780 -0.012965
  2N   2s        -0.261688 -0.049756  0.098559  0.004052 -0.077515  0.040007
  2N   1pz        0.002982  0.002179 -0.025048 -0.000735 -0.013918  0.010437
  2N   1px        0.047623 -0.006846 -0.373167 -0.064647 -0.208179  0.105930
  2N   1py       -0.013257  0.225712 -0.040096  0.302111 -0.017451  0.298417
  2N   3s        -0.279189 -0.045072  0.147149  0.005951 -0.080124  0.020954
  2N   2pz        0.001830  0.001573 -0.011807 -0.000440 -0.005698  0.003562
  2N   2px        0.028803  0.007199 -0.174860 -0.030974 -0.085758  0.026806
  2N   2py       -0.006747  0.094544 -0.021519  0.138696 -0.002402  0.154989
  2N   1dz2       0.006980  0.000481 -0.004146  0.000115 -0.001925  0.003753
  2N   1dxz      -0.000907 -0.000364  0.001213 -0.000097 -0.000217 -0.001469
  2N   1dyz      -0.000398  0.000804  0.000372  0.000256 -0.000062 -0.000110
  2N   1dx2y2    -0.000936 -0.006646  0.010097 -0.001889 -0.006142 -0.015144
  2N   1dxy      -0.004056  0.011205  0.006139  0.003606 -0.002620 -0.003152
  3C   1s        -0.033580  0.118863  0.082658  0.030239 -0.067178 -0.017519
  3C   2s         0.065358 -0.243624 -0.171283 -0.061993  0.135203  0.031363
  3C   1pz        0.011004  0.001424  0.002353  0.016759  0.005134 -0.003837
  3C   1px        0.161796  0.020647  0.041601  0.245880  0.120705 -0.017447
  3C   1py        0.029729  0.005723 -0.032614  0.048441 -0.241648 -0.229730
  3C   3s         0.028997 -0.158041 -0.135246 -0.023011  0.159029  0.096146
  3C   2pz        0.000360  0.000659  0.000618  0.004427 -0.000054 -0.001158
  3C   2px        0.005540  0.006477  0.008199  0.061004  0.011665 -0.009054
  3C   2py       -0.000384  0.019651  0.005338  0.033769 -0.070609 -0.047181
  3C   1dz2      -0.003987  0.009086  0.006057  0.001720 -0.001682 -0.001103
  3C   1dxz       0.000607 -0.001460  0.000289  0.000109  0.000382 -0.001112
  3C   1dyz       0.001532 -0.000091  0.000310  0.000768  0.000826 -0.000017
  3C   1dx2y2    -0.001614 -0.006378  0.013304  0.002387  0.000729 -0.018051
  3C   1dxy       0.021730  0.000265  0.008892  0.012591  0.012165 -0.003733
  4N   1s        -0.150464  0.033383 -0.066702 -0.063308 -0.007167  0.004352
  4N   2s         0.314792 -0.072712  0.150197  0.146969  0.015028 -0.006719
  4N   1pz       -0.005936  0.004808  0.006329 -0.006037 -0.002377  0.009978
  4N   1px       -0.100662  0.054129  0.072457 -0.069763 -0.006781  0.145135
  4N   1py        0.059629  0.106777  0.133867 -0.124064 -0.165487  0.037093
  4N   3s         0.303761 -0.080384  0.157949  0.114437  0.031459 -0.053694
  4N   2pz       -0.002348  0.001617  0.002334 -0.000707 -0.000428  0.005433
  4N   2px       -0.040627  0.019148  0.028848 -0.002642  0.003201  0.082737
  4N   2py        0.028146  0.029879  0.038141 -0.044067 -0.056030 -0.002131
  4N   1dz2      -0.007850 -0.000002  0.001480  0.001719  0.001793  0.002574
  4N   1dxz       0.000747 -0.000657 -0.001017  0.000377 -0.000131 -0.001145
  4N   1dyz       0.000015 -0.000638 -0.000099  0.000288  0.000842  0.000744
  4N   1dx2y2    -0.001892 -0.007959 -0.012265  0.007544 -0.001198 -0.014550
  4N   1dxy      -0.002502 -0.011102 -0.003203  0.006250  0.013089  0.009502
  5H   1s        -0.093745 -0.037632  0.230645 -0.005379  0.081325 -0.113484
  5H   2s        -0.006240 -0.005817  0.091704 -0.003300  0.048638 -0.094029
  6H   1s        -0.013374  0.086596 -0.028948  0.040736  0.171122 -0.090839
  6H   2s         0.005160  0.015252 -0.008544  0.011540  0.091469 -0.080089
  7H   1s         0.028138  0.058814  0.055396 -0.146294  0.037548  0.156157
  7H   2s        -0.006322  0.014255  0.023969 -0.058389  0.023474  0.123217
  8H   1s         0.007578 -0.084552 -0.059511 -0.056122  0.169353  0.162569
  8H   2s        -0.000546 -0.018715 -0.020777 -0.024758  0.090553  0.135105
                     12        13        14        15        16        17   
                  -0.42818  -0.42233  -0.39854  -0.27782  -0.25429  -0.21446
                   2.00000   2.00000   2.00000   2.00000   2.00000   2.00000
                  --------  --------  --------  --------  --------  --------
  0C   1s        -0.000001  0.009554 -0.028658  0.000006  0.031180 -0.000001
  0C   2s         0.000007 -0.012615  0.060123  0.000005 -0.070632 -0.000019
  0C   1pz       -0.221656  0.016768  0.003923 -0.063438 -0.010180 -0.377723
  0C   1px        0.014629  0.293845  0.066365  0.004155 -0.159286  0.024859
  0C   1py        0.002572 -0.223744 -0.038134  0.000748  0.025298  0.004404
  0C   3s         0.000112 -0.077852  0.114369 -0.000267 -0.179514  0.000242
  0C   2pz       -0.104121  0.005433  0.001245 -0.036767 -0.007361 -0.302525
  0C   2px        0.006950  0.089604  0.024788  0.002312 -0.105168  0.020047
  0C   2py        0.001093 -0.038003 -0.032342  0.000439 -0.038191  0.003281
  0C   1dz2       0.000315  0.004190 -0.000009  0.002215 -0.002274 -0.001250
  0C   1dxz      -0.000445  0.000720  0.000220  0.017205  0.000157 -0.010584
  0C   1dyz       0.018173  0.000837 -0.000687  0.011853 -0.000415 -0.001595
  0C   1dx2y2     0.000239  0.015201  0.005032 -0.001006 -0.000295  0.000681
  0C   1dxy      -0.001196  0.016669 -0.009557 -0.000982 -0.007023  0.000225
  1C   1s         0.000004 -0.037593 -0.004906 -0.000008 -0.024766  0.000008
  1C   2s         0.000002  0.076958  0.020309  0.000006  0.062741 -0.000020
  1C   1pz       -0.161060 -0.014717 -0.013404  0.265898  0.007807 -0.291699
  1C   1px        0.010568 -0.241209 -0.143636 -0.017461  0.140222  0.019204
  1C   1py        0.001865  0.099983 -0.337101 -0.003075 -0.121215  0.003329
  1C   3s        -0.000166  0.089786 -0.004514  0.000192  0.054711 -0.000279
  1C   2pz       -0.080344 -0.005391 -0.001883  0.185260 -0.000982 -0.204476
  1C   2px        0.005388 -0.087105 -0.011044 -0.012436 -0.015501  0.013627
  1C   2py        0.001112  0.026968 -0.104454 -0.002297  0.003338  0.002763
  1C   1dz2       0.001098  0.000585  0.001711  0.000200 -0.002912  0.001625
  1C   1dxz       0.007753  0.000808 -0.000378  0.004990 -0.000545  0.015738
  1C   1dyz       0.010124  0.000801 -0.001445 -0.018060  0.001623 -0.009192
  1C   1dx2y2    -0.000393  0.010724  0.001026 -0.000538 -0.016947 -0.001144
  1C   1dxy      -0.000755  0.014236 -0.021188  0.001131  0.020705  0.000423
  2N   1s         0.000005  0.002758  0.021039  0.000007  0.023864  0.000002
  2N   2s         0.000013 -0.016955 -0.048069 -0.000007 -0.057495  0.000005
  2N   1pz       -0.397769 -0.010476 -0.003359 -0.379836 -0.004739  0.073055
  2N   1px        0.026224 -0.183840 -0.053898  0.025046 -0.084058 -0.004808
  2N   1py        0.004627  0.138470  0.017728  0.004425  0.065864 -0.000846
  2N   3s        -0.000169  0.034364 -0.123956 -0.000057 -0.169619 -0.000153
  2N   2pz       -0.255734 -0.003269 -0.002101 -0.309483 -0.001671  0.067825
  2N   2px        0.016763 -0.063616 -0.032404  0.020357 -0.039446 -0.004500
  2N   2py        0.003000  0.078619  0.003764  0.003643  0.078439 -0.000866
  2N   1dz2      -0.001401 -0.003458 -0.001448  0.000373 -0.002777 -0.000009
  2N   1dxz      -0.011808  0.001410 -0.000312  0.003747  0.000649  0.004366
  2N   1dyz      -0.002444  0.000988  0.000412 -0.002825 -0.000376 -0.025100
  2N   1dx2y2     0.000753  0.012467 -0.008002 -0.000283  0.005976 -0.000580
  2N   1dxy       0.000305  0.016125  0.004405  0.000144 -0.005514  0.001599
  3C   1s        -0.000002  0.000294  0.010428 -0.000003 -0.040232 -0.000001
  3C   2s         0.000012 -0.005214 -0.031792  0.000015  0.103333 -0.000006
  3C   1pz       -0.247997  0.012260 -0.013348  0.070042  0.008620  0.355686
  3C   1px        0.016341  0.204412 -0.154508 -0.004619  0.121470 -0.023443
  3C   1py        0.002920 -0.104859 -0.271659 -0.000793  0.054048 -0.004152
  3C   3s         0.000068 -0.004646 -0.032697  0.000099  0.092372  0.000025
  3C   2pz       -0.119542  0.004028 -0.007040  0.067135 -0.002061  0.274101
  3C   2px        0.007832  0.065772 -0.094136 -0.004403 -0.035763 -0.017978
  3C   2py        0.001427 -0.027750 -0.070547 -0.000796  0.027025 -0.003133
  3C   1dz2       0.000356  0.000170 -0.001533  0.003316  0.000197  0.000089
  3C   1dxz       0.006266 -0.000272 -0.001275  0.028565 -0.001199  0.000424
  3C   1dyz      -0.017684  0.000804  0.000599  0.002137  0.001448  0.002024
  3C   1dx2y2    -0.000618 -0.005802 -0.022760 -0.001866 -0.021018 -0.000006
  3C   1dxy       0.001086  0.011204  0.004624 -0.000477  0.018340 -0.000136
  4N   1s        -0.000001  0.032715  0.003775  0.000007  0.083138 -0.000001
  4N   2s        -0.000013 -0.075281 -0.010811  0.000005 -0.174378 -0.000015
  4N   1pz       -0.191489 -0.009538  0.009690  0.407190 -0.028479  0.146280
  4N   1px        0.012591 -0.117545  0.093586 -0.026846 -0.470751 -0.009649
  4N   1py        0.002213 -0.155676  0.303081 -0.004730  0.220150 -0.001675
  4N   3s         0.000135 -0.108662  0.008113 -0.000157 -0.308024  0.000195
  4N   2pz       -0.101272 -0.004299  0.002508  0.271697 -0.019850  0.104371
  4N   2px        0.006635 -0.055535  0.019171 -0.017843 -0.328584 -0.006905
  4N   2py        0.001218 -0.055537  0.108075 -0.003162  0.155588 -0.001088
  4N   1dz2       0.001855 -0.003020 -0.001427 -0.002147 -0.016213 -0.001747
  4N   1dxz       0.017177  0.000786 -0.000935 -0.021247  0.002670 -0.012741
  4N   1dyz      -0.005538 -0.000061 -0.001014  0.014194 -0.000759 -0.014033
  4N   1dx2y2    -0.001200  0.006787 -0.013404  0.001570  0.014734  0.000677
  4N   1dxy       0.000159 -0.000657 -0.018152 -0.000682 -0.013891  0.001067
  5H   1s        -0.000017  0.107952  0.007173 -0.000023  0.036584 -0.000005
  5H   2s         0.000036  0.092644  0.012251  0.000058  0.066440  0.000030
  6H   1s        -0.000007 -0.235680 -0.004874  0.000010  0.054338  0.000012
  6H   2s         0.000050 -0.213597 -0.008105  0.000032  0.103952  0.000097
  7H   1s        -0.000021 -0.001004 -0.219869  0.000035  0.070510 -0.000040
  7H   2s        -0.000077 -0.003133 -0.206741  0.000112  0.086236 -0.000148
  8H   1s        -0.000014  0.056949  0.180128 -0.000005  0.045257  0.000009
  8H   2s        -0.000004  0.053185  0.176372 -0.000028  0.045797  0.000040
                     18        19        20        21        22        23   
                   0.03895   0.06064   0.08255   0.13672   0.16140   0.17449
                   0.00000   0.00000   0.00000   0.00000   0.00000   0.00000
                  --------  --------  --------  --------  --------  --------
  0C   1s         0.000004  0.000040 -0.000006  0.073823 -0.066370 -0.048526
  0C   2s        -0.000013 -0.006555  0.000041 -0.104264  0.126145  0.102906
  0C   1pz        0.308370 -0.000350 -0.298025  0.009235 -0.007252 -0.000172
  0C   1px       -0.020261 -0.028934  0.019573  0.161048 -0.145768  0.002876
  0C   1py       -0.003644  0.119602  0.003553 -0.115280  0.201043 -0.033790
  0C   3s         0.000015  0.264171 -0.000095 -0.998806  1.025328  0.171839
  0C   2pz        0.447658  0.005337 -0.488536  0.035234 -0.019716 -0.000473
  0C   2px       -0.029399  0.057117  0.032002  0.601690 -0.460769 -0.088528
  0C   2py       -0.005194  0.100513  0.005681 -0.374797  0.912502  0.462097
  0C   1dz2       0.000778 -0.000643  0.003280 -0.007283  0.003583  0.007818
  0C   1dxz       0.003911  0.000715  0.028743 -0.000139 -0.000529 -0.000657
  0C   1dyz       0.016173  0.000779 -0.000796 -0.000053 -0.000051 -0.001180
  0C   1dx2y2    -0.000069  0.007493 -0.001911 -0.013774 -0.001868  0.006161
  0C   1dxy      -0.001120  0.012754 -0.000272 -0.005488 -0.000049 -0.014454
  1C   1s         0.000002 -0.021322 -0.000025  0.035150  0.037566  0.093290
  1C   2s        -0.000014  0.052508  0.000079 -0.030835 -0.064386 -0.173438
  1C   1pz       -0.109405 -0.000232  0.431650 -0.007761  0.002424 -0.015890
  1C   1px        0.007176 -0.001459 -0.028363 -0.104347  0.029562 -0.201804
  1C   1py        0.001268  0.005263 -0.004949 -0.080715  0.038709 -0.220055
  1C   3s         0.000189  0.030198  0.000342 -0.806231 -0.094591 -1.246996
  1C   2pz       -0.161672  0.003586  0.659856 -0.012216 -0.003485 -0.063574
  1C   2px        0.010944  0.042507 -0.043832 -0.182755 -0.012200 -0.779084
  1C   2py        0.001660  0.099711 -0.008114 -0.019662 -0.229041 -1.056761
  1C   1dz2      -0.002303  0.002888  0.001342 -0.002445 -0.005952 -0.007676
  1C   1dxz      -0.022769 -0.000826  0.008290  0.000056 -0.000170  0.000904
  1C   1dyz       0.015308 -0.000562  0.019649  0.000726 -0.000124  0.000302
  1C   1dx2y2     0.001676 -0.005821 -0.000324 -0.005005 -0.011812  0.000064
  1C   1dxy      -0.000742 -0.008651 -0.001400  0.009334 -0.005799  0.002290
  2N   1s         0.000036 -0.085878 -0.000025 -0.060107  0.001084  0.022653
  2N   2s        -0.000061  0.163975  0.000074  0.124936 -0.005617 -0.084316
  2N   1pz       -0.369090 -0.020049  0.045033 -0.000640  0.000555 -0.006299
  2N   1px        0.024420 -0.289384 -0.003088 -0.007840  0.020044 -0.088667
  2N   1py        0.004305 -0.064012 -0.000562 -0.007949 -0.061814 -0.036358
  2N   3s        -0.000572  1.065008  0.000227  0.733007  0.038792  0.074815
  2N   2pz       -0.504269 -0.047797  0.077227 -0.012334  0.004188 -0.001077
  2N   2px        0.033244 -0.694358 -0.005485 -0.177423  0.085709 -0.031657
  2N   2py        0.006077 -0.165411 -0.001017 -0.057755 -0.126445  0.084934
  2N   1dz2       0.002691  0.003082  0.000025 -0.003159 -0.001095 -0.006904
  2N   1dxz       0.023431 -0.001097  0.005309  0.001855 -0.000189  0.000057
  2N   1dyz       0.000233 -0.000400 -0.029124  0.000897  0.000230  0.000994
  2N   1dx2y2    -0.001549 -0.010070 -0.000697  0.019705 -0.005203 -0.013027
  2N   1dxy      -0.000282 -0.007010  0.001851  0.016174  0.002243  0.010651
  3C   1s        -0.000007 -0.003631 -0.000005  0.088786  0.068997 -0.018572
  3C   2s        -0.000000  0.008853  0.000050 -0.137185 -0.118927  0.031303
  3C   1pz        0.413516  0.001446  0.178669  0.005710  0.002992 -0.006036
  3C   1px       -0.027270  0.038929 -0.011765  0.064226  0.001144 -0.068263
  3C   1py       -0.004795 -0.103138 -0.002147  0.125686  0.248018 -0.133526
  3C   3s         0.000174  0.248917  0.000174 -1.084536 -1.191642  0.410734
  3C   2pz        0.552582  0.005087  0.264054  0.021520  0.001198 -0.024728
  3C   2px       -0.036562  0.088280 -0.017454  0.246670 -0.129196 -0.285918
  3C   2py       -0.006105 -0.065431 -0.003123  0.450755  0.832842 -0.505658
  3C   1dz2      -0.000256 -0.001231 -0.003314 -0.010140 -0.004451  0.000298
  3C   1dxz       0.000947  0.000991 -0.027362  0.000537  0.000808  0.000182
  3C   1dyz      -0.017822  0.000055 -0.008905 -0.000117  0.000447  0.001074
  3C   1dx2y2    -0.000274  0.012113  0.001715 -0.008331  0.003389  0.000304
  3C   1dxy       0.001155  0.002735  0.000905 -0.006353  0.006046  0.016444
  4N   1s         0.000014 -0.003932  0.000005 -0.015949 -0.028283 -0.018867
  4N   2s        -0.000012  0.019061  0.000015  0.027875  0.078533  0.049053
  4N   1pz       -0.247625 -0.004997 -0.383877 -0.001524 -0.005711 -0.000436
  4N   1px        0.016346 -0.081946  0.025260 -0.021959 -0.089050 -0.014638
  4N   1py        0.002874  0.027387  0.004464 -0.003050  0.014176  0.044266
  4N   3s        -0.000355 -0.002921 -0.000280  0.159428  0.094651  0.059015
  4N   2pz       -0.292658 -0.004343 -0.508987  0.002923 -0.007909  0.003250
  4N   2px        0.019340 -0.083194  0.033591  0.036871 -0.088735  0.048947
  4N   2py        0.003145  0.084797  0.005791  0.046018 -0.175956  0.004018
  4N   1dz2      -0.001059 -0.001298  0.001198 -0.003707  0.000588  0.001619
  4N   1dxz      -0.005454 -0.000272  0.008736  0.000379  0.000833  0.000220
  4N   1dyz      -0.021675 -0.000000  0.009519 -0.000723 -0.000005 -0.000523
  4N   1dx2y2     0.000118 -0.006003 -0.000471  0.001414  0.013205  0.007217
  4N   1dxy       0.001496 -0.001297 -0.000717 -0.011905  0.002428 -0.006124
  5H   1s         0.000028 -0.156528 -0.000087 -0.012666 -0.006276  0.008303
  5H   2s         0.000500 -1.615786 -0.000695 -0.482832  0.028847 -0.080723
  6H   1s        -0.000007 -0.016805  0.000012  0.080580 -0.042291 -0.025474
  6H   2s         0.000153 -0.291072 -0.000166  1.354637 -1.692859 -0.513997
  7H   1s        -0.000001 -0.032944  0.000051  0.029090  0.027862  0.074053
  7H   2s        -0.000047 -0.214563  0.000185  0.639646  0.227905  2.169744
  8H   1s         0.000011 -0.007386 -0.000003  0.089718  0.044323 -0.017103
  8H   2s         0.000191 -0.261544 -0.000227  1.234706  1.598124 -0.799738
                     24        25        26        27        28        29   
                   0.24319   0.24654   0.31200   0.35284   0.46697   0.53600
                   0.00000   0.00000   0.00000   0.00000   0.00000   0.00000
                  --------  --------  --------  --------  --------  --------
  0C   1s        -0.056945 -0.019242 -0.049332  0.058931  0.092694  0.006451
  0C   2s         0.067327 -0.003548  0.171847  0.001817  0.056840 -0.408114
  0C   1pz        0.003048 -0.011632 -0.006179 -0.009210  0.001081 -0.031623
  0C   1px        0.051128 -0.130587 -0.069516 -0.152361 -0.013341 -0.478245
  0C   1py       -0.017174 -0.260394 -0.141783  0.054023  0.197823 -0.174403
  0C   3s         1.405135  0.689573  0.832604 -2.663513 -2.874901  0.044929
  0C   2pz        0.007719 -0.077117  0.052114 -0.158450  0.008837  0.031262
  0C   2px        0.136968 -0.902325  0.816344 -2.526400 -0.339693  0.442828
  0C   2py       -0.118735 -1.516984 -0.138597  0.701471  2.649157  0.325827
  0C   1dz2       0.007511  0.004247 -0.007637  0.004005 -0.035777  0.055711
  0C   1dxz      -0.001851  0.001384 -0.000291  0.000631  0.004568 -0.007431
  0C   1dyz      -0.002146 -0.001286 -0.000433 -0.000955 -0.000330  0.001343
  0C   1dx2y2    -0.009239  0.030751 -0.015618  0.018363  0.009970 -0.023571
  0C   1dxy      -0.031949 -0.012794 -0.011757 -0.010046 -0.014369  0.034494
  1C   1s        -0.017476 -0.054625  0.010857 -0.063446 -0.102029 -0.035397
  1C   2s         0.016755  0.066834  0.128012  0.079966  0.108320 -0.347760
  1C   1pz        0.006686 -0.007310  0.010664 -0.012054 -0.009904  0.018373
  1C   1px        0.142024 -0.106609  0.172528 -0.170811 -0.112923  0.297257
  1C   1py       -0.222379 -0.008774 -0.064327 -0.060345 -0.189448 -0.276674
  1C   3s         0.323558  1.162031 -1.239205  2.343699  2.871284  0.774749
  1C   2pz        0.032678 -0.004023  0.054145 -0.167374 -0.065232 -0.047841
  1C   2px        0.707901 -0.071798  0.725553 -2.555858 -0.532850 -0.681850
  1C   2py       -1.202101  0.048557  0.548797  0.073279 -2.607082 -0.084077
  1C   1dz2       0.004857  0.009967 -0.002300 -0.010761  0.015195  0.074629
  1C   1dxz       0.001338 -0.000478  0.000754  0.000289 -0.001823 -0.012240
  1C   1dyz       0.000338  0.001694  0.001130  0.000595  0.000517 -0.002100
  1C   1dx2y2     0.026405  0.004674  0.004489 -0.014549 -0.003772 -0.050877
  1C   1dxy       0.011440  0.029726  0.017169  0.002945  0.011920 -0.017583
  2N   1s        -0.011260  0.062115 -0.053897 -0.043684 -0.047144  0.011950
  2N   2s         0.010851 -0.065270  0.084340  0.026072  0.086977 -0.078238
  2N   1pz        0.000711 -0.010053  0.010032  0.007402  0.003601  0.003501
  2N   1px        0.054719 -0.116285  0.170885  0.150786  0.004352  0.036915
  2N   1py       -0.245515 -0.209813 -0.096982 -0.217996  0.283798  0.060491
  2N   3s         0.332632 -1.771460  1.357347  1.638096  1.701652 -0.358414
  2N   2pz       -0.005420 -0.051497  0.073141  0.075345  0.064117 -0.034401
  2N   2px        0.063215 -0.632088  1.195651  1.230956  0.709267 -0.501508
  2N   2py       -0.825755 -0.842920 -0.490083 -0.494276  1.503415 -0.143364
  2N   1dz2       0.005131  0.011122 -0.023202 -0.023950 -0.032178  0.050560
  2N   1dxz       0.000675 -0.003294  0.001092  0.002293  0.003237 -0.009977
  2N   1dyz       0.001380  0.000361  0.004110 -0.001756 -0.001507  0.001655
  2N   1dx2y2     0.014740 -0.031013 -0.032675 -0.000844 -0.000822 -0.069810
  2N   1dxy       0.025175  0.003349  0.049527 -0.034373 -0.032729  0.027709
  3C   1s         0.010760  0.047097  0.096193  0.033488  0.020267 -0.001617
  3C   2s        -0.040985 -0.134030 -0.005309  0.043714  0.039657 -0.544481
  3C   1pz        0.016291 -0.008713  0.006653 -0.008105 -0.020891  0.002206
  3C   1px        0.254259 -0.130780  0.151902 -0.108497 -0.315079  0.039741
  3C   1py       -0.033664 -0.004307 -0.294787 -0.085468  0.002130 -0.160412
  3C   3s        -0.059226 -0.560877 -2.833569 -0.975241 -0.669937  1.361842
  3C   2pz        0.089546 -0.048794 -0.050712  0.101972 -0.076046  0.013288
  3C   2px        1.324922 -0.785656 -0.384279  1.707840 -1.075033  0.082176
  3C   2py        0.194345  0.251794 -2.173980 -0.899063 -0.465722  0.813582
  3C   1dz2      -0.002640 -0.005859 -0.019326 -0.014614 -0.012073  0.030718
  3C   1dxz       0.000101  0.002889  0.002695  0.001820  0.002333 -0.000953
  3C   1dyz      -0.001697  0.000694 -0.000174 -0.000292  0.001506 -0.001391
  3C   1dx2y2     0.001537  0.031006  0.008460  0.003720  0.010610  0.039887
  3C   1dxy      -0.026296  0.014063 -0.007016 -0.008171  0.020924 -0.004878
  4N   1s         0.106894 -0.015525 -0.075027 -0.003577  0.034198  0.042211
  4N   2s        -0.135652  0.020851  0.051070  0.047830 -0.050679 -0.114397
  4N   1pz        0.001251 -0.008649 -0.012066  0.002901 -0.013223 -0.004573
  4N   1px        0.033658 -0.087159 -0.165127  0.026833 -0.139193 -0.073755
  4N   1py       -0.086081 -0.255556 -0.100566  0.105926 -0.353295  0.010310
  4N   3s        -2.256142  0.300033  2.336127 -0.318700 -1.188641 -0.923212
  4N   2pz        0.029015 -0.021707 -0.087004  0.027264 -0.029910  0.034504
  4N   2px        0.506417 -0.214170 -1.307751  0.327115 -0.156627  0.570934
  4N   2py       -0.371822 -0.649142 -0.075017  0.483137 -1.670223 -0.317672
  4N   1dz2       0.006130  0.007689 -0.043060  0.000192  0.012439  0.039401
  4N   1dxz      -0.001391 -0.000774  0.004129 -0.002220 -0.001219 -0.008310
  4N   1dyz       0.000469 -0.000578  0.001478 -0.002142 -0.001262 -0.000817
  4N   1dx2y2    -0.011716  0.002557 -0.013264 -0.026664  0.005491 -0.054095
  4N   1dxy       0.006929 -0.005809  0.006872 -0.037013 -0.014239 -0.010700
  5H   1s         0.078265 -0.119908  0.006409 -0.019566 -0.021114 -0.140149
  5H   2s        -0.106176 -0.486897  0.536534  0.481742  0.443885 -0.044511
  6H   1s         0.084344 -0.020079  0.065690 -0.013694  0.220176 -0.197169
  6H   2s        -0.245201  0.548377  0.171091 -0.899760 -1.040274  0.026308
  7H   1s        -0.003233  0.071023  0.064425  0.019604 -0.112449 -0.266682
  7H   2s         0.257429 -0.213960 -0.438809  0.737056  0.911083  0.265008
  8H   1s        -0.024073 -0.068437  0.052675  0.055641  0.002613 -0.271614
  8H   2s         0.206329  0.394672 -0.968424 -0.336286 -0.226216  0.336466
                     30        31        32        33        34        35   
                   0.54531   0.57238   0.59279   0.62386   0.63648   0.64864
                   0.00000   0.00000   0.00000   0.00000   0.00000   0.00000
                  --------  --------  --------  --------  --------  --------
  0C   1s         0.000007 -0.023179  0.000059  0.070869  0.000324 -0.020659
  0C   2s         0.001203  0.397341 -0.000307  0.354380  0.000761  0.167898
  0C   1pz        0.600776 -0.034662 -0.576467 -0.015145 -0.586927  0.027277
  0C   1px       -0.037945 -0.457215  0.037759 -0.256404  0.035707  0.420378
  0C   1py       -0.006292 -0.404978  0.006636 -0.069261  0.004440  0.236884
  0C   3s        -0.000227 -0.417485 -0.001152 -1.355811 -0.005662  0.391327
  0C   2pz       -0.569739  0.041380  0.685477 -0.035673  0.995423  0.001651
  0C   2px        0.036105  0.604070 -0.046002 -0.560558 -0.068515  0.069694
  0C   2py        0.005520  0.158590 -0.006560  0.459027 -0.004778 -0.721484
  0C   1dz2       0.002026 -0.009355 -0.003230 -0.095656  0.002547  0.000714
  0C   1dxz       0.022998  0.000513 -0.033870  0.011371  0.021013 -0.004394
  0C   1dyz      -0.021218 -0.004375  0.032580 -0.000181  0.026604  0.000467
  0C   1dx2y2    -0.001682  0.003836  0.002600  0.011917 -0.000457 -0.065958
  0C   1dxy       0.001027 -0.068765 -0.001678 -0.028484 -0.002101 -0.006674
  1C   1s         0.000063 -0.006199 -0.000025 -0.025216 -0.000341  0.051376
  1C   2s         0.000843  0.005709  0.000278  0.314237 -0.001228  0.420612
  1C   1pz        0.465992  0.005937 -0.378071 -0.025014  0.832510  0.026659
  1C   1px       -0.031805  0.074459  0.025025 -0.383492 -0.059413  0.391103
  1C   1py       -0.005141  0.092750  0.004768  0.222837 -0.007676 -0.345955
  1C   3s        -0.001296 -0.297529  0.000610  0.504754  0.008399 -1.183050
  1C   2pz       -0.375288 -0.016036  0.342772 -0.040710 -1.274120  0.001967
  1C   2px        0.027698 -0.240196 -0.024629 -0.611786  0.085143  0.001847
  1C   2py        0.005299 -0.029973 -0.005714 -0.368532  0.011851  0.801114
  1C   1dz2      -0.003663  0.001842  0.005161 -0.017132 -0.000316 -0.075277
  1C   1dxz      -0.028982 -0.000767  0.041321 -0.000780  0.000571  0.011306
  1C   1dyz      -0.007405  0.005021  0.020364  0.001567 -0.033339  0.003041
  1C   1dx2y2     0.002053 -0.021268 -0.002579 -0.042487 -0.000705  0.035222
  1C   1dxy       0.000870  0.072891 -0.001879  0.009962  0.002075  0.032354
  2N   1s        -0.000068  0.070050 -0.000040 -0.022549 -0.000097  0.007997
  2N   2s         0.000387 -0.215027  0.000023  0.069340  0.000595 -0.111244
  2N   1pz        0.186995 -0.008818  0.055653 -0.000114 -0.230246 -0.006967
  2N   1px       -0.012396 -0.137704 -0.003609 -0.047934  0.015253 -0.127430
  2N   1py       -0.002339  0.030875 -0.000416  0.222190  0.001866  0.249365
  2N   3s         0.000920  0.349333  0.000345  0.118668  0.004317 -0.350503
  2N   2pz        0.060915 -0.013202 -0.007329  0.018915  0.122714 -0.011685
  2N   2px       -0.002534 -0.177725  0.000745  0.343681 -0.004075 -0.154132
  2N   2py        0.000140 -0.160451 -0.000230 -0.321548 -0.001372 -0.214257
  2N   1dz2       0.005493 -0.135864  0.002000  0.023096 -0.006285  0.035450
  2N   1dxz       0.047290  0.017616  0.023102 -0.003165 -0.046848 -0.003294
  2N   1dyz       0.010096  0.004740 -0.038187  0.004080 -0.028839 -0.003691
  2N   1dx2y2    -0.002817  0.024085 -0.002039 -0.021153  0.002469  0.022864
  2N   1dxy      -0.001342  0.034623  0.002306  0.063440  0.002775 -0.038681
  3C   1s         0.000009 -0.030672 -0.000013 -0.037121 -0.000048 -0.030963
  3C   2s         0.001661  0.206530 -0.001083 -0.390841  0.002044 -0.453325
  3C   1pz        0.668154 -0.027268  0.759625  0.035339 -0.006502 -0.023120
  3C   1px       -0.044065 -0.448376 -0.049361  0.551005  0.003820 -0.342397
  3C   1py       -0.007153  0.133810 -0.008965 -0.040895  0.000677 -0.042074
  3C   3s        -0.003914 -0.062554  0.001958  0.654186 -0.003727  0.633428
  3C   2pz       -0.745311  0.035564 -1.016033 -0.014318 -0.019635  0.022359
  3C   2px        0.048411  0.529362  0.066859 -0.249152 -0.000245  0.308450
  3C   2py        0.006015  0.143793  0.011761  0.121184 -0.001786  0.186268
  3C   1dz2      -0.000130  0.010169  0.001247  0.067966  0.001196  0.070489
  3C   1dxz      -0.003260 -0.003614  0.001703 -0.009083  0.012958 -0.006578
  3C   1dyz       0.017874  0.003473  0.047504 -0.003106 -0.008597 -0.001273
  3C   1dx2y2     0.000358 -0.045564  0.000480 -0.013965 -0.001009  0.020281
  3C   1dxy      -0.001141  0.047497 -0.003188 -0.028395  0.000341  0.006878
  4N   1s        -0.000089 -0.005650  0.000035  0.022982  0.000124 -0.008480
  4N   2s         0.000220 -0.048955 -0.000047 -0.126620 -0.000693  0.023809
  4N   1pz        0.102618  0.006570  0.047608  0.015317  0.141753  0.010123
  4N   1px       -0.006667  0.104106 -0.003058  0.191534 -0.009467  0.123161
  4N   1py       -0.001527 -0.026749 -0.000202  0.266419 -0.001251  0.103136
  4N   3s         0.002875 -0.068006 -0.001310 -0.223487 -0.000961  0.343443
  4N   2pz        0.133755  0.002865  0.065678  0.016314  0.068657 -0.014519
  4N   2px       -0.010617  0.015589 -0.003560  0.252577 -0.003561 -0.215694
  4N   2py       -0.000798  0.144392 -0.000857  0.001441  0.000081 -0.065042
  4N   1dz2      -0.004032  0.009605 -0.004382 -0.002700 -0.003058 -0.012543
  4N   1dxz      -0.035162  0.000026 -0.034158  0.002392 -0.033945 -0.003518
  4N   1dyz       0.007268 -0.003372 -0.025402  0.001606  0.043570 -0.001966
  4N   1dx2y2     0.002540  0.025254  0.001936  0.024284  0.003209 -0.063183
  4N   1dxy      -0.000039 -0.043583  0.002119  0.029622 -0.002126 -0.048680
  5H   1s         0.000078  0.605315 -0.000402 -0.095667  0.000060 -0.075176
  5H   2s         0.000373 -0.547649  0.000373  0.156894  0.001720 -0.045711
  6H   1s         0.000540  0.211361  0.000020  0.488864  0.000813  0.084856
  6H   2s        -0.000006  0.087059 -0.000827 -0.489395 -0.003548  0.218076
  7H   1s         0.000407  0.164027  0.000046  0.096257 -0.002621  0.476246
  7H   2s        -0.001372 -0.101624  0.001566  0.306259  0.000722 -0.392916
  8H   1s         0.000686  0.077742 -0.000561 -0.299681  0.000437 -0.362720
  8H   2s        -0.001053  0.086368 -0.000214  0.070712 -0.000592  0.219244
                     36        37        38        39        40        41   
                   0.66680   0.67931   0.75931   0.80713   0.81956   0.83329
                   0.00000   0.00000   0.00000   0.00000   0.00000   0.00000
                  --------  --------  --------  --------  --------  --------
  0C   1s        -0.023170  0.022357  0.000050  0.033439  0.020602  0.008438
  0C   2s         0.360987 -0.275010  0.000279  0.038805  0.092252 -0.072056
  0C   1pz       -0.001960  0.001548 -0.249177  0.011057  0.019336  0.027742
  0C   1px        0.016343  0.004814  0.016544  0.259302  0.314533  0.519520
  0C   1py       -0.304136  0.146099  0.002311 -0.555334 -0.128896 -0.559772
  0C   3s        -0.733976 -0.675984 -0.000149 -0.368508  0.154463 -2.633287
  0C   2pz       -0.007309 -0.035015  0.828043 -0.021790 -0.069586 -0.129803
  0C   2px       -0.224994 -0.544016 -0.054460 -0.695630 -1.091611 -2.502290
[...]
 0 C  dxy             3.7       0.0       0.3       0.0       0.2       0.5
 1 C  s               0.2       0.5       7.9       0.0       0.7       3.8
 1 C  pz              0.0       0.1       0.0       1.2       0.0       0.0
 1 C  px              0.5       0.0       0.1       0.0       2.2       1.6
 1 C  py              0.8       0.1       1.0       0.0       0.7       1.7
 1 C  dz2             0.3       0.0       0.4       0.3       5.6      12.2
 1 C  dxz             0.0       0.5       0.1      13.5       0.1       0.1
 1 C  dyz             0.0       8.8       0.7      21.7       0.0       0.0
 1 C  dx2y2           0.0       0.0       0.0       0.0       0.8       0.0
 1 C  dxy             4.7       0.2       0.6       0.1       3.4       4.3
 2 N  s              22.6       0.2       3.5       0.0       2.9       5.6
 2 N  pz              0.0       0.3       0.0       0.3       0.0       0.0
 2 N  px              2.5       0.1       0.7       0.0       9.1       6.1
 2 N  py              0.8       0.0       0.2       0.0       0.4       0.0
 2 N  dz2             3.4       0.0       0.9       0.2      22.0       3.2
 2 N  dxz             0.0      10.0       0.5      12.8       0.3       0.1
 2 N  dyz             0.0       4.5       0.4       0.4       0.0       0.0
 2 N  dx2y2           6.1       0.0       0.1       0.1       0.2       0.2
 2 N  dxy             1.9       0.2       0.8       0.0       0.1       0.5
 3 C  s               2.1       0.1       1.1       0.0       1.7       1.9
 3 C  pz              0.0       0.3       0.0       1.1       0.0       0.0
 3 C  px              0.2       0.0       0.1       0.0       0.4       0.3
 3 C  py              5.8       0.0       0.2       0.0       0.8       0.7
 3 C  dz2             1.2       0.1       0.0       0.0       4.2      14.9
 3 C  dxz             0.0       7.7       0.5       0.0       0.0       0.3
 3 C  dyz             0.0       8.1       0.4      24.7       0.0       0.0
 3 C  dx2y2           3.2       0.1       0.2       0.0       3.9       2.3
 3 C  dxy             0.1       0.0       1.2       0.1       0.0       1.9
 4 N  s              13.5       2.6      39.5       0.0       0.1       2.0
 4 N  pz              0.0       1.3       0.1       0.0       0.0       0.0
 4 N  px              0.3       0.0       0.3       0.0       1.2       0.0
 4 N  py              1.4       0.0       0.1       0.0       0.1       0.4
 4 N  dz2             1.1       2.9      17.5       0.0       3.3       3.4
 4 N  dxz             0.0      28.2       3.9       0.3       0.1       0.0
 4 N  dyz             0.0       3.9       0.3      10.8       0.0       0.1
 4 N  dx2y2           2.3       0.5       1.6       0.0       4.1      10.2
 4 N  dxy             1.3       0.1       1.2       0.1       6.6       5.9
 5 H  s               0.1       0.0       0.2       0.0       6.5       0.2
 6 H  s               4.3       0.2       2.4       0.0       0.0       0.2
 7 H  s               2.7       0.0       0.0       0.0       5.1       0.5
 8 H  s               8.2       0.0       0.3       0.0       1.4       0.0

                     60        61        62        63        64        65   
                   1.99103   2.03381   2.08068   2.11095   2.21232   2.24941
                   0.00000   0.00000   0.00000   0.00000   0.00000   0.00000
                  --------  --------  --------  --------  --------  --------
 0 C  s               0.6       0.0       3.1       2.0       0.0       0.0
 0 C  pz              0.0       0.0       0.0       0.0       0.4       0.3
 0 C  px              0.8       1.6       0.3       2.3       0.0       0.0
 0 C  py              1.1       1.0       1.9       0.3       0.0       0.0
 0 C  dz2             0.7       0.0       3.7       5.1       0.1       0.4
 0 C  dxz             0.0       0.1       0.1       0.0       3.2      28.8
 0 C  dyz             0.2       0.0       0.0       0.0      10.0       2.4
 0 C  dx2y2           0.1      34.7       1.0       0.9       0.0       0.1
 0 C  dxy            35.2       0.1       0.4       0.1       0.1       0.0
 1 C  s               0.1       1.1       0.2       0.3       0.0       0.0
 1 C  pz              0.0       0.0       0.0       0.0       0.5       0.8
 1 C  px              0.2       2.6       0.5       0.8       0.0       0.0
 1 C  py              1.1       0.4       1.0       0.4       0.0       0.0
 1 C  dz2             0.2       0.9       0.0       0.0       0.0       0.3
 1 C  dxz             0.0       0.1       0.1       0.0       1.1      24.1
 1 C  dyz             0.0       0.0       0.0       0.1      12.5       0.2
 1 C  dx2y2           3.3      16.2      13.2       4.1       0.0       0.1
 1 C  dxy             5.7       1.3       6.7      11.1       0.0       0.0
 2 N  s               1.0       1.1       0.2       1.0       0.0       0.0
 2 N  pz              0.0       0.0       0.0       0.0       0.0       1.4
 2 N  px              2.0       0.3       2.9       3.2       0.0       0.0
 2 N  py              4.4       2.6       1.4       2.2       0.0       0.0
 2 N  dz2             0.2       0.5       0.0       0.1       0.0       0.1
 2 N  dxz             0.1       0.0       0.1       0.0       3.1      10.8
 2 N  dyz             0.0       0.0       0.0       0.1      31.6       0.1
 2 N  dx2y2           8.8       3.0      13.2       4.0       0.0       0.0
 2 N  dxy             0.6       5.3       0.3      19.5       0.1       0.0
 3 C  s               0.9       0.7       0.8       0.8       0.0       0.0
 3 C  pz              0.0       0.0       0.0       0.0       1.3       0.1
 3 C  px              0.3       0.1       0.5       2.5       0.0       0.0
 3 C  py              1.5       1.5       0.0       0.3       0.0       0.0
 3 C  dz2             0.5       0.3       0.6       1.3       0.0       0.3
 3 C  dxz             0.0       0.0       0.1       0.0       1.0      22.3
 3 C  dyz             0.0       0.0       0.0       0.1       9.8       2.9
 3 C  dx2y2           2.7      13.8       8.5       4.5       0.0       0.1
 3 C  dxy             1.4       0.7      13.1      17.2       0.0       0.0
 4 N  s               2.8       1.3       0.5       0.1       0.0       0.0
 4 N  pz              0.0       0.0       0.0       0.0       0.1       0.2
 4 N  px              0.9       0.6       2.0       0.0       0.0       0.0
 4 N  py              2.1       0.1       5.3       1.3       0.0       0.0
 4 N  dz2             0.0       0.2       0.1       0.0       0.1       0.0
 4 N  dxz             0.0       0.0       0.0       0.0       1.8       1.3
 4 N  dyz             0.0       0.0       0.0       0.0      23.0       2.9
 4 N  dx2y2           2.6       3.3       9.7       0.2       0.0       0.0
 4 N  dxy             8.0       1.2       2.3       6.9       0.1       0.0
 5 H  s               2.7       0.0       4.2       3.8       0.0       0.0
 6 H  s               5.2       0.6       0.2       0.4       0.0       0.0
 7 H  s               0.8       0.1       1.3       2.1       0.0       0.0
 8 H  s               0.9       2.4       0.4       0.8       0.0       0.0

                     66        67        68        69        70        71   
                   2.28569   2.29918   2.33504   2.41653   2.56717   2.59803
                   0.00000   0.00000   0.00000   0.00000   0.00000   0.00000
                  --------  --------  --------  --------  --------  --------
 0 C  s               3.2       0.6       0.0       0.0       1.8       0.0
 0 C  pz              0.0       0.0       2.2       0.0       0.0       0.0
 0 C  px              0.1       1.0       0.0       0.0       0.0       0.0
 0 C  py              1.3       0.2       0.0       0.0       0.9       0.0
 0 C  dz2            22.4       3.1       0.0       0.0       4.1       0.2
 0 C  dxz             0.2       0.1       6.1       0.1       0.0      11.7
 0 C  dyz             0.0       0.0      31.7       0.4       0.0       3.0
 0 C  dx2y2           1.1       0.9       0.1       0.0       0.3       0.0
 0 C  dxy             0.5       2.2       0.1       0.0       0.1       0.0
 1 C  s               0.7       6.1       0.0       0.0       1.3       0.0
 1 C  pz              0.0       0.0       0.9       0.8       0.0       0.0
 1 C  px              0.4       1.5       0.0       0.0       0.4       0.0
 1 C  py              0.5       1.8       0.0       0.0       1.5       0.0
 1 C  dz2             6.7      26.8       0.2       0.0       3.4       0.1
 1 C  dxz             0.0       0.3      12.9       0.1       0.0      11.1
 1 C  dyz             0.0       0.0       3.6      20.3       0.0       8.0
 1 C  dx2y2           2.4       0.7       0.0       0.0       4.3       0.1
 1 C  dxy             0.6       1.8       0.0       0.1       0.4       0.0
 2 N  s               4.1       1.9       0.0       0.0       6.2       0.0
 2 N  pz              0.0       0.0       2.4       0.2       0.0       0.0
 2 N  px              2.3       1.9       0.0       0.0       0.3       0.0
 2 N  py              0.5       0.1       0.0       0.0       0.2       0.0
 2 N  dz2             6.0       3.3       0.3       0.0      13.8       0.0
 2 N  dxz             0.1       0.1      21.0       2.6       0.1       1.5
 2 N  dyz             0.0       0.0       6.8       0.3       0.0      12.9
 2 N  dx2y2           0.0       0.4       0.1       0.0       0.5       0.0
 2 N  dxy             0.0       0.0       0.1       0.0       0.3       0.0
 3 C  s               1.1       5.4       0.0       0.0       4.4       0.0
 3 C  pz              0.0       0.0       0.5       1.5       0.0       0.1
 3 C  px              1.2       0.0       0.0       0.0       0.3       0.0
 3 C  py              0.4       2.6       0.0       0.0       1.1       0.0
 3 C  dz2             6.0      26.9       0.0       0.1      15.5       0.3
 3 C  dxz             0.1       0.3       0.7       5.2       0.2      23.8
 3 C  dyz             0.1       0.0       8.3      18.7       0.0       0.0
 3 C  dx2y2           0.3       1.6       0.0       0.0       0.0       0.1
 3 C  dxy            11.5       0.1       0.0       0.1       0.5       0.0
 4 N  s               8.3       0.0       0.0       0.0       9.6       0.0
 4 N  pz              0.0       0.0       0.0       3.4       0.0       0.0
 4 N  px              4.5       0.2       0.0       0.0       2.2       0.0
 4 N  py              0.2       1.2       0.0       0.0       0.3       0.0
 4 N  dz2            11.8       0.2       0.0       0.4      23.0       0.1
 4 N  dxz             0.2       0.0       0.0      39.1       0.3       5.8
 4 N  dyz             0.0       0.0       1.8       6.1       0.0      20.9
 4 N  dx2y2           0.0       1.1       0.0       0.2       0.1       0.0
 4 N  dxy             0.2       1.5       0.0       0.0       0.0       0.1
 5 H  s               0.1       0.2       0.0       0.0       0.7       0.0
 6 H  s               0.6       0.5       0.0       0.0       0.2       0.0
 7 H  s               0.1       1.8       0.0       0.0       0.4       0.0
 8 H  s               0.3       1.7       0.0       0.0       1.0       0.0

                     72        73        74        75        76        77   
                   2.61353   2.69875   2.74241   2.95577   3.00087   3.06079
                   0.00000   0.00000   0.00000   0.00000   0.00000   0.00000
                  --------  --------  --------  --------  --------  --------
 0 C  s               2.1       7.9       0.5       0.1       0.1       0.0
 0 C  px              0.1       2.4       2.0       1.7       0.2       1.0
 0 C  py              0.6       0.9       2.1       0.6       0.1       0.3
 0 C  dz2             8.4      10.5       0.1       0.0       0.1       0.0
 0 C  dxz             0.1       0.3       0.1       0.1       0.0       0.0
 0 C  dx2y2           1.6       5.1      15.9      12.4       1.6       0.2
 0 C  dxy             0.4       2.2       5.3       7.7       0.6      21.5
 1 C  s               1.8       4.6       4.4       0.0       0.4       0.4
 1 C  px              0.0       3.1       0.9       0.9       0.8       0.5
 1 C  py              0.7       0.1       0.8       1.6       1.0       0.8
 1 C  dz2             5.1      10.1       2.5       0.0       0.5       0.0
 1 C  dxz             0.0       0.4       0.0       0.0       0.0       0.0
 1 C  dx2y2           3.1      16.5       0.1       8.1       0.4       6.2
 1 C  dxy             0.2       0.6       0.0      18.1      10.7       9.2
 2 N  s              12.3       0.5       0.3       0.0       0.4       0.0
 2 N  px              2.6       0.7       0.0       0.1       0.2       0.0
 2 N  py              0.0       1.3       4.4       0.6       1.5       1.2
 2 N  dz2            20.3       0.0       0.0       0.0       0.2       0.0
 2 N  dxz             0.3       0.0       0.0       0.0       0.1       0.1
 2 N  dx2y2           0.3       5.6       6.0       0.3       5.1      21.5
 2 N  dxy             0.5       6.9      17.8       9.4       7.3       0.8
 3 C  s               0.3       1.4       7.0       0.3       0.0       0.7
 3 C  px              3.3       1.1       0.1       4.4       0.5       1.4
 3 C  py              0.1       0.5       2.4       0.1       0.1       0.0
 3 C  dz2             1.0       0.8       2.5       0.2       0.0       0.0
 3 C  dxz             0.0       0.0       0.0       0.0       0.1       0.1
 3 C  dx2y2           0.0       1.3       0.0       0.7      25.5      10.9
 3 C  dxy             9.7       9.8       0.0       2.7       6.4       3.5
 4 N  s               8.0       1.4       0.2       0.2       0.4       0.0
 4 N  px              1.8       0.4       0.7       0.1       0.7       0.6
 4 N  py              0.5       0.0       1.6       1.8       0.4       3.9
 4 N  dz2            12.4       1.9       0.3       0.2       0.4       0.0
 4 N  dxz             0.2       0.0       0.1       0.0       0.1       0.0
 4 N  dyz             0.0       0.0       0.0       0.1       0.0       0.0
 4 N  dx2y2           0.5       0.0      11.1       0.5      27.8       4.3
 4 N  dxy             0.3       0.0      10.3      24.1       2.9       5.9
 5 H  s               1.0       0.1       0.0       0.5       1.3       2.2
 6 H  s               0.3       0.7       0.1       1.1       0.0       1.6
 7 H  s               0.1       0.6       0.1       1.2       0.5       0.6
 8 H  s               0.0       0.1       0.1       0.0       1.7       0.5



                      *****************************
                      * MAYER POPULATION ANALYSIS *
                      *****************************

  NA   - Mulliken gross atomic population
  ZA   - Total nuclear charge
  QA   - Mulliken gross atomic charge
  VA   - Mayer's total valence
  BVA  - Mayer's bonded valence
  FA   - Mayer's free valence

  ATOM       NA         ZA         QA         VA         BVA        FA
  0 C      5.9903     6.0000     0.0097     3.7549     3.7549    -0.0000
  1 C      6.0513     6.0000    -0.0513     3.9427     3.9427    -0.0000
  2 N      7.5252     7.0000    -0.5252     3.2388     3.2388    -0.0000
  3 C      5.8290     6.0000     0.1710     3.8067     3.8067     0.0000
  4 N      7.3735     7.0000    -0.3735     3.0414     3.0414    -0.0000
  5 H      0.6664     1.0000     0.3336     0.8588     0.8588    -0.0000
  6 H      0.8499     1.0000     0.1501     0.9377     0.9377    -0.0000
  7 H      0.8665     1.0000     0.1335     0.9428     0.9428    -0.0000
  8 H      0.8478     1.0000     0.1522     0.9377     0.9377    -0.0000

  Mayer bond orders larger than 0.1
B(  0-C ,  1-C ) :   1.5961 B(  0-C ,  2-N ) :   1.1232 B(  0-C ,  6-H ) :   0.9298 
B(  1-C ,  4-N ) :   1.3245 B(  1-C ,  7-H ) :   0.9422 B(  2-N ,  3-C ) :   1.1603 
B(  2-N ,  5-H ) :   0.8304 B(  3-C ,  4-N ) :   1.6001 B(  3-C ,  8-H ) :   0.9328 


-------
TIMINGS
-------

Total SCF time: 0 days 0 hours 0 min 6 sec 

Total time                  ....       6.050 sec
Sum of individual times     ....       5.811 sec  ( 96.0%)

Fock matrix formation       ....       4.966 sec  ( 82.1%)
  XC integration            ....       1.120 sec  ( 22.5% of F)
    Basis function eval.    ....       0.430 sec  ( 38.4% of XC)
    Density eval.           ....       0.251 sec  ( 22.4% of XC)
    XC-Functional eval.     ....       0.112 sec  ( 10.0% of XC)
    XC-Potential eval.      ....       0.236 sec  ( 21.1% of XC)
Diagonalization             ....       0.001 sec  (  0.0%)
Density matrix formation    ....       0.000 sec  (  0.0%)
Population analysis         ....       0.018 sec  (  0.3%)
Initial guess               ....       0.001 sec  (  0.0%)
Orbital Transformation      ....       0.000 sec  (  0.0%)
Orbital Orthonormalization  ....       0.000 sec  (  0.0%)
DIIS solution               ....       0.000 sec  (  0.0%)
SOSCF solution              ....       0.004 sec  (  0.1%)
Grid generation             ....       0.820 sec  ( 13.5%)

-------------------------   --------------------
FINAL SINGLE POINT ENERGY      -226.076632387511
-------------------------   --------------------

                                *** OPTIMIZATION RUN DONE ***

                            ***************************************
                            *     ORCA property calculations      *
                            ***************************************

                                    ---------------------
                                    Active property flags
                                    ---------------------
   (+) Dipole Moment


------------------------------------------------------------------------------
                       ORCA ELECTRIC PROPERTIES CALCULATION
------------------------------------------------------------------------------

Dipole Moment Calculation                       ... on
Quadrupole Moment Calculation                   ... off
Polarizability Calculation                      ... off
GBWName                                         ... /Users/lailaal-madhagi/Desktop/Testing_XAS_Analysis_code/Imidazole/Gas//Results_dir_Imidazole_geom_element_N_2019-11-03_16-54-11//GTE1_Imidazole_geom_2019-11-03_16-54-36//opt.gbw
Electron density file                           ... /Users/lailaal-madhagi/Desktop/Testing_XAS_Analysis_code/Imidazole/Gas//Results_dir_Imidazole_geom_element_N_2019-11-03_16-54-11//GTE1_Imidazole_geom_2019-11-03_16-54-36//opt.scfp.tmp
The origin for moment calculation is the CENTER OF MASS  = (-21.238253, 13.987913 -0.152673)

-------------
DIPOLE MOMENT
-------------
                                X             Y             Z
Electronic contribution:      0.35671      -0.68880       0.01523
Nuclear contribution   :     -1.81106       0.76814      -0.10959
                        -----------------------------------------
Total Dipole Moment    :     -1.45434       0.07933      -0.09436
                        -----------------------------------------
Magnitude (a.u.)       :      1.45956
Magnitude (Debye)      :      3.70990



--------------------
Rotational spectrum 
--------------------
 
Rotational constants in cm-1:     0.324595     0.312037     0.159096 
Rotational constants in MHz :  9731.119603  9354.631688  4769.581218 

 Dipole components along the rotational axes: 
x,y,z [a.u.] :    -1.434453     0.269545     0.000463 
x,y,z [Debye]:    -3.646090     0.685129     0.001177 

 

Timings for individual modules:

Sum of individual times         ...       99.587 sec (=   1.660 min)
GTO integral calculation        ...        3.943 sec (=   0.066 min)   4.0 %
SCF iterations                  ...       64.633 sec (=   1.077 min)  64.9 %
SCF Gradient evaluation         ...       29.751 sec (=   0.496 min)  29.9 %
Geometry relaxation             ...        1.259 sec (=   0.021 min)   1.3 %
                             ****ORCA TERMINATED NORMALLY****
TOTAL RUN TIME: 0 days 0 hours 1 minutes 40 seconds 879 msec
