
                                 *****************
                                 * O   R   C   A *
                                 *****************

           --- An Ab Initio, DFT and Semiempirical electronic structure package ---

                  #######################################################
                  #                        -***-                        #
                  #          Department of theory and spectroscopy      #
                  #               Directorship: Frank Neese             #
                  #        Max Planck Institute fuer Kohlenforschung    #
                  #                Kaiser Wilhelm Platz 1               #
                  #                 D-45470 Muelheim/Ruhr               #
                  #                      Germany                        #
                  #                                                     #
                  #                  All rights reserved                #
                  #                        -***-                        #
                  #######################################################


                         Program Version 4.1.0  - RELEASE  -


 With contributions from (in alphabetic order):
   Daniel Aravena         : Magnetic Properties
   Michael Atanasov       : Ab Initio Ligand Field Theory
   Alexander A. Auer      : GIAO ZORA
   Ute Becker             : Parallelization
   Giovanni Bistoni       : ED, Open-shell LED
   Martin Brehm           : Molecular dynamics
   Dmytro Bykov           : SCF Hessian
   Vijay G. Chilkuri      : MRCI spin determinant printing
   Dipayan Datta          : RHF DLPNO-CCSD density
   Achintya Kumar Dutta   : EOM-CC, STEOM-CC
   Dmitry Ganyushin       : Spin-Orbit,Spin-Spin,Magnetic field MRCI
   Miquel Garcia          : C-PCM Hessian
   Yang Guo               : DLPNO-NEVPT2, CIM, IAO-localization
   Andreas Hansen         : Spin unrestricted coupled pair/coupled cluster methods
   Benjamin Helmich-Paris : CASSCF linear response (MC-RPA)
   Lee Huntington         : MR-EOM, pCC
   Robert Izsak           : Overlap fitted RIJCOSX, COSX-SCS-MP3, EOM
   Christian Kollmar      : KDIIS, OOCD, Brueckner-CCSD(T), CCSD density
   Simone Kossmann        : Meta GGA functionals, TD-DFT gradient, OOMP2, MP2 Hessian
   Martin Krupicka        : AUTO-CI
   Lucas Lang             : DCDCAS
   Dagmar Lenk            : GEPOL surface, SMD
   Dimitrios Liakos       : Extrapolation schemes; parallel MDCI
   Dimitrios Manganas     : ROCIS; embedding schemes
   Dimitrios Pantazis     : SARC Basis sets
   Taras Petrenko         : DFT Hessian,TD-DFT gradient, ASA, ECA, R-Raman, ABS, FL, XAS/XES, NRVS
   Peter Pinski           : DLPNO-MP2, DLPNO-MP2 Gradient
   Christoph Reimann      : Effective Core Potentials
   Marius Retegan         : Local ZFS, SOC
   Christoph Riplinger    : Optimizer, TS searches, QM/MM, DLPNO-CCSD(T), (RO)-DLPNO pert. Triples
   Tobias Risthaus        : Range-separated hybrids, TD-DFT gradient, RPA, STAB
   Michael Roemelt        : Restricted open shell CIS
   Masaaki Saitow         : Open-shell DLPNO
   Barbara Sandhoefer     : DKH picture change effects
   Avijit Sen             : IP-ROCIS
   Kantharuban Sivalingam : CASSCF convergence, NEVPT2, FIC-MRCI
   Bernardo de Souza      : ESD, SOC TD-DFT
   Georgi Stoychev        : AutoAux, RI-MP2 NMR
   Willem Van den Heuvel  : Paramagnetic NMR
   Boris Wezisla          : Elementary symmetry handling
   Frank Wennmohs         : Technical directorship


 We gratefully acknowledge several colleagues who have allowed us to
 interface, adapt or use parts of their codes:
   Stefan Grimme, W. Hujo, H. Kruse,             : VdW corrections, initial TS optimization,
                  C. Bannwarth                     DFT functionals, gCP, sTDA/sTD-DF
   Ed Valeev                                     : LibInt (2-el integral package), F12 methods
   Garnet Chan, S. Sharma, J. Yang, R. Olivares  : DMRG
   Ulf Ekstrom                                   : XCFun DFT Library
   Mihaly Kallay                                 : mrcc  (arbitrary order and MRCC methods)
   Andreas Klamt, Michael Diedenhofen            : otool_cosmo (COSMO solvation model)
   Jiri Pittner, Ondrej Demel                    : Mk-CCSD
   Frank Weinhold                                : gennbo (NPA and NBO analysis)
   Christopher J. Cramer and Donald G. Truhlar   : smd solvation model
   Lars Goerigk                                  : TD-DFT with DH, B97 family of functionals
   V. Asgeirsson, H. Jonsson                     : NEB implementation
   FAccTs GmbH                                   : IRC, NEB, NEB-TS, Multilevel


 Your calculation uses the libint2 library for the computation of 2-el integrals
 For citations please refer to: http://libint.valeyev.net

 This ORCA versions uses:
   CBLAS   interface :  Fast vector & matrix operations
   LAPACKE interface :  Fast linear algebra routines
   SCALAPACK package :  Parallel linear algebra routines




***************************************
The coordinates will be read from file: /Users/lailaal-madhagi/Desktop/Testing_XAS_Analysis_code/DimethylCarbonate/DimethylCarbonate_geom.xyz
***************************************


----- Orbital basis set information -----
Your calculation utilizes the basis: 6-31G*
   H-He, Li-Ne : W. J. Hehre, R. Ditchfield and J.A. Pople, J. Chem. Phys. 56, 2257 (1972).
                 Note: He and Ne are unpublished basis sets taken from the Gaussian program.
                 Note: Li and B from J. D. Dill and J. A. Pople, J. Chem. Phys. 62, 2921 (1975).
   Na - Ar     : M. M. Francl, W. J. Pietro, W. J. Hehre, J. S. Binkley, M. S. Gordon, 
                 D. J. DeFrees and J. A. Pople, J. Chem. Phys. 77, 3654 (1982).
   K - Zn      : V. A. Rassolov, J. A. Pople, M. A. Ratner, and T. L. Windus, J. Chem. Phys. 109, 1223 (1998).

================================================================================
                                        WARNINGS
                       Please study these warnings very carefully!
================================================================================


WARNING: Geometry Optimization
  ===> : Switching off AutoStart
         For restart on a previous wavefunction, please use MOREAD

INFO   : the flag for use of LIBINT has been found!

================================================================================
                                       INPUT FILE
================================================================================
NAME = /Users/lailaal-madhagi/Desktop/Testing_XAS_Analysis_code/DimethylCarbonate//Results_dir_DimethylCarbonate_geom_element_C_2019-11-10_18-07-15//GTE1_DimethylCarbonate_geom_2019-11-10_18-07-22//opt.inp
|  1> ! B3LYP 6-31G* TIGHTSCF Grid3 FinalGrid5 Opt 
|  2> !NormalPrint 
|  3> %output 
|  4> Print[P_Basis] 2 
|  5> Print[P_MOS] 1 
|  6> end 
|  7> *xyzfile 0 1 /Users/lailaal-madhagi/Desktop/Testing_XAS_Analysis_code/DimethylCarbonate/DimethylCarbonate_geom.xyz                           ****END OF INPUT****
================================================================================

                       *****************************
                       * Geometry Optimization Run *
                       *****************************

Geometry optimization settings:
Update method            Update   .... BFGS
Choice of coordinates    CoordSys .... Z-matrix Internals
Initial Hessian          InHess   .... Almoef's Model

Convergence Tolerances:
Energy Change            TolE     ....  5.0000e-06 Eh
Max. Gradient            TolMAXG  ....  3.0000e-04 Eh/bohr
RMS Gradient             TolRMSG  ....  1.0000e-04 Eh/bohr
Max. Displacement        TolMAXD  ....  4.0000e-03 bohr
RMS Displacement         TolRMSD  ....  2.0000e-03 bohr

------------------------------------------------------------------------------
                        ORCA OPTIMIZATION COORDINATE SETUP
------------------------------------------------------------------------------

The optimization will be done in new redundant internal coordinates
Making redundant internal coordinates   ...  (new redundants) done
Evaluating the initial hessian          ...  (Almloef) done
Evaluating the coordinates              ...  done
Calculating the B-matrix                .... done
Calculating the G-matrix                .... done
Diagonalizing the G-matrix              .... done
Small eigenvalue found = 2.866e-02
The first mode is                       ....    8
The number of degrees of freedom        ....   30

    -----------------------------------------------------------------
                    Redundant Internal Coordinates


    -----------------------------------------------------------------
         Definition                    Initial Value    Approx d2E/dq
    -----------------------------------------------------------------
      1. B(C   1,O   0)                  1.3563         0.633350   
      2. B(O   2,C   1)                  1.3563         0.633328   
      3. B(O   3,C   1)                  1.2252         1.025081   
      4. B(C   4,O   0)                  1.3788         0.583066   
      5. B(H   5,C   4)                  1.1093         0.335407   
      6. B(H   6,C   4)                  1.1111         0.333241   
      7. B(H   7,C   4)                  1.1111         0.333241   
      8. B(C   8,O   2)                  1.3788         0.583069   
      9. B(H   9,C   8)                  1.1093         0.335413   
     10. B(H  10,C   8)                  1.1111         0.333244   
     11. B(H  11,C   8)                  1.1111         0.333237   
     12. A(C   1,O   0,C   4)          123.9178         0.425343   
     13. A(O   0,C   1,O   2)          118.8014         0.431697   
     14. A(O   0,C   1,O   3)          120.5996         0.471159   
     15. A(O   2,C   1,O   3)          120.5989         0.471156   
     16. A(C   1,O   2,C   8)          123.9182         0.425341   
     17. A(H   5,C   4,H   6)          108.7851         0.284166   
     18. A(O   0,C   4,H   6)          110.1657         0.342635   
     19. A(H   6,C   4,H   7)          109.7493         0.283880   
     20. A(O   0,C   4,H   5)          109.1575         0.343007   
     21. A(H   5,C   4,H   7)          108.7844         0.284166   
     22. A(O   0,C   4,H   7)          110.1657         0.342635   
     23. A(H   9,C   8,H  10)          108.7854         0.284167   
     24. A(O   2,C   8,H  10)          110.1655         0.342636   
     25. A(O   2,C   8,H  11)          110.1656         0.342634   
     26. A(O   2,C   8,H   9)          109.1573         0.343008   
     27. A(H  10,C   8,H  11)          109.7492         0.283880   
     28. A(H   9,C   8,H  11)          108.7848         0.284166   
     29. D(O   3,C   1,O   0,C   4)     -0.0024         0.029524   
     30. D(O   2,C   1,O   0,C   4)    179.9969         0.029524   
     31. D(C   8,O   2,C   1,O   0)    179.9993         0.029522   
     32. D(C   8,O   2,C   1,O   3)     -0.0014         0.029522   
     33. D(H   6,C   4,O   0,C   1)     60.6095         0.027286   
     34. D(H   7,C   4,O   0,C   1)    -60.6122         0.027286   
     35. D(H   5,C   4,O   0,C   1)    179.9991         0.027286   
     36. D(H  11,C   8,O   2,C   1)    -60.6117         0.027286   
     37. D(H  10,C   8,O   2,C   1)     60.6097         0.027286   
     38. D(H   9,C   8,O   2,C   1)    179.9993         0.027286   
    -----------------------------------------------------------------

Number of atoms                         .... 12
Number of degrees of freedom            .... 38

         *************************************************************
         *                GEOMETRY OPTIMIZATION CYCLE   1            *
         *************************************************************
---------------------------------
CARTESIAN COORDINATES (ANGSTROEM)
---------------------------------
  O     -2.820820   -0.185470    0.206330
  C     -1.722600    0.610350    0.217700
  O     -0.514730    0.061160   -0.063390
  O     -1.819880    1.803820    0.477220
  C     -4.097250    0.260890    0.475820
  H     -4.804450   -0.590310    0.398650
  H     -4.393640    1.040040   -0.258770
  H     -4.148420    0.676380    1.505040
  C      0.667500    0.770480   -0.081540
  H      1.500040    0.083940   -0.338750
  H      0.864320    1.212590    0.918630
  H      0.619150    1.576090   -0.845220

----------------------------
CARTESIAN COORDINATES (A.U.)
----------------------------
  NO LB      ZA    FRAG     MASS         X           Y           Z
   0 O     8.0000    0    15.999   -5.330577   -0.350488    0.389907
   1 C     6.0000    0    12.011   -3.255242    1.153394    0.411393
   2 O     8.0000    0    15.999   -0.972699    0.115576   -0.119790
   3 O     8.0000    0    15.999   -3.439075    3.408726    0.901815
   4 C     6.0000    0    12.011   -7.742680    0.493011    0.899169
   5 H     1.0000    0     1.008   -9.079095   -1.115524    0.753339
   6 H     1.0000    0     1.008   -8.302776    1.965391   -0.489004
   7 H     1.0000    0     1.008   -7.839378    1.278173    2.844113
   8 C     6.0000    0    12.011    1.261392    1.455996   -0.154088
   9 H     1.0000    0     1.008    2.834665    0.158624   -0.640145
  10 H     1.0000    0     1.008    1.633328    2.291463    1.735959
  11 H     1.0000    0     1.008    1.170024    2.978378   -1.597234

--------------------------------
INTERNAL COORDINATES (ANGSTROEM)
--------------------------------
 O      0   0   0     0.000000000000     0.00000000     0.00000000
 C      1   0   0     1.356298609341     0.00000000     0.00000000
 O      2   1   0     1.356307922671   118.80144029     0.00000000
 O      2   1   3     1.225228415317   120.59962324   180.00069523
 C      1   2   3     1.378816758891   123.91781667   179.99688287
 H      5   1   2     1.109336959134   109.15747579   179.99909594
 H      5   1   2     1.111100455719   110.16571756    60.60952208
 H      5   1   2     1.111100408334   110.16570709   299.38778663
 C      3   2   1     1.378815454584   123.91817355   179.99932067
 H      9   3   2     1.109331784139   109.15728817   179.99927175
 H      9   3   2     1.111098282511   110.16550235    60.60965109
 H      9   3   2     1.111104107183   110.16556609   299.38828017

---------------------------
INTERNAL COORDINATES (A.U.)
---------------------------
 O      0   0   0     0.000000000000     0.00000000     0.00000000
 C      1   0   0     2.563032927473     0.00000000     0.00000000
 O      2   1   0     2.563050527116   118.80144029     0.00000000
 O      2   1   3     2.315346156447   120.59962324   180.00069523
 C      1   2   3     2.605586063166   123.91781667   179.99688287
 H      5   1   2     2.096343043000   109.15747579   179.99909594
 H      5   1   2     2.099675568585   110.16571756    60.60952208
 H      5   1   2     2.099675479039   110.16570709   299.38778663
 C      3   2   1     2.605583598382   123.91817355   179.99932067
 H      9   3   2     2.096333263676   109.15728817   179.99927175
 H      9   3   2     2.099671461817   110.16550235    60.60965109
 H      9   3   2     2.099682468852   110.16556609   299.38828017

---------------------
BASIS SET INFORMATION
---------------------
There are 3 groups of distinct atoms

 Group   1 Type O   : 10s4p1d contracted to 3s2p1d pattern {631/31/1}
 Group   2 Type C   : 10s4p1d contracted to 3s2p1d pattern {631/31/1}
 Group   3 Type H   : 4s contracted to 2s pattern {31}

Atom   0O    basis set group =>   1
Atom   1C    basis set group =>   2
Atom   2O    basis set group =>   1
Atom   3O    basis set group =>   1
Atom   4C    basis set group =>   2
Atom   5H    basis set group =>   3
Atom   6H    basis set group =>   3
Atom   7H    basis set group =>   3
Atom   8C    basis set group =>   2
Atom   9H    basis set group =>   3
Atom  10H    basis set group =>   3
Atom  11H    basis set group =>   3

-------------------------
BASIS SET IN INPUT FORMAT
-------------------------

 # Basis set for element : H 
 NewGTO H 
 S 3 
   1      18.7311370000      0.0334945995
   2       2.8253937000      0.2347269467
   3       0.6401217000      0.8137573184
 S 1 
   1       0.1612778000      1.0000000000
  end;

 # Basis set for element : C 
 NewGTO C 
 S 6 
   1    3047.5249000000      0.0018347002
   2     457.3695100000      0.0140373012
   3     103.9486900000      0.0688426061
   4      29.2101550000      0.2321844206
   5       9.2866630000      0.4679413416
   6       3.1639270000      0.3623120322
 S 3 
   1       7.8682724000     -0.1193324086
   2       1.8812885000     -0.1608542116
   3       0.5442493000      1.1434564826
 P 3 
   1       7.8682724000      0.0689990956
   2       1.8812885000      0.3164239798
   3       0.5442493000      0.7443082524
 S 1 
   1       0.1687144000      1.0000000000
 P 1 
   1       0.1687144000      1.0000000000
 D 1 
   1       0.8000000000      1.0000000000
  end;

 # Basis set for element : O 
 NewGTO O 
 S 6 
   1    5484.6717000000      0.0018310998
   2     825.2349500000      0.0139500985
   3     188.0469600000      0.0684450927
   4      52.9645000000      0.2327142753
   5      16.8975700000      0.4701929501
   6       5.7996353000      0.3585208619
 S 3 
   1      15.5396160000     -0.1107775038
   2       3.5999336000     -0.1480263051
   3       1.0137618000      1.1307670390
 P 3 
   1      15.5396160000      0.0708742995
   2       3.5999336000      0.3397527978
   3       1.0137618000      0.7271585953
 S 1 
   1       0.2700058000      1.0000000000
 P 1 
   1       0.2700058000      1.0000000000
 D 1 
   1       0.8000000000      1.0000000000
  end;

------------------------------------------------------------------------------
                           ORCA GTO INTEGRAL CALCULATION
------------------------------------------------------------------------------

                         BASIS SET STATISTICS AND STARTUP INFO

 # of primitive gaussian shells          ...  114
 # of primitive gaussian functions       ...  186
 # of contracted shells                  ...   48
 # of contracted basis functions         ...   96
 Highest angular momentum                ...    2
 Maximum contraction depth               ...    6
 Integral package used                   ... LIBINT
 Integral threshhold            Thresh   ...  2.500e-11
 Primitive cut-off              TCut     ...  2.500e-12


------------------------------ INTEGRAL EVALUATION ----------------------------


 * One electron integrals 
 Pre-screening matrix                    ... done
 Shell pair data                         ... done (   0.001 sec)

-------------------------------------------------------------------------------
                                 ORCA SCF
-------------------------------------------------------------------------------

------------
SCF SETTINGS
------------
Hamiltonian:
 Density Functional     Method          .... DFT(GTOs)
 Exchange Functional    Exchange        .... B88
   X-Alpha parameter    XAlpha          ....  0.666667
   Becke's b parameter  XBeta           ....  0.004200
 Correlation Functional Correlation     .... LYP
 LDA part of GGA corr.  LDAOpt          .... VWN-5
 Gradients option       PostSCFGGA      .... off
 Hybrid DFT is turned on
   Fraction HF Exchange ScalHFX         ....  0.200000
   Scaling of DF-GGA-X  ScalDFX         ....  0.720000
   Scaling of DF-GGA-C  ScalDFC         ....  0.810000
   Scaling of DF-LDA-C  ScalLDAC        ....  1.000000
   Perturbative correction              ....  0.000000
   Density functional embedding theory  .... OFF
   NL short-range parameter             ....  4.800000


General Settings:
 Integral files         IntName         .... /Users/lailaal-madhagi/Desktop/Testing_XAS_Analysis_code/DimethylCarbonate//Results_dir_DimethylCarbonate_geom_element_C_2019-11-10_18-07-15//GTE1_DimethylCarbonate_geom_2019-11-10_18-07-22//opt
 Hartree-Fock type      HFTyp           .... RHF
 Total Charge           Charge          ....    0
 Multiplicity           Mult            ....    1
 Number of Electrons    NEL             ....   48
 Basis Dimension        Dim             ....   96
 Nuclear Repulsion      ENuc            ....    248.7458799485 Eh

Convergence Acceleration:
 DIIS                   CNVDIIS         .... on
   Start iteration      DIISMaxIt       ....    12
   Startup error        DIISStart       ....  0.200000
   # of expansion vecs  DIISMaxEq       ....     5
   Bias factor          DIISBfac        ....   1.050
   Max. coefficient     DIISMaxC        ....  10.000
 Newton-Raphson         CNVNR           .... off
 SOSCF                  CNVSOSCF        .... on
   Start iteration      SOSCFMaxIt      ....   150
   Startup grad/error   SOSCFStart      ....  0.003300
 Level Shifting         CNVShift        .... on
   Level shift para.    LevelShift      ....    0.2500
   Turn off err/grad.   ShiftErr        ....    0.0010
 Zerner damping         CNVZerner       .... off
 Static damping         CNVDamp         .... on
   Fraction old density DampFac         ....    0.7000
   Max. Damping (<1)    DampMax         ....    0.9800
   Min. Damping (>=0)   DampMin         ....    0.0000
   Turn off err/grad.   DampErr         ....    0.1000
 Fernandez-Rico         CNVRico         .... off

SCF Procedure:
 Maximum # iterations   MaxIter         ....   125
 SCF integral mode      SCFMode         .... Direct
   Integral package                     .... LIBINT
 Reset frequency        DirectResetFreq ....    20
 Integral Threshold     Thresh          ....  2.500e-11 Eh
 Primitive CutOff       TCut            ....  2.500e-12 Eh

Convergence Tolerance:
 Convergence Check Mode ConvCheckMode   .... Total+1el-Energy
 Convergence forced     ConvForced      .... 0
 Energy Change          TolE            ....  1.000e-08 Eh
 1-El. energy change                    ....  1.000e-05 Eh
 Orbital Gradient       TolG            ....  1.000e-05
 Orbital Rotation angle TolX            ....  1.000e-05
 DIIS Error             TolErr          ....  5.000e-07


Diagonalization of the overlap matrix:
Smallest eigenvalue                        ... 9.774e-03
Time for diagonalization                   ...    0.001 sec
Threshold for overlap eigenvalues          ... 1.000e-08
Number of eigenvalues below threshold      ... 0
Time for construction of square roots      ...    0.001 sec
Total time needed                          ...    0.002 sec

-------------------
DFT GRID GENERATION
-------------------

General Integration Accuracy     IntAcc      ...  4.340
Radial Grid Type                 RadialGrid  ... Gauss-Chebyshev
Angular Grid (max. acc.)         AngularGrid ... Lebedev-194
Angular grid pruning method      GridPruning ... 3 (G Style)
Weight generation scheme         WeightScheme... Becke
Basis function cutoff            BFCut       ...    1.0000e-11
Integration weight cutoff        WCut        ...    1.0000e-14
Grids for H and He will be reduced by one unit

# of grid points (after initial pruning)     ...  29076 (   0.0 sec)
# of grid points (after weights+screening)   ...  27502 (   0.0 sec)
nearest neighbour list constructed           ...    0.0 sec
Grid point re-assignment to atoms done       ...    0.0 sec
Grid point division into batches done        ...    0.0 sec
Reduced shell lists constructed in    0.1 sec

Total number of grid points                  ...    27502
Total number of batches                      ...      436
Average number of points per batch           ...       63
Average number of grid points per atom       ...     2292
Average number of shells per batch           ...    33.39 (69.57%)
Average number of basis functions per batch  ...    69.24 (72.12%)
Average number of large shells per batch     ...    25.99 (77.82%)
Average number of large basis fcns per batch ...    54.42 (78.59%)
Maximum spatial batch extension              ...  18.95, 21.12, 19.45 au
Average spatial batch extension              ...   3.30,  3.49,  3.45 au

Time for grid setup =    0.188 sec

------------------------------
INITIAL GUESS: MODEL POTENTIAL
------------------------------
Loading Hartree-Fock densities                     ... done
Calculating cut-offs                               ... done
Setting up the integral package                    ... done
Initializing the effective Hamiltonian             ... done
Starting the Coulomb interaction                   ... done (   0.0 sec)
Reading the grid                                   ... done
Mapping shells                                     ... done
Starting the XC term evaluation                    ... done (   0.1 sec)
  promolecular density results
     # of electrons  =     47.997298051
     EX              =    -41.793655997
     EC              =     -1.655489892
     EX+EC           =    -43.449145889
Transforming the Hamiltonian                       ... done (   0.0 sec)
Diagonalizing the Hamiltonian                      ... done (   0.0 sec)
Back transforming the eigenvectors                 ... done (   0.0 sec)
Now organizing SCF variables                       ... done
                      ------------------
                      INITIAL GUESS DONE (   0.4 sec)
                      ------------------
--------------
SCF ITERATIONS
--------------
               ***  Starting incremental Fock matrix formation  ***

                         ----------------------------
                         !        ITERATION     0   !
                         ----------------------------
   Total Energy        :    -343.190457903925 Eh
   Energy Change       :    -343.190457903925 Eh
   MAX-DP              :       0.112553220709
   RMS-DP              :       0.003503077729
   Actual Damping      :       0.7000
   Actual Level Shift  :       0.2500 Eh
   Int. Num. El.       :    48.00007961 (UP=   24.00003980 DN=   24.00003980)
   Exchange            :   -34.25064684
   Correlation         :    -1.96936326


                         ----------------------------
                         !        ITERATION     1   !
                         ----------------------------
   Total Energy        :    -343.294161730243 Eh
   Energy Change       :      -0.103703826318 Eh
   MAX-DP              :       0.064079579169
   RMS-DP              :       0.002066985970
   Actual Damping      :       0.7000
   Actual Level Shift  :       0.2500 Eh
   Int. Num. El.       :    48.00012922 (UP=   24.00006461 DN=   24.00006461)
   Exchange            :   -33.96142186
   Correlation         :    -1.96117834

                               ***Turning on DIIS***

                         ----------------------------
                         !        ITERATION     2   !
                         ----------------------------
   Total Energy        :    -343.328178339458 Eh
   Energy Change       :      -0.034016609215 Eh
   MAX-DP              :       0.063428296505
   RMS-DP              :       0.002858730861
   Actual Damping      :       0.0000
   Actual Level Shift  :       0.2500 Eh
   Int. Num. El.       :    48.00015832 (UP=   24.00007916 DN=   24.00007916)
   Exchange            :   -33.79395642
   Correlation         :    -1.95597631
   DIIS-Error          :       0.030857729844


                         ----------------------------
                         !        ITERATION     3   !
                         ----------------------------
   Total Energy        :    -343.391908644175 Eh
   Energy Change       :      -0.063730304716 Eh
   MAX-DP              :       0.040153009270
   RMS-DP              :       0.001335205840
   Actual Damping      :       0.0000
   Actual Level Shift  :       0.2500 Eh
   Int. Num. El.       :    48.00020084 (UP=   24.00010042 DN=   24.00010042)
   Exchange            :   -33.58165282
   Correlation         :    -1.94854445
   DIIS-Error          :       0.056038196073
   DIIS coefficients:
      0.63241   0.36759


                         ----------------------------
                         !        ITERATION     4   !
                         ----------------------------
   Total Energy        :    -343.401638236527 Eh
   Energy Change       :      -0.009729592353 Eh
   MAX-DP              :       0.008752896653
   RMS-DP              :       0.000482659748
   Actual Damping      :       0.0000
   Actual Level Shift  :       0.2500 Eh
   Int. Num. El.       :    48.00018765 (UP=   24.00009382 DN=   24.00009382)
   Exchange            :   -33.67972649
   Correlation         :    -1.95168144
   DIIS-Error          :       0.014932457316
   DIIS coefficients:
      0.26291   0.10182   0.63527


                         ----------------------------
                         !        ITERATION     5   !
                         ----------------------------
   Total Energy        :    -343.402441079652 Eh
   Energy Change       :      -0.000802843125 Eh
   MAX-DP              :       0.003255853802
   RMS-DP              :       0.000133149941
   Actual Damping      :       0.0000
   Actual Level Shift  :       0.2500 Eh
   Int. Num. El.       :    48.00018472 (UP=   24.00009236 DN=   24.00009236)
   Exchange            :   -33.69998422
   Correlation         :    -1.95265227
   DIIS-Error          :       0.004050903182
   DIIS coefficients:
      0.06581   0.02640   0.16187   0.74592

                      *** Initiating the SOSCF procedure ***
                           *** Shutting down DIIS ***
                      *** Re-Reading the Fockian *** 
                      *** Removing any level shift *** 

                         ----------------------------
                         !        ITERATION     6   !
                         ----------------------------
   Total Energy        :    -343.402478467663 Eh
   Energy Change       :      -0.000037388011 Eh
   MAX-DP              :       0.000748710701
   RMS-DP              :       0.000039537456
   Orbital gradient    :       0.000315111023
   Orbital Rotation    :       0.000315111023
   Actual Damping      :       0.0000
   Int. Num. El.       :    48.00018393 (UP=   24.00009196 DN=   24.00009196)
   Exchange            :   -33.70165781
   Correlation         :    -1.95272936

               *** Restarting incremental Fock matrix formation ***

                         ----------------------------
                         !        ITERATION     7   !
                         ----------------------------
   Total Energy        :    -343.402485082283 Eh
   Energy Change       :      -0.000006614620 Eh
   MAX-DP              :       0.000665849429
   RMS-DP              :       0.000023788240
   Orbital gradient    :       0.000149002807
   Orbital Rotation    :       0.000459096338
   Actual Damping      :       0.0000
   Int. Num. El.       :    48.00018477 (UP=   24.00009238 DN=   24.00009238)
   Exchange            :   -33.70134255
   Correlation         :    -1.95269297


                         ----------------------------
                         !        ITERATION     8   !
                         ----------------------------
   Total Energy        :    -343.402484666693 Eh
   Energy Change       :       0.000000415590 Eh
   MAX-DP              :       0.000498218946
   RMS-DP              :       0.000012732596
   Orbital gradient    :       0.000308039042
   Orbital Rotation    :       0.000331871171
   Actual Damping      :       0.0000
   Int. Num. El.       :    48.00018473 (UP=   24.00009236 DN=   24.00009236)
   Exchange            :   -33.70104264
   Correlation         :    -1.95270141


                         ----------------------------
                         !        ITERATION     9   !
                         ----------------------------
   Total Energy        :    -343.402485476990 Eh
   Energy Change       :      -0.000000810298 Eh
   MAX-DP              :       0.000100268765
   RMS-DP              :       0.000005186433
   Orbital gradient    :       0.000042198288
   Orbital Rotation    :       0.000071618577
   Actual Damping      :       0.0000
   Int. Num. El.       :    48.00018480 (UP=   24.00009240 DN=   24.00009240)
   Exchange            :   -33.70128455
   Correlation         :    -1.95270084


                         ----------------------------
                         !        ITERATION    10   !
                         ----------------------------
   Total Energy        :    -343.402485448969 Eh
   Energy Change       :       0.000000028021 Eh
   MAX-DP              :       0.000065118296
   RMS-DP              :       0.000003040443
   Orbital gradient    :       0.000048300483
   Orbital Rotation    :       0.000033523748
   Actual Damping      :       0.0000
   Int. Num. El.       :    48.00018488 (UP=   24.00009244 DN=   24.00009244)
   Exchange            :   -33.70131092
   Correlation         :    -1.95269595


                         ----------------------------
                         !        ITERATION    11   !
                         ----------------------------
   Total Energy        :    -343.402485507081 Eh
   Energy Change       :      -0.000000058112 Eh
   MAX-DP              :       0.000011565193
   RMS-DP              :       0.000000598679
   Orbital gradient    :       0.000004718802
   Orbital Rotation    :       0.000007717791
   Actual Damping      :       0.0000
   Int. Num. El.       :    48.00018484 (UP=   24.00009242 DN=   24.00009242)
   Exchange            :   -33.70125287
   Correlation         :    -1.95269762


                         ----------------------------
                         !        ITERATION    12   !
                         ----------------------------
   Total Energy        :    -343.402485506932 Eh
   Energy Change       :       0.000000000149 Eh
   MAX-DP              :       0.000006673568
   RMS-DP              :       0.000000334018
   Orbital gradient    :       0.000005518061
   Orbital Rotation    :       0.000004336022
   Actual Damping      :       0.0000
   Int. Num. El.       :    48.00018483 (UP=   24.00009241 DN=   24.00009241)
   Exchange            :   -33.70129616
   Correlation         :    -1.95269929

                  ***Gradient check signals convergence***
              ***Rediagonalizing the Fockian in SOSCF/NRSCF***

               *****************************************************
               *                     SUCCESS                       *
               *           SCF CONVERGED AFTER  13 CYCLES          *
               *****************************************************

Setting up the final grid:

General Integration Accuracy     IntAcc      ...  5.010
Radial Grid Type                 RadialGrid  ... Gauss-Chebyshev
Angular Grid (max. acc.)         AngularGrid ... Lebedev-434
Angular grid pruning method      GridPruning ... 3 (G Style)
Weight generation scheme         WeightScheme... Becke
Basis function cutoff            BFCut       ...    1.0000e-11
Integration weight cutoff        WCut        ...    1.0000e-14
Grids for H and He will be reduced by one unit

# of grid points (after initial pruning)     ... 104772 (   0.0 sec)
# of grid points (after weights+screening)   ...  98371 (   0.1 sec)
nearest neighbour list constructed           ...    0.0 sec
Grid point re-assignment to atoms done       ...    0.0 sec
Grid point division into batches done        ...    0.5 sec
Reduced shell lists constructed in    0.9 sec

Total number of grid points                  ...    98371
Total number of batches                      ...     1543
Average number of points per batch           ...       63
Average number of grid points per atom       ...     8198
Average number of shells per batch           ...    30.73 (64.02%)
Average number of basis functions per batch  ...    63.34 (65.98%)
Average number of large shells per batch     ...    23.21 (75.53%)
Average number of large basis fcns per batch ...    48.44 (76.47%)
Maximum spatial batch extension              ...  21.19, 24.34, 23.71 au
Average spatial batch extension              ...   2.20,  2.29,  2.32 au

Final grid set up in    1.1 sec
Final integration                            ... done (   0.5 sec)
Change in XC energy                          ...    -0.000198975
Integrated number of electrons               ...    47.999995387
Previous integrated no of electrons          ...    48.000184833

----------------
TOTAL SCF ENERGY
----------------

Total Energy       :         -343.40268448 Eh           -9344.46211 eV

Components:
Nuclear Repulsion  :          248.74587995 Eh            6768.71951 eV
Electronic Energy  :         -592.14856443 Eh          -16113.18162 eV
One Electron Energy:         -961.93069409 Eh          -26175.46492 eV
Two Electron Energy:          369.78212966 Eh           10062.28330 eV

Virial components:
Potential Energy   :         -684.64335977 Eh          -18630.09295 eV
Kinetic Energy     :          341.24067529 Eh            9285.63085 eV
Virial Ratio       :            2.00633573


DFT components:
N(Alpha)           :       23.999997693603 electrons
N(Beta)            :       23.999997693603 electrons
N(Total)           :       47.999995387207 electrons
E(X)               :      -33.701458972979 Eh       
E(C)               :       -1.952711655797 Eh       
E(XC)              :      -35.654170628776 Eh       
DFET-embed. en.    :        0.000000000000 Eh       

---------------
SCF CONVERGENCE
---------------

  Last Energy change         ...   -7.9945e-10  Tolerance :   1.0000e-08
  Last MAX-Density change    ...    1.1029e-06  Tolerance :   1.0000e-07
  Last RMS-Density change    ...    5.3765e-08  Tolerance :   5.0000e-09
  Last Orbital Gradient      ...    3.6715e-07  Tolerance :   1.0000e-05
  Last Orbital Rotation      ...    4.7288e-07  Tolerance :   1.0000e-05

             **** THE GBW FILE WAS UPDATED (/Users/lailaal-madhagi/Desktop/Testing_XAS_Analysis_code/DimethylCarbonate//Results_dir_DimethylCarbonate_geom_element_C_2019-11-10_18-07-15//GTE1_DimethylCarbonate_geom_2019-11-10_18-07-22//opt.gbw) ****
             **** DENSITY FILE WAS UPDATED (/Users/lailaal-madhagi/Desktop/Testing_XAS_Analysis_code/DimethylCarbonate//Results_dir_DimethylCarbonate_geom_element_C_2019-11-10_18-07-15//GTE1_DimethylCarbonate_geom_2019-11-10_18-07-22//opt.scfp.tmp) ****
             **** ENERGY FILE WAS UPDATED (/Users/lailaal-madhagi/Desktop/Testing_XAS_Analysis_code/DimethylCarbonate//Results_dir_DimethylCarbonate_geom_element_C_2019-11-10_18-07-15//GTE1_DimethylCarbonate_geom_2019-11-10_18-07-22//opt.en.tmp) ****
----------------
ORBITAL ENERGIES
----------------

  NO   OCC          E(Eh)            E(eV) 
   0   2.0000     -19.188720      -522.1516 
   1   2.0000     -19.188667      -522.1502 
   2   2.0000     -19.117713      -520.2194 
   3   2.0000     -10.360241      -281.9165 
   4   2.0000     -10.240043      -278.6457 
   5   2.0000     -10.240007      -278.6448 
   6   2.0000      -1.130873       -30.7726 
   7   2.0000      -1.067412       -29.0458 
   8   2.0000      -0.996990       -27.1295 
   9   2.0000      -0.762948       -20.7609 
  10   2.0000      -0.702848       -19.1255 
  11   2.0000      -0.577716       -15.7204 
  12   2.0000      -0.547734       -14.9046 
  13   2.0000      -0.501517       -13.6470 
  14   2.0000      -0.480368       -13.0715 
  15   2.0000      -0.463467       -12.6116 
  16   2.0000      -0.453700       -12.3458 
  17   2.0000      -0.435493       -11.8504 
  18   2.0000      -0.392680       -10.6854 
  19   2.0000      -0.362397        -9.8613 
  20   2.0000      -0.330898        -9.0042 
  21   2.0000      -0.300743        -8.1836 
  22   2.0000      -0.290006        -7.8915 
  23   2.0000      -0.266603        -7.2546 
  24   0.0000       0.034513         0.9391 
  25   0.0000       0.087864         2.3909 
  26   0.0000       0.110482         3.0064 
  27   0.0000       0.117067         3.1856 
  28   0.0000       0.156092         4.2475 
  29   0.0000       0.156820         4.2673 
  30   0.0000       0.165836         4.5126 
  31   0.0000       0.176878         4.8131 
  32   0.0000       0.182385         4.9629 
  33   0.0000       0.259063         7.0495 
  34   0.0000       0.344029         9.3615 
  35   0.0000       0.371361        10.1053 
  36   0.0000       0.508781        13.8446 
  37   0.0000       0.516104        14.0439 
  38   0.0000       0.520238        14.1564 
  39   0.0000       0.540641        14.7116 
  40   0.0000       0.556734        15.1495 
  41   0.0000       0.561497        15.2791 
  42   0.0000       0.606738        16.5102 
  43   0.0000       0.629473        17.1288 
  44   0.0000       0.698425        19.0051 
  45   0.0000       0.726231        19.7617 
  46   0.0000       0.823510        22.4088 
  47   0.0000       0.831151        22.6168 
  48   0.0000       0.832147        22.6439 
  49   0.0000       0.839732        22.8503 
  50   0.0000       0.893516        24.3138 
  51   0.0000       0.907295        24.6888 
  52   0.0000       0.911056        24.7911 
  53   0.0000       0.974308        26.5123 
  54   0.0000       0.976349        26.5678 
  55   0.0000       1.001686        27.2573 
  56   0.0000       1.005741        27.3676 
  57   0.0000       1.079819        29.3834 
  58   0.0000       1.112727        30.2789 
  59   0.0000       1.134726        30.8775 
  60   0.0000       1.182281        32.1715 
  61   0.0000       1.276892        34.7460 
  62   0.0000       1.347324        36.6625 
  63   0.0000       1.366527        37.1851 
  64   0.0000       1.442179        39.2437 
  65   0.0000       1.493320        40.6353 
  66   0.0000       1.565415        42.5971 
  67   0.0000       1.579755        42.9873 
  68   0.0000       1.598867        43.5074 
  69   0.0000       1.693059        46.0705 
  70   0.0000       1.717692        46.7408 
  71   0.0000       1.783996        48.5450 
  72   0.0000       1.826940        49.7136 
  73   0.0000       1.869008        50.8583 
  74   0.0000       1.931539        52.5598 
  75   0.0000       1.991680        54.1964 
  76   0.0000       2.033957        55.3468 
  77   0.0000       2.034278        55.3555 
  78   0.0000       2.086485        56.7761 
  79   0.0000       2.109735        57.4088 
  80   0.0000       2.136597        58.1398 
  81   0.0000       2.152072        58.5609 
  82   0.0000       2.167629        58.9842 
  83   0.0000       2.310198        62.8637 
  84   0.0000       2.310770        62.8793 
  85   0.0000       2.330120        63.4058 
  86   0.0000       2.331891        63.4540 
  87   0.0000       2.537227        69.0414 
  88   0.0000       2.579266        70.1854 
  89   0.0000       2.603129        70.8347 
  90   0.0000       2.716020        73.9066 
  91   0.0000       2.784558        75.7717 
  92   0.0000       2.806771        76.3761 
  93   0.0000       2.930388        79.7399 
  94   0.0000       3.183931        86.6392 
  95   0.0000       3.227302        87.8193 
------------------
MOLECULAR ORBITALS
------------------
                      0         1         2         3         4         5   
                 -19.18872 -19.18867 -19.11771 -10.36024 -10.24004 -10.24001
                   2.00000   2.00000   2.00000   2.00000   2.00000   2.00000
                  --------  --------  --------  --------  --------  --------
  0O   1s        -0.466547 -0.879022  0.000339 -0.000169  0.000121  0.000016
  0O   2s        -0.014644 -0.027032 -0.000234 -0.001463  0.000767  0.000412
  0O   1pz       -0.000198 -0.000291  0.000068  0.000003 -0.000031  0.000005
  0O   1px       -0.000006 -0.000019 -0.000434  0.000226  0.000299  0.000003
  0O   1py       -0.000965 -0.001425  0.000038  0.000167  0.000051  0.000028
  0O   3s         0.012107  0.020592  0.000715  0.006538 -0.002360 -0.002694
  0O   2pz        0.000723  0.000548 -0.000718  0.000090 -0.000696  0.000143
  0O   2px        0.000071  0.001712  0.002780  0.004324  0.001762 -0.001636
  0O   2py        0.003555  0.003812 -0.001610  0.003352 -0.002188 -0.000410
  0O   1dz2      -0.000214 -0.000369 -0.000022 -0.001251  0.001026 -0.000161
  0O   1dxz      -0.000004 -0.000102 -0.000090 -0.000023  0.000633 -0.000130
  0O   1dyz       0.000133  0.000036 -0.000041  0.000063 -0.000285  0.000055
  0O   1dx2y2    -0.000285  0.000358  0.000355  0.000660 -0.001192  0.000224
  0O   1dxy       0.000056  0.000193 -0.000167  0.001804  0.000967 -0.000269
  1C   1s         0.000021 -0.000070  0.000228 -0.994988 -0.000034  0.000046
  1C   2s         0.000117 -0.000383  0.000109 -0.035711 -0.000493  0.000671
  1C   1pz       -0.000094  0.000046  0.000050  0.000104 -0.000017 -0.000001
  1C   1px        0.000630  0.000165 -0.000019 -0.000039  0.000100  0.000069
  1C   1py       -0.000030  0.000337  0.000230  0.000478 -0.000013  0.000040
  1C   3s         0.002621 -0.008552  0.008904  0.000467  0.000771 -0.001051
  1C   2pz       -0.001730  0.000753  0.002474  0.000498  0.001131 -0.000219
  1C   2px        0.011854  0.003153 -0.000927 -0.000187 -0.005580 -0.003701
  1C   2py       -0.000401  0.005781  0.011379  0.002290  0.001724 -0.003560
  1C   1dz2      -0.000064  0.000092  0.000227  0.002334 -0.000142  0.000174
  1C   1dxz       0.000162  0.000079 -0.000044  0.000588  0.000021  0.000077
  1C   1dyz      -0.000060 -0.000055 -0.000337 -0.000840  0.000038 -0.000095
  1C   1dx2y2    -0.000136 -0.000062  0.001051 -0.000130 -0.000079  0.000020
  1C   1dxy       0.000746  0.000219  0.000188 -0.000135  0.000219  0.000162
  2O   1s         0.879019 -0.466552  0.000339 -0.000169 -0.000051 -0.000111
  2O   2s         0.027277 -0.014182 -0.000234 -0.001463 -0.000624 -0.000608
  2O   1pz        0.000361 -0.000145 -0.000032  0.000059 -0.000018 -0.000035
  2O   1px       -0.000273  0.000115  0.000420 -0.000249  0.000098  0.000286
  2O   1py        0.001567 -0.000625  0.000129  0.000116 -0.000022  0.000021
  2O   3s        -0.021567  0.010270  0.000715  0.006538  0.003278  0.001442
  2O   2pz       -0.001238  0.000390 -0.000104  0.001156  0.000332  0.000240
  2O   2px        0.001821 -0.001543 -0.002471 -0.004792 -0.001183  0.001817
  2O   2py       -0.004776  0.000852 -0.002172  0.002377  0.000811  0.002391
  2O   1dz2       0.000372 -0.000183 -0.000042 -0.001112 -0.000160 -0.001137
  2O   1dxz       0.000124 -0.000097  0.000015 -0.000741 -0.000036 -0.000075
  2O   1dyz      -0.000156 -0.000039 -0.000084  0.000359  0.000021  0.000054
  2O   1dx2y2    -0.000017  0.000468  0.000268  0.001256  0.000119  0.000734
  2O   1dxy       0.000122  0.000063  0.000288 -0.001330  0.000098  0.001473
  3O   1s        -0.000140  0.000457  0.995155  0.000053  0.000013 -0.000018
  3O   2s        -0.000144  0.000470  0.030203 -0.000304  0.000091 -0.000124
  3O   1pz       -0.000003 -0.000051 -0.000492 -0.000179  0.000010 -0.000033
  3O   1px        0.000144  0.000063  0.000184  0.000067  0.000071  0.000068
  3O   1py        0.000080 -0.000205 -0.002261 -0.000824  0.000097 -0.000115
  3O   3s         0.000485 -0.001581 -0.023263  0.003220 -0.001648  0.002246
  3O   2pz        0.000317  0.000203  0.001462 -0.000791 -0.000019 -0.000125
  3O   2px       -0.002950 -0.000944 -0.000548  0.000296  0.000599  0.000481
  3O   2py       -0.000452  0.000346  0.006725 -0.003636  0.000310 -0.000284
  3O   1dz2      -0.000078  0.000140  0.000091 -0.000838 -0.000117  0.000166
  3O   1dxz       0.000154  0.000091  0.000003 -0.000086 -0.000047  0.000035
  3O   1dyz      -0.000054 -0.000068 -0.000082  0.000617  0.000042 -0.000044
  3O   1dx2y2    -0.000126 -0.000080  0.000201 -0.001267  0.000050 -0.000043
  3O   1dxy       0.000729  0.000208  0.000034 -0.000200 -0.000049 -0.000063
  4C   1s        -0.000063  0.000032  0.000006  0.000129  0.983678 -0.151029
  4C   2s        -0.000455  0.000637 -0.000005  0.000677  0.036204 -0.005304
  4C   1pz        0.000078  0.000083 -0.000081  0.000025 -0.000399  0.000058
  4C   1px       -0.000611 -0.000491  0.000243  0.000103  0.002103 -0.000239
  4C   1py       -0.000034  0.000072 -0.000227  0.000192 -0.000517  0.000118
  4C   3s        -0.002134 -0.005814  0.002119 -0.001119 -0.023602  0.002766
  4C   2pz        0.000153  0.000303 -0.000059 -0.000220 -0.000391  0.000145
  4C   2px        0.000146 -0.002217  0.000487 -0.001609  0.000642 -0.000774
  4C   2py        0.000842 -0.000024  0.000042 -0.002150 -0.001463  0.000180
  4C   1dz2      -0.000117 -0.000161  0.000030  0.000043 -0.000428  0.000087
  4C   1dxz      -0.000068 -0.000098 -0.000026  0.000050 -0.000287  0.000057
  4C   1dyz       0.000061  0.000105 -0.000007  0.000056  0.000103 -0.000024
  4C   1dx2y2     0.000034 -0.000010  0.000061 -0.000326  0.000603 -0.000108
  4C   1dxy      -0.000156 -0.000270 -0.000117 -0.000025 -0.000446  0.000093
  5H   1s         0.000240  0.000345 -0.000072 -0.000237 -0.000835  0.000143
  5H   2s         0.000811  0.000234 -0.000091 -0.001005  0.004359 -0.000816
  6H   1s         0.000077  0.000453 -0.000117  0.000293 -0.000549  0.000158
  6H   2s         0.000380  0.000725 -0.000500  0.000434  0.005093 -0.000809
  7H   1s         0.000077  0.000453 -0.000116  0.000293 -0.000549  0.000158
  7H   2s         0.000380  0.000725 -0.000500  0.000434  0.005093 -0.000809
  8C   1s         0.000034  0.000062  0.000006  0.000129 -0.151074 -0.983671
  8C   2s         0.000020  0.000782 -0.000005  0.000677 -0.005803 -0.036127
  8C   1pz        0.000070  0.000012 -0.000029  0.000053 -0.000028 -0.000074
  8C   1px       -0.000766  0.000050 -0.000202 -0.000133  0.000389  0.001957
  8C   1py       -0.000178  0.000091 -0.000275  0.000167  0.000127  0.000959
  8C   3s         0.005025 -0.003620  0.002119 -0.001119  0.004443  0.023344
  8C   2pz       -0.000050 -0.000289  0.000055 -0.000633  0.000111  0.000248
  8C   2px       -0.000992  0.001964 -0.000486  0.001928 -0.000579  0.000595
  8C   2py       -0.000910 -0.000077 -0.000062 -0.001772  0.000147  0.001604
  8C   1dz2       0.000213 -0.000080  0.000019  0.000046  0.000051  0.000485
  8C   1dxz      -0.000019  0.000016  0.000031  0.000033  0.000004  0.000030
  8C   1dyz      -0.000055  0.000028 -0.000030  0.000063  0.000004  0.000002
  8C   1dx2y2     0.000085 -0.000077  0.000015 -0.000312 -0.000055 -0.000391
  8C   1dxy      -0.000287  0.000124  0.000129 -0.000099 -0.000075 -0.000685
  9H   1s        -0.000392  0.000151 -0.000072 -0.000237  0.000114  0.000839
  9H   2s        -0.000802 -0.000261 -0.000091 -0.001005 -0.000529 -0.004403
 10H   1s        -0.000318  0.000332 -0.000116  0.000293  0.000014  0.000571
 10H   2s        -0.000721  0.000387 -0.000500  0.000434 -0.000756 -0.005101
 11H   1s        -0.000318  0.000332 -0.000116  0.000293  0.000014  0.000571
 11H   2s        -0.000721  0.000387 -0.000500  0.000434 -0.000756 -0.005101
                      6         7         8         9        10        11   
                  -1.13087  -1.06741  -0.99699  -0.76295  -0.70285  -0.57772
                   2.00000   2.00000   2.00000   2.00000   2.00000   2.00000
                  --------  --------  --------  --------  --------  --------
  0O   1s        -0.122811 -0.146018  0.072749 -0.004700  0.038238 -0.048829
  0O   2s         0.266952  0.321734 -0.162371  0.010779 -0.090543  0.119053
  0O   1pz        0.011044  0.017386 -0.004489 -0.030686  0.018558  0.013317
  0O   1px        0.020285 -0.021071  0.019039  0.244537 -0.193363 -0.199054
  0O   1py        0.067258  0.070126 -0.008934  0.016071 -0.040408 -0.069605
  0O   3s         0.268331  0.326334 -0.166864  0.017841 -0.112090  0.149565
  0O   2pz        0.005356  0.009166 -0.001266 -0.013157  0.008594  0.003393
  0O   2px        0.015375 -0.007211  0.007641  0.101781 -0.086356 -0.084817
  0O   2py        0.036352  0.039634 -0.001007  0.004771 -0.016474 -0.040768
  0O   1dz2      -0.007437 -0.006051  0.001641  0.000342 -0.001452  0.002981
  0O   1dxz      -0.001529 -0.001856  0.001930  0.002858 -0.003197 -0.000312
  0O   1dyz       0.001012  0.001730  0.000021 -0.001780  0.000818 -0.000475
  0O   1dx2y2     0.005048  0.002561 -0.005573 -0.001008  0.005638  0.000334
  0O   1dxy       0.004964  0.000210  0.003506  0.012282 -0.009608 -0.004805
  1C   1s        -0.120225 -0.000004 -0.057876 -0.084797 -0.000004  0.073460
  1C   2s         0.235641  0.000005  0.117077  0.187654 -0.000003 -0.170573
  1C   1pz       -0.000963  0.019018  0.051398 -0.036838 -0.023540  0.023401
  1C   1px        0.000367 -0.162616 -0.019267  0.013803  0.201263 -0.008754
  1C   1py       -0.004428 -0.017387  0.236367 -0.169400  0.021518  0.107629
  1C   3s         0.024465 -0.000053  0.032792  0.095560 -0.000001 -0.123743
  1C   2pz        0.002081 -0.004660 -0.002574 -0.003541 -0.000885  0.005043
  1C   2px       -0.000733  0.039925  0.000932  0.001328  0.007698 -0.001781
  1C   2py        0.009601  0.004260 -0.011842 -0.016312  0.000884  0.023264
  1C   1dz2      -0.015746 -0.000931 -0.004703 -0.007979  0.001055  0.003614
  1C   1dxz      -0.004113  0.004818  0.001631 -0.002364 -0.005426  0.001075
  1C   1dyz       0.005296 -0.001989  0.008800  0.001973  0.002240 -0.000877
  1C   1dx2y2     0.002434 -0.004003 -0.029366  0.004193  0.004502 -0.001961
  1C   1dxy       0.001202  0.021035 -0.005330  0.001172 -0.023698 -0.000553
  2O   1s        -0.122815  0.146015  0.072743 -0.004701 -0.038238 -0.048834
  2O   2s         0.266986 -0.321755 -0.162378  0.010773  0.090532  0.119088
  2O   1pz        0.017018 -0.013820 -0.000241  0.026330  0.027053 -0.034146
  2O   1px       -0.030804 -0.009376 -0.017267 -0.242914 -0.196576  0.206825
  2O   1py        0.061798 -0.073384 -0.012817 -0.036063 -0.001300 -0.026214
  2O   3s         0.268249 -0.326238 -0.166775  0.017891  0.112170  0.149479
  2O   2pz        0.009597 -0.008238  0.000497  0.010536  0.011742 -0.017069
  2O   2px       -0.020976 -0.000690 -0.007356 -0.100802 -0.087590  0.089995
  2O   2py        0.032436 -0.040442 -0.002576 -0.016866 -0.002112 -0.022141
  2O   1dz2      -0.007119  0.006094  0.002036  0.001412  0.002372  0.002581
  2O   1dxz      -0.003147  0.001606 -0.000126 -0.002670 -0.001558  0.001785
  2O   1dyz       0.001679 -0.001626  0.000870  0.000506  0.001147 -0.001343
  2O   1dx2y2     0.006391 -0.002350 -0.003864  0.003589 -0.001680 -0.001406
  2O   1dxy      -0.002105 -0.001304 -0.005470 -0.011882 -0.011179  0.004352
  3O   1s        -0.076153 -0.000004 -0.181106  0.036535  0.000004 -0.036782
  3O   2s         0.165918  0.000004  0.396589 -0.081510 -0.000004  0.084623
  3O   1pz       -0.016797  0.002229 -0.030131 -0.000985 -0.003491  0.009310
  3O   1px        0.006297 -0.019056  0.011294  0.000371  0.029852 -0.003485
  3O   1py       -0.077244 -0.002041 -0.138562 -0.004532  0.003193  0.042811
  3O   3s         0.139661  0.000033  0.364291 -0.088211 -0.000048  0.107801
  3O   2pz       -0.005850  0.001974 -0.009342 -0.001781 -0.001816  0.005087
  3O   2px        0.002184 -0.016935  0.003518  0.000672  0.015539 -0.001908
  3O   2py       -0.026905 -0.001821 -0.042962 -0.008177  0.001675  0.023368
  3O   1dz2      -0.002304 -0.000186 -0.003158 -0.000237  0.000241  0.001204
  3O   1dxz       0.000060  0.000955 -0.000027  0.000112 -0.001243  0.000107
  3O   1dyz       0.002449 -0.000393  0.003084  0.000517  0.000513 -0.000930
  3O   1dx2y2    -0.006622 -0.000794 -0.007942 -0.001785  0.001032  0.001999
  3O   1dxy      -0.001142  0.004171 -0.001353 -0.000327 -0.005427  0.000322
  4C   1s        -0.035054 -0.052853  0.027995  0.110094 -0.123498  0.070158
  4C   2s         0.067846  0.097597 -0.055215 -0.218896  0.250857 -0.141265
  4C   1pz       -0.009907 -0.014630  0.008450  0.011309 -0.000357 -0.045555
  4C   1px        0.052470  0.072665 -0.036342 -0.038729 -0.021660  0.180578
  4C   1py       -0.012662 -0.021946  0.016469  0.028678 -0.016265 -0.099226
  4C   3s         0.015223  0.039360 -0.022235 -0.178369  0.218424 -0.160995
  4C   2pz        0.000237  0.000480 -0.000356 -0.000518  0.002797 -0.015204
  4C   2px       -0.006766  0.002666  0.005801  0.001737 -0.024931  0.064304
  4C   2py       -0.003430  0.004083  0.002226 -0.001146 -0.003530 -0.030180
  4C   1dz2      -0.004738 -0.006511  0.002614  0.002728  0.001379 -0.011295
  4C   1dxz      -0.003029 -0.004378  0.002121  0.001985  0.000831 -0.007624
  4C   1dyz       0.000893  0.001308 -0.000710 -0.001264  0.000401  0.003893
  4C   1dx2y2     0.007139  0.010045 -0.004269 -0.002233 -0.004095  0.012179
  4C   1dxy      -0.003937 -0.006267  0.004061  0.004580 -0.000377 -0.014303
  5H   1s         0.008969  0.015781 -0.010256 -0.067392  0.094040 -0.078295
  5H   2s        -0.001966  0.003505  0.001748 -0.015111  0.022496 -0.031845
  6H   1s         0.011104  0.015797 -0.008643 -0.059437  0.081734 -0.099076
  6H   2s         0.001881  0.000639  0.001547 -0.009824  0.019690 -0.043860
  7H   1s         0.011102  0.015794 -0.008643 -0.059424  0.081716 -0.099057
  7H   2s         0.001876  0.000629  0.001554 -0.009791  0.019645 -0.043847
  8C   1s        -0.035056  0.052854  0.027995  0.110089  0.123495  0.070172
  8C   2s         0.067845 -0.097580 -0.055201 -0.218872 -0.250848 -0.141348
  8C   1pz        0.002024 -0.001808  0.000333  0.002863  0.005680 -0.005549
  8C   1px       -0.049525  0.067868  0.033054  0.033430 -0.023905 -0.161410
  8C   1py       -0.023563  0.036964  0.023885  0.036379  0.011377 -0.135822
  8C   3s         0.015247 -0.039417 -0.022279 -0.178396 -0.218402 -0.160899
  8C   2pz       -0.001392 -0.001187  0.001017 -0.000150  0.003040 -0.000831
  8C   2px        0.007214  0.003283 -0.006050 -0.001505 -0.025021 -0.058187
  8C   2py       -0.001982 -0.003392  0.000974 -0.001426 -0.001777 -0.043300
  8C   1dz2      -0.005215  0.007244  0.003044  0.003174 -0.001412 -0.012762
  8C   1dxz      -0.000588  0.000625 -0.000090 -0.000285 -0.000621 -0.000026
  8C   1dyz      -0.000114  0.000240  0.000203 -0.000328 -0.000489  0.000757
  8C   1dx2y2     0.005115 -0.006932 -0.002435 -0.000351  0.003919  0.005873
  8C   1dxy       0.006727 -0.010131 -0.005598 -0.005349  0.001269  0.018849
  9H   1s         0.008965 -0.015776 -0.010254 -0.067379 -0.094025 -0.078284
  9H   2s        -0.001995 -0.003470  0.001762 -0.015042 -0.022441 -0.031869
 10H   1s         0.011104 -0.015792 -0.008639 -0.059426 -0.081722 -0.099087
 10H   2s         0.001878 -0.000628  0.001564 -0.009796 -0.019657 -0.043903
 11H   1s         0.011106 -0.015796 -0.008642 -0.059437 -0.081737 -0.099106
 11H   2s         0.001900 -0.000664  0.001536 -0.009871 -0.019742 -0.043928
                     12        13        14        15        16        17   
                  -0.54773  -0.50152  -0.48037  -0.46347  -0.45370  -0.43549
                   2.00000   2.00000   2.00000   2.00000   2.00000   2.00000
                  --------  --------  --------  --------  --------  --------
  0O   1s         0.036155  0.000003  0.022283  0.000018  0.027124  0.006497
  0O   2s        -0.086356 -0.000009 -0.051554 -0.000043 -0.058242 -0.017755
  0O   1pz        0.003813 -0.268072  0.062211 -0.228785  0.068657 -0.008866
  0O   1px        0.229645 -0.037257 -0.098971 -0.031970 -0.216538 -0.030714
  0O   1py        0.173320  0.055297  0.234583  0.047292  0.186204 -0.063607
  0O   3s        -0.119039  0.000012 -0.060896 -0.000064 -0.117676 -0.024464
  0O   2pz        0.005274 -0.159194  0.037536 -0.142669  0.038660 -0.002572
  0O   2px        0.099308 -0.022143 -0.045602 -0.019946 -0.114318 -0.020733
  0O   2py        0.092499  0.032833  0.150974  0.029474  0.109793 -0.026282
  0O   1dz2      -0.002796 -0.005120 -0.002761 -0.005687 -0.002601 -0.001173
  0O   1dxz       0.001502 -0.001281  0.000108  0.005775 -0.001767  0.000997
  0O   1dyz       0.002688 -0.014308  0.004848 -0.011032  0.005135 -0.001328
  0O   1dx2y2    -0.010404 -0.003199 -0.014240 -0.001554 -0.010961  0.002785
  0O   1dxy       0.003771 -0.001894 -0.005179 -0.002920 -0.012012  0.007807
  1C   1s        -0.000002 -0.000000 -0.045400 -0.000013  0.000043 -0.060839
  1C   2s         0.000016  0.000003  0.112890  0.000047 -0.000080  0.149226
  1C   1pz        0.032692 -0.254180  0.032897 -0.000118 -0.005419  0.045703
  1C   1px       -0.279422 -0.035372 -0.012311  0.000045  0.046057 -0.017139
  1C   1py       -0.029904  0.052403  0.151003  0.000053  0.004772  0.210499
  1C   3s         0.000100 -0.000023  0.033919  0.000001  0.000007  0.082483
  1C   2pz        0.006302 -0.112588  0.013569 -0.000046  0.001244 -0.001704
  1C   2px       -0.053826 -0.015613 -0.005070  0.000004 -0.010772  0.000665
  1C   2py       -0.005716  0.023190  0.062205  0.000001 -0.001197 -0.007711
  1C   1dz2      -0.000587  0.001546 -0.000878 -0.003482  0.001081  0.002989
  1C   1dxz       0.002988 -0.000214 -0.001874  0.016902 -0.005599  0.002015
  1C   1dyz      -0.001233  0.003913 -0.003858  0.002254  0.002305  0.002127
  1C   1dx2y2    -0.002481  0.000799  0.017448  0.002776  0.004639 -0.013510
  1C   1dxy       0.013063  0.000643  0.003343 -0.003304 -0.024385 -0.002715
  2O   1s        -0.036153 -0.000001  0.022262 -0.000006 -0.027135  0.006468
  2O   2s         0.086366 -0.000004 -0.051504  0.000026  0.058275 -0.017687
  2O   1pz       -0.060309 -0.268227  0.043605  0.228641 -0.021969 -0.017241
  2O   1px        0.253662 -0.037242  0.059308  0.031641 -0.182862  0.040235
  2O   1py       -0.121663  0.055324  0.251439 -0.047225 -0.229031 -0.056290
  2O   3s         0.118968  0.000046 -0.060800 -0.000048  0.117630 -0.024396
  2O   2pz       -0.030049 -0.159278  0.029759  0.142558 -0.014232 -0.007920
  2O   2px        0.112575 -0.022093  0.020301  0.019720 -0.094572  0.024582
  2O   2py       -0.069948  0.032870  0.158053 -0.029461 -0.132307 -0.021671
  2O   1dz2       0.002323 -0.005962 -0.002990  0.003563  0.003474 -0.000545
  2O   1dxz       0.000982  0.002790  0.001266  0.004516 -0.002699 -0.002206
  2O   1dyz      -0.003717 -0.013773  0.004365  0.012393 -0.003301 -0.000014
  2O   1dx2y2     0.008341 -0.002529 -0.015192  0.003232  0.014663  0.005461
  2O   1dxy       0.007091 -0.002687 -0.000131  0.000905 -0.007442 -0.006171
  3O   1s        -0.000001  0.000008  0.078336  0.000016 -0.000053  0.069225
  3O   2s         0.000015 -0.000022 -0.176106 -0.000040  0.000122 -0.155148
  3O   1pz        0.014016 -0.141991 -0.050670 -0.000081  0.007056 -0.080088
  3O   1px       -0.119777 -0.019747  0.018978 -0.000032 -0.059913  0.029960
  3O   1py       -0.012807  0.029248 -0.233187 -0.000046 -0.006169 -0.368082
  3O   3s        -0.000060 -0.000003 -0.296985 -0.000041  0.000194 -0.256369
  3O   2pz        0.007738 -0.075609 -0.025066 -0.000050  0.004435 -0.044477
  3O   2px       -0.066079 -0.010526  0.009365 -0.000018 -0.037683  0.016610
  3O   2py       -0.007042  0.015559 -0.115304 -0.000031 -0.003897 -0.204360
  3O   1dz2      -0.000482  0.004638 -0.006882 -0.000379 -0.000047 -0.007902
  3O   1dxz       0.002483 -0.000634 -0.000837  0.001842  0.000274 -0.000416
  3O   1dyz      -0.001024  0.011765  0.004730  0.000253 -0.000117  0.006811
  3O   1dx2y2    -0.002058  0.002398 -0.009017  0.000299 -0.000216 -0.016079
  3O   1dxy       0.010831  0.001923 -0.001378 -0.000358  0.001194 -0.002666
  4C   1s        -0.036009 -0.000002  0.002309  0.000000  0.001449  0.001284
  4C   2s         0.068925  0.000016 -0.001225  0.000027  0.003174 -0.003570
  4C   1pz        0.049466 -0.186949  0.004356 -0.277232 -0.006246 -0.030844
  4C   1px       -0.125574 -0.025996  0.157735 -0.038388  0.247771 -0.081930
  4C   1py        0.155259  0.038573  0.127161  0.057237  0.135869 -0.205014
  4C   3s         0.090037 -0.000018 -0.013934 -0.000055 -0.017231 -0.001962
  4C   2pz        0.018323 -0.079123  0.004464 -0.125360  0.001996 -0.014056
  4C   2px       -0.035132 -0.010968  0.043981 -0.017330  0.090931 -0.042944
  4C   2py        0.065218  0.016382  0.051543  0.025964  0.071119 -0.097683
  4C   1dz2       0.010542 -0.000120  0.001134 -0.002435 -0.000030 -0.008140
  4C   1dxz       0.006392 -0.007597 -0.002420 -0.005126 -0.004640 -0.000266
  4C   1dyz      -0.004772 -0.005447 -0.001746 -0.009859 -0.000823  0.002582
  4C   1dx2y2    -0.006006 -0.002181  0.010516 -0.002769  0.013385 -0.002493
  4C   1dxy       0.013367  0.000804 -0.005996 -0.000406 -0.013135  0.006928
  5H   1s         0.015248 -0.000004 -0.111112 -0.000088 -0.154482  0.126629
  5H   2s         0.009563  0.000004 -0.085484 -0.000056 -0.115365  0.093660
  6H   1s         0.084692  0.080718  0.019909  0.127961  0.016081 -0.061422
  6H   2s         0.043502  0.055060  0.005236  0.089690  0.007175 -0.051072
  7H   1s         0.084676 -0.080687  0.019960 -0.127927  0.016237 -0.061374
  7H   2s         0.043527 -0.055063  0.005319 -0.089711  0.007355 -0.051133
  8C   1s         0.036009  0.000005  0.002321 -0.000007 -0.001468  0.001273
  8C   2s        -0.069004  0.000031 -0.001262 -0.000043 -0.003092 -0.003543
  8C   1pz       -0.023259 -0.187081  0.043244  0.277068 -0.053788 -0.053817
  8C   1px       -0.098281 -0.026061 -0.175474  0.038687  0.265454  0.113989
  8C   1py       -0.179216  0.038556  0.091446 -0.057130 -0.080795 -0.184145
  8C   3s        -0.089841 -0.000127 -0.013906  0.000174  0.017167 -0.001949
  8C   2pz       -0.011347 -0.079344  0.015580  0.125482 -0.024409 -0.025872
  8C   2px       -0.023963 -0.011043 -0.051407  0.017505  0.100626  0.057996
  8C   2py       -0.071509  0.016461  0.041222 -0.026015 -0.050386 -0.086802
  8C   1dz2      -0.011825 -0.003350  0.000448  0.004745  0.001387 -0.007531
  8C   1dxz       0.000257  0.008077  0.001089 -0.006101 -0.002290 -0.003371
  8C   1dyz       0.002026 -0.003371 -0.003194  0.008373  0.003681  0.003862
  8C   1dx2y2     0.000491  0.000382  0.007591  0.000940 -0.007623  0.000079
  8C   1dxy       0.015650 -0.002241  0.009340  0.002568 -0.017173 -0.006656
  9H   1s        -0.015234 -0.000028 -0.111034  0.000095  0.154419  0.126796
  9H   2s        -0.009569  0.000034 -0.085463 -0.000000  0.115431  0.093868
 10H   1s        -0.084691 -0.080761  0.019895  0.127882 -0.016167 -0.061394
 10H   2s        -0.043591 -0.055046  0.005293  0.089580 -0.007315 -0.051184
 11H   1s        -0.084715  0.080774  0.019886 -0.127912 -0.015949 -0.061379
 11H   2s        -0.043579  0.055027  0.005256 -0.089584 -0.007120 -0.051111
                     18        19        20        21        22        23   
                  -0.39268  -0.36240  -0.33090  -0.30074  -0.29001  -0.26660
                   2.00000   2.00000   2.00000   2.00000   2.00000   2.00000
                  --------  --------  --------  --------  --------  --------
  0O   1s         0.000001 -0.038417 -0.027866 -0.000001  0.000002 -0.000257
  0O   2s        -0.000002  0.084146  0.062669  0.000020  0.000013  0.000522
  0O   1pz        0.086762 -0.058971 -0.069811  0.395514  0.292837  0.041794
  0O   1px        0.012076  0.080564  0.013408  0.054994  0.040722  0.049127
  0O   1py       -0.017912 -0.231859 -0.329494 -0.081596 -0.060347  0.235891
  0O   3s        -0.000021  0.183904  0.087595 -0.000085 -0.000083  0.055816
  0O   2pz        0.061650 -0.037779 -0.044874  0.298783  0.225893  0.033094
  0O   2px        0.008557  0.049379 -0.018639  0.041524  0.031412  0.039963
  0O   2py       -0.012746 -0.150128 -0.230243 -0.061678 -0.046587  0.187543
  0O   1dz2      -0.000934  0.006357  0.006350  0.004050  0.001799 -0.002248
  0O   1dxz       0.011488 -0.000202  0.000256  0.003729  0.002138 -0.000013
  0O   1dyz       0.005296 -0.003520 -0.003058  0.013138  0.006154  0.002448
  0O   1dx2y2     0.002680  0.007817  0.005256  0.003285  0.001593 -0.006497
  0O   1dxy      -0.001660 -0.003598 -0.003069  0.001190  0.000473 -0.001476
  1C   1s        -0.000006 -0.000004  0.016117  0.000001  0.000000 -0.000004
  1C   2s         0.000017  0.000005 -0.047104 -0.000019 -0.000009  0.000007
  1C   1pz        0.287276 -0.019699  0.040777  0.000003 -0.077648  0.001404
  1C   1px        0.039909  0.168649 -0.015252 -0.000011 -0.010779 -0.011995
  1C   1py       -0.059178  0.018024  0.187563  0.000028  0.015976 -0.001285
  1C   3s         0.000036  0.000011 -0.015466  0.000102  0.000021  0.000073
  1C   2pz        0.142780 -0.008169 -0.020656 -0.000044 -0.038419 -0.011378
  1C   2px        0.019810  0.069844  0.007823 -0.000080 -0.005438  0.097310
  1C   2py       -0.029424  0.007436 -0.094838  0.000011  0.007944  0.010379
  1C   1dz2       0.003075 -0.000878  0.001155  0.006062 -0.014887 -0.001875
  1C   1dxz      -0.000415  0.004538  0.003181 -0.029461  0.002033  0.009645
  1C   1dyz       0.007804 -0.001872  0.006876 -0.003928 -0.037747 -0.003980
  1C   1dx2y2     0.001585 -0.003770 -0.030465 -0.004834 -0.007694 -0.008006
  1C   1dxy       0.001273  0.019819 -0.005821  0.005728 -0.006152  0.042137
  2O   1s        -0.000005  0.038421 -0.027849 -0.000003  0.000004  0.000260
  2O   2s         0.000003 -0.084169  0.062652  0.000001 -0.000007 -0.000547
  2O   1pz        0.086806  0.044669 -0.072814 -0.395442  0.292994 -0.057678
  2O   1px        0.012090  0.041688  0.040095 -0.054962  0.040732  0.086389
  2O   1py       -0.017927  0.244936 -0.326549  0.081454 -0.060367 -0.221361
  2O   3s         0.000075 -0.183884  0.087404  0.000052 -0.000020 -0.055789
  2O   2pz        0.061675  0.029169 -0.053475 -0.298647  0.225976 -0.045939
  2O   2px        0.008596  0.024292  0.055593 -0.041501  0.031373  0.069679
  2O   2py       -0.012725  0.158036 -0.222313  0.061547 -0.046581 -0.175782
  2O   1dz2       0.003881 -0.005949  0.006029 -0.005858  0.002808  0.002277
  2O   1dxz      -0.011886 -0.001920  0.001928  0.005073 -0.002766 -0.000140
  2O   1dyz       0.002184  0.004394 -0.003744 -0.011963  0.005506 -0.002386
  2O   1dx2y2    -0.001145 -0.006054  0.003861 -0.001837  0.000787  0.006619
  2O   1dxy       0.002882 -0.005649  0.004226 -0.002903  0.001427  0.000809
  3O   1s         0.000009  0.000003  0.016813  0.000004 -0.000003  0.000004
  3O   2s        -0.000014 -0.000014 -0.042084  0.000004  0.000013 -0.000023
  3O   1pz        0.260874 -0.023463 -0.052711 -0.000082 -0.444791 -0.066976
  3O   1px        0.036254  0.200857  0.019756 -0.000035 -0.061795  0.572827
  3O   1py       -0.053830  0.021471 -0.242262 -0.000021  0.091714  0.061246
  3O   3s        -0.000055  0.000019 -0.020511 -0.000067 -0.000016  0.000012
  3O   2pz        0.157158 -0.015032 -0.034482 -0.000042 -0.324854 -0.046554
  3O   2px        0.021847  0.128676  0.012896 -0.000008 -0.045101  0.398124
  3O   2py       -0.032409  0.013753 -0.158492  0.000018  0.066967  0.042574
  3O   1dz2      -0.007109  0.000526 -0.003742  0.000248  0.008581  0.001059
  3O   1dxz       0.000970 -0.002714 -0.000225 -0.001191 -0.001174 -0.005460
  3O   1dyz      -0.018029  0.001117  0.003157 -0.000158  0.021764  0.002247
  3O   1dx2y2    -0.003679  0.002252 -0.007331 -0.000194  0.004441  0.004530
  3O   1dxy      -0.002942 -0.011846 -0.001209  0.000232  0.003548 -0.023809
  4C   1s         0.000000  0.002298  0.005985  0.000002  0.000000 -0.010767
  4C   2s         0.000026 -0.008060 -0.022391  0.000017  0.000016  0.030419
  4C   1pz       -0.249710  0.052012  0.040254 -0.162010 -0.079099 -0.004042
  4C   1px       -0.034773 -0.008650 -0.017533 -0.022544 -0.011001  0.008130
  4C   1py        0.051404  0.246412  0.183226  0.033401  0.016294 -0.014036
  4C   3s        -0.000048  0.005288 -0.005064 -0.000042 -0.000019  0.040316
  4C   2pz       -0.120705  0.018839  0.014572 -0.059182 -0.016958  0.001986
  4C   2px       -0.016756 -0.009952  0.003619 -0.008170 -0.002321 -0.049579
  4C   2py        0.024914  0.085073  0.073369  0.012231  0.003489 -0.023850
  4C   1dz2      -0.006479  0.014590  0.011358 -0.010233 -0.006886 -0.000670
  4C   1dxz       0.006586  0.002074  0.001346  0.017712  0.011632 -0.000262
  4C   1dyz      -0.012578 -0.001520  0.000095 -0.014939 -0.010243 -0.001912
  4C   1dx2y2    -0.001766 -0.009302 -0.010784 -0.000753 -0.000583  0.007267
  4C   1dxy      -0.003318 -0.013673 -0.014117 -0.006070 -0.004050  0.004166
  5H   1s         0.000067 -0.142072 -0.118081  0.000011  0.000016  0.025854
  5H   2s         0.000074 -0.143779 -0.114911  0.000047  0.000036 -0.004897
  6H   1s         0.134510  0.095079  0.074249  0.120142  0.068878 -0.007009
  6H   2s         0.100464  0.089616  0.078167  0.130927  0.104894 -0.041890
  7H   1s        -0.134535  0.095065  0.074279 -0.120124 -0.068878 -0.007020
  7H   2s        -0.100528  0.089720  0.078286 -0.130932 -0.104908 -0.041912
  8C   1s         0.000005 -0.002308  0.005990 -0.000003 -0.000001  0.010766
  8C   2s         0.000019  0.008139 -0.022462  0.000031 -0.000042 -0.030430
  8C   1pz       -0.249640 -0.054714  0.039601  0.162017 -0.079188  0.002432
  8C   1px       -0.034693  0.031408 -0.012460  0.022523 -0.011014  0.005695
  8C   1py        0.051420 -0.244057  0.183795 -0.033364  0.016307  0.015596
  8C   3s        -0.000099 -0.005395 -0.004946 -0.000053  0.000128 -0.040318
  8C   2pz       -0.120741 -0.018162  0.016781  0.059092 -0.016904  0.009923
  8C   2px       -0.016770  0.003939 -0.015333  0.008208 -0.002386 -0.052399
  8C   2py        0.024933 -0.085603  0.071183 -0.012141  0.003453  0.012806
  8C   1dz2      -0.004058 -0.013624  0.010361  0.003316 -0.002354  0.000438
  8C   1dxz      -0.005149 -0.007043  0.006455  0.015867 -0.010383  0.001487
  8C   1dyz      -0.014145  0.003566 -0.002015  0.019411 -0.013183  0.001409
  8C   1dx2y2    -0.003687  0.013429 -0.015022  0.006246 -0.004188 -0.008284
  8C   1dxy      -0.001041 -0.008039  0.008202 -0.000460  0.000230  0.001162
  9H   1s         0.000004  0.142143 -0.118106 -0.000001 -0.000007 -0.025899
  9H   2s         0.000038  0.143962 -0.115101  0.000014 -0.000017  0.004671
 10H   1s        -0.134499 -0.095093  0.074229  0.120142 -0.068952  0.007052
 10H   2s        -0.100430 -0.089767  0.078249  0.130931 -0.104990  0.041968
 11H   1s         0.134502 -0.095051  0.074252 -0.120125  0.068938  0.007034
 11H   2s         0.100448 -0.089718  0.078284 -0.130920  0.104948  0.041940
                     24        25        26        27        28        29   
                   0.03451   0.08786   0.11048   0.11707   0.15609   0.15682
                   0.00000   0.00000   0.00000   0.00000   0.00000   0.00000
                  --------  --------  --------  --------  --------  --------
  0O   1s         0.000018 -0.088963  0.019920  0.007056 -0.021134  0.024936
  0O   2s        -0.000011  0.185799 -0.041254 -0.022234  0.037545 -0.045381
  0O   1pz        0.222328  0.019072 -0.008858  0.004555  0.001995 -0.023953
  0O   1px        0.030905  0.046596  0.008862 -0.004699 -0.025567  0.073822
  0O   1py       -0.045841  0.123439 -0.037136  0.019439 -0.007337 -0.065198
  0O   3s        -0.000263  0.921425 -0.190388 -0.066945  0.276337 -0.353482
  0O   2pz        0.199290  0.049343 -0.017796  0.003191  0.004532 -0.056258
  0O   2px        0.027789 -0.027710  0.103603 -0.020375 -0.090781  0.140130
  0O   2py       -0.041175  0.220102 -0.016633  0.002325 -0.039036 -0.176707
  0O   1dz2       0.003357 -0.004422 -0.008305  0.004897 -0.002852 -0.002236
  0O   1dxz      -0.024171  0.001035 -0.003638  0.002075 -0.002326 -0.002112
  0O   1dyz      -0.007511  0.005784 -0.000180 -0.000839  0.003915  0.003654
  0O   1dx2y2    -0.004862 -0.018366  0.014369 -0.005203 -0.005553 -0.005611
  0O   1dxy       0.004047 -0.001456  0.002050  0.000486 -0.010911 -0.010670
  1C   1s        -0.000017  0.098637 -0.018836  0.000228 -0.000798  0.014709
  1C   2s         0.000044 -0.152811  0.100758 -0.000102  0.001064 -0.022985
  1C   1pz       -0.565053  0.046269 -0.019863 -0.000780 -0.015092 -0.005562
  1C   1px       -0.078534 -0.017498  0.007658  0.008829  0.132256  0.009691
  1C   1py        0.116435  0.213484 -0.091407  0.001221  0.015827 -0.022124
  1C   3s         0.000170 -1.065579 -0.202645 -0.004445  0.010040 -0.164074
  1C   2pz       -0.499576  0.026659 -0.037952  0.008859 -0.016087 -0.039529
  1C   2px       -0.069536 -0.010502  0.014692 -0.074133  0.158103  0.024291
  1C   2py        0.103094  0.122810 -0.174540 -0.007536  0.028390 -0.176180
  1C   1dz2       0.006708 -0.021513  0.007499 -0.000203  0.000355 -0.005583
  1C   1dxz      -0.000912 -0.007584  0.003223  0.000874 -0.000272 -0.001139
  1C   1dyz       0.017013  0.002266  0.000709 -0.000355 -0.000024  0.002721
  1C   1dx2y2     0.003467  0.024029 -0.014609 -0.000718  0.000486 -0.002566
  1C   1dxy       0.002778  0.005569 -0.003144  0.003859 -0.001395 -0.000289
  2O   1s         0.000018 -0.088917  0.020122 -0.007407  0.017888  0.027050
  2O   2s        -0.000037  0.185748 -0.041508  0.023133 -0.031515 -0.049233
  2O   1pz        0.222350  0.032203 -0.007551 -0.003860  0.004969 -0.007418
  2O   1px        0.030912 -0.065818 -0.003033 -0.001989 -0.018933 -0.064017
  2O   1py       -0.045838  0.111392 -0.038349 -0.019635  0.011583 -0.078490
  2O   3s        -0.000192  0.920833 -0.193651  0.070228 -0.231558 -0.380259
  2O   2pz        0.199289  0.047091  0.005787  0.001662  0.020253 -0.024690
  2O   2px        0.027597 -0.009032 -0.100449 -0.021817 -0.081907 -0.117816
  2O   2py       -0.041155  0.222080 -0.038653 -0.005650  0.043164 -0.198371
  2O   1dz2      -0.006698 -0.004230 -0.008315 -0.005091  0.004111 -0.002651
  2O   1dxz       0.024628  0.000254 -0.003162 -0.001341 -0.002344  0.001932
  2O   1dyz      -0.001006  0.006113 -0.000396  0.000553 -0.002291  0.001620
  2O   1dx2y2     0.003126 -0.017719  0.013934  0.004561  0.010158 -0.008000
  2O   1dxy      -0.005439 -0.005017  0.004014  0.002756 -0.009366  0.007133
  3O   1s         0.000009 -0.024094 -0.019549 -0.000136  0.000114 -0.001174
  3O   2s        -0.000008  0.046219  0.046224  0.000327  0.000741 -0.013795
  3O   1pz        0.370646 -0.012097 -0.001358 -0.011062  0.001088 -0.006765
  3O   1px        0.051537  0.004350  0.000116  0.093854 -0.006204  0.002436
  3O   1py       -0.076393 -0.056112 -0.006518  0.009840  0.001217 -0.030974
  3O   3s        -0.000156  0.274344  0.224963  0.001310 -0.009543  0.147777
  3O   2pz        0.383059 -0.035028 -0.021771 -0.007833  0.004213 -0.017716
  3O   2px        0.053263  0.013105  0.007842  0.064939 -0.027013  0.005203
  3O   2py       -0.078883 -0.161515 -0.100175  0.006177  0.002329 -0.081870
  3O   1dz2       0.002140 -0.011534 -0.002013  0.000191  0.000329 -0.003683
  3O   1dxz      -0.000290 -0.002098  0.000435 -0.001203 -0.000483 -0.001385
  3O   1dyz       0.005416  0.006184  0.003092  0.000517  0.000213  0.000253
  3O   1dx2y2     0.001107 -0.007820 -0.009779  0.000931  0.000218  0.004708
  3O   1dxy       0.000880 -0.000927 -0.001738 -0.005244 -0.002533  0.000913
  4C   1s         0.000002  0.024228 -0.110363  0.095081  0.013780 -0.028839
  4C   2s         0.000000 -0.067341  0.163536 -0.124610 -0.017577  0.042531
  4C   1pz        0.042582  0.060493  0.004762 -0.027912  0.049864  0.025975
  4C   1px        0.005996 -0.215576 -0.065438  0.152314  0.067527  0.198341
  4C   1py       -0.008775  0.148266 -0.020681 -0.032929  0.286667  0.256851
  4C   3s        -0.000031 -0.094917  1.617640 -1.502348 -0.209153  0.360147
  4C   2pz        0.166474  0.151528  0.029077 -0.089337  0.152315  0.058980
  4C   2px        0.023350 -0.478959 -0.236115  0.387536  0.148673  0.649170
  4C   2py       -0.034440  0.413870 -0.016268 -0.174229  0.838045  0.715918
  4C   1dz2      -0.007180 -0.009459  0.001982  0.003034 -0.010695 -0.005093
  4C   1dxz       0.012232 -0.003575  0.000153  0.001440 -0.001696  0.002305
  4C   1dyz      -0.010605  0.000323  0.000396 -0.000990  0.002528  0.001424
  4C   1dx2y2    -0.000577  0.013302 -0.002906 -0.002069  0.002583 -0.006706
  4C   1dxy      -0.004238  0.003028 -0.003505  0.001807  0.006540  0.012651
  5H   1s        -0.000018  0.032658 -0.041527  0.023416  0.070929  0.081966
  5H   2s         0.000101  0.206033 -0.901423  0.761532  1.162120  1.136470
  6H   1s         0.049651 -0.031672 -0.020351  0.037481 -0.040650 -0.028833
  6H   2s         0.219373 -0.306587 -0.696595  0.792229 -0.514743 -0.618276
  7H   1s        -0.049629 -0.031671 -0.020285  0.037430 -0.040645 -0.028956
  7H   2s        -0.219199 -0.305870 -0.695824  0.791389 -0.515351 -0.621952
[...]
10 H  s               0.1       0.0       0.2       1.0       0.8       1.7
11 H  s               0.1       0.0       0.2       1.0       0.8       1.7

                     78        79        80        81        82        83   
                   2.06748   2.09739   2.09833   2.15134   2.19059   2.28381
                   0.00000   0.00000   0.00000   0.00000   0.00000   0.00000
                  --------  --------  --------  --------  --------  --------
 0 O  s               6.2       1.5       0.0       0.0       0.3       0.2
 0 O  pz              0.0       0.0       0.4       2.7       0.0       0.0
 0 O  px              5.2       0.6       0.0       0.1       0.8       0.4
 0 O  py              0.5       2.0       0.0       0.1       0.0       0.1
 0 O  dz2             2.7       0.3       1.4       3.5       0.1       0.1
 0 O  dxz             0.4       0.0       9.2       0.7       0.0       0.0
 0 O  dyz             0.1       1.0       1.2      18.7       0.2       0.3
 0 O  dx2y2           1.5       9.2       0.0       0.6       1.8       1.3
 0 O  dxy             0.0       1.3       0.7       0.7       3.1       1.2
 1 C  s               1.6       0.0       0.0       0.0       4.3       0.3
 1 C  pz              0.1       0.0       0.0       1.2       0.0       0.0
 1 C  px              0.0       0.3       0.0       0.0       0.0       0.0
 1 C  py              3.1       0.0       0.0       0.1       0.7       0.9
 1 C  dz2             2.2       0.0       0.1       0.2      31.7       1.7
 1 C  dxz             0.3       0.2       3.3       0.0       1.8       0.0
 1 C  dyz             0.0       0.0       0.1       1.5       4.9       1.0
 1 C  dx2y2           2.4       0.1       0.1       0.1       0.2       4.8
 1 C  dxy             0.1       2.8       0.1       0.0       0.0       0.1
 2 O  s               6.3       1.5       0.0       0.0       0.3       0.2
 2 O  pz              0.1       0.2       0.4       2.7       0.0       0.0
 2 O  px              5.5       1.0       0.0       0.1       0.9       0.3
 2 O  py              0.1       1.6       0.0       0.1       0.0       0.1
 2 O  dz2             2.8       0.3       0.0       2.6       0.0       0.2
 2 O  dxz             0.2       0.1       8.3       0.1       0.3       0.0
 2 O  dyz             0.1       0.8       3.5      20.1       0.0       0.1
 2 O  dx2y2           1.2      10.5       0.7       1.0       3.6       2.1
 2 O  dxy             0.4       0.0       0.1       0.4       1.2       0.4
 3 O  s              12.8       0.0       0.0       0.0       1.1       5.9
 3 O  pz              0.0       0.0       0.0       0.3       0.1       0.1
 3 O  py              0.5       0.0       0.0       0.0       2.5       1.4
 3 O  dz2             1.3       0.0       0.0       0.1       4.1       0.7
 3 O  dxz             0.0       0.3       0.7       0.0       0.5       0.1
 3 O  dyz             0.4       0.0       0.0       0.6       0.1       0.0
 3 O  dx2y2           1.0       0.2       0.0       0.0       4.8       0.8
 3 O  dxy             0.0       5.1       0.0       0.0       0.3       0.0
 4 C  s               0.6       0.0       0.0       0.0       0.3       0.4
 4 C  pz              0.0       0.0       2.4       1.4       0.0       0.0
 4 C  px              0.6       0.3       0.0       0.0       0.0       0.6
 4 C  py              0.4       1.9       0.1       0.1       0.9       0.6
 4 C  dz2             0.4       9.8       0.9       0.0       9.8       6.3
 4 C  dxz             0.2       0.1       5.7      10.8       0.8       0.1
 4 C  dyz             1.1       3.1      18.2       5.8       1.4       0.0
 4 C  dx2y2          16.1      10.7       1.4       0.9       0.0       0.1
 4 C  dxy             0.1       0.2       0.0       0.1       0.1      23.2
 5 H  s               0.8       2.5       0.0       0.0       0.7       4.2
 6 H  s               0.0       0.4       3.0       0.9       0.5       1.0
 7 H  s               0.0       0.4       3.0       0.9       0.5       1.0
 8 C  s               0.5       0.0       0.0       0.0       0.3       0.4
 8 C  pz              0.0       0.1       2.3       1.4       0.0       0.1
 8 C  px              0.7       0.6       0.0       0.0       0.0       0.8
 8 C  py              0.3       1.5       0.1       0.1       0.9       0.4
 8 C  dz2             0.3       9.4       4.2       2.2      10.0       4.5
 8 C  dxz             0.0       0.4       7.9      12.2       0.5       2.9
 8 C  dyz             1.6       3.8      12.8       2.3       1.3       1.0
 8 C  dx2y2          13.0       8.5       0.1       0.0       0.0       3.9
 8 C  dxy             3.0       1.9       1.3       1.0       0.3      17.5
 9 H  s               0.8       2.5       0.0       0.0       0.7       4.2
10 H  s               0.0       0.4       3.0       0.9       0.5       1.0
11 H  s               0.0       0.4       3.0       0.9       0.5       1.0

                     84        85        86        87        88        89   
                   2.30886   2.32093   2.33206   2.53400   2.62010   2.69456
                   0.00000   0.00000   0.00000   0.00000   0.00000   0.00000
                  --------  --------  --------  --------  --------  --------
 0 O  s               0.0       0.1       0.0       0.0       9.9      19.1
 0 O  pz              0.2       0.0       0.7       1.0       0.2       0.1
 0 O  px              0.0       0.0       0.0       0.0       1.9       0.5
 0 O  py              0.0       0.4       0.0       0.0       1.9       1.3
 0 O  dz2             0.6       2.7       2.4       0.4      10.3      10.2
 0 O  dxz             6.3       0.1       8.4       7.4       1.0       1.2
 0 O  dyz             0.1       1.3       4.6      11.6       2.0       0.5
 0 O  dx2y2           0.1       4.3       0.0       1.2       0.0       4.5
 0 O  dxy             0.3       0.4       0.9       0.0       1.1       0.0
 1 C  s               0.0       0.0       0.0       0.0       1.1       0.0
 1 C  pz              1.1       0.0       0.0       0.0       0.1       0.0
 1 C  px              0.0       0.7       0.0       0.0       0.0       2.7
 1 C  py              0.0       0.0       0.0       0.0       1.1       0.0
 1 C  dz2             0.5       0.0       0.1       1.6       5.9       0.0
 1 C  dxz             0.0       0.0       3.2      37.5       0.7       0.1
 1 C  dyz             2.9       0.0       0.1       0.7       0.1       0.0
 1 C  dx2y2           0.1       0.0       0.1       1.0       6.8       0.0
 1 C  dxy             0.1       0.1       0.1       1.4       0.4       1.1
 2 O  s               0.0       0.1       0.0       0.0       9.8      19.2
 2 O  pz              0.2       0.0       0.7       1.0       0.0       0.1
 2 O  px              0.0       0.1       0.0       0.0       1.4       0.6
 2 O  py              0.0       0.3       0.0       0.0       2.7       1.2
 2 O  dz2             0.1       2.8       0.2       3.2      10.9      10.5
 2 O  dxz             6.0       0.0       6.8       9.3       0.3       0.8
 2 O  dyz             0.9       1.2       8.2       6.9       1.4       0.5
 2 O  dx2y2           0.3       4.7       0.9       0.0       0.4       3.9
 2 O  dxy             0.2       0.0       0.0       1.1       1.4       0.9
 3 O  s               0.0       0.0       0.0       0.0       0.8       0.0
 3 O  pz              0.7       0.0       0.0       0.0       0.0       0.0
 3 O  px              0.0       0.7       0.0       0.0       0.0       0.2
 3 O  dz2             2.2       0.0       0.0       0.2       0.2       0.0
 3 O  dxz             0.0       0.2       0.1       5.8       0.0       0.2
 3 O  dyz            13.9       0.0       0.0       0.1       0.0       0.0
 3 O  dx2y2           0.6       0.1       0.0       0.2       0.6       0.1
 3 O  dxy             0.4       3.5       0.0       0.2       0.0       4.0
 4 C  s               0.0       0.0       0.0       0.0       1.6       1.0
 4 C  pz              0.1       0.0       0.0       0.1       0.1       0.1
 4 C  px              0.0       0.1       0.0       0.0       1.6       1.2
 4 C  py              0.0       0.5       0.0       0.0       0.2       0.3
 4 C  dz2             4.3      10.8       4.5       0.3       3.0       1.0
 4 C  dxz             6.1       0.0      11.9       0.0       0.8       0.6
 4 C  dyz            14.6       0.1      10.4       2.7       0.1       0.2
 4 C  dx2y2           0.2       2.8       0.0       0.1       4.6       1.0
 4 C  dxy             1.2      17.5       1.5       0.0       0.4       2.8
 5 H  s               0.0       3.6       0.0       0.0       0.0       0.0
 6 H  s               2.2       1.2       1.5       0.4       0.1       0.0
 7 H  s               2.2       1.2       1.5       0.4       0.1       0.0
 8 C  s               0.0       0.0       0.0       0.0       1.6       1.0
 8 C  pz              0.1       0.0       0.0       0.1       0.0       0.0
 8 C  px              0.0       0.2       0.0       0.0       1.4       1.0
 8 C  py              0.0       0.4       0.0       0.0       0.6       0.6
 8 C  dz2             1.4       8.9       0.6       0.5       3.4       1.3
 8 C  dxz             4.1       3.3       9.3       0.1       0.1       0.0
 8 C  dyz            19.6       0.9      16.6       2.5       0.0       0.0
 8 C  dx2y2           1.5       9.2       1.6       0.1       3.0       0.1
 8 C  dxy             0.1       9.0       0.0       0.1       2.3       4.1
 9 H  s               0.0       3.6       0.0       0.0       0.0       0.0
10 H  s               2.2       1.2       1.5       0.4       0.1       0.0
11 H  s               2.2       1.2       1.5       0.4       0.1       0.0

                     90        91        92        93        94        95   
                   2.74296   2.76188   2.77072   2.96196   3.18900   3.20535
                   0.00000   0.00000   0.00000   0.00000   0.00000   0.00000
                  --------  --------  --------  --------  --------  --------
 0 O  s               0.0       3.1       1.1       0.1       0.2       0.8
 0 O  px              0.0       2.9       4.6       0.5       1.0       3.7
 0 O  py              0.0       0.2       0.7       0.0       0.7       0.5
 0 O  dz2             0.3       2.0       0.0       0.1       0.0       1.0
 0 O  dxz             8.9       0.1       1.1       0.1       0.9       0.0
 0 O  dyz             0.2       0.2       0.0       0.0       0.2       0.2
 0 O  dx2y2           0.3       2.1       5.7       0.3      14.8       2.3
 0 O  dxy             0.3      18.6      12.8       3.2       3.5       9.5
 1 C  s               0.0       4.9       0.0      18.3       0.0       0.0
 1 C  pz              0.2       0.3       0.1       0.2       0.1       0.0
 1 C  px              0.0       0.0       7.9       0.0       0.0       1.8
 1 C  py              0.0       7.1       0.1       4.8       1.7       0.0
 1 C  dz2             5.5       4.5       0.0       1.9       0.4       0.1
 1 C  dxz             0.1       0.1       0.3       0.1       0.1       2.0
 1 C  dyz            35.5       1.5       0.0       0.2       2.7       0.3
 1 C  dx2y2           1.5       3.0       0.2       0.0      33.5       1.4
 1 C  dxy             1.0       0.1       5.3       0.0       1.2      38.8
 2 O  s               0.0       3.1       1.1       0.1       0.2       0.8
 2 O  pz              0.0       0.1       0.1       0.0       0.1       0.1
 2 O  px              0.0       2.9       5.0       0.5       1.2       3.8
 2 O  py              0.0       0.0       0.2       0.0       0.4       0.5
 2 O  dz2             0.4       1.2       0.0       0.0       0.2       0.5
 2 O  dxz             8.9       1.9       0.6       0.2       0.0       1.0
 2 O  dyz             0.1       0.1       0.6       0.1       0.9       0.0
 2 O  dx2y2           0.2       8.4       0.8       0.0       8.4       6.4
 2 O  dxy             0.4      11.1      17.9       3.3      10.0       5.1
 3 O  s               0.0       6.4       0.0      16.7       2.0       0.0
 3 O  pz              1.3       0.1       0.0       0.3       0.1       0.0
 3 O  px              0.0       0.0       1.0       0.0       0.0       1.4
 3 O  py              0.1       2.2       0.0       5.4       2.9       0.0
 3 O  dz2             3.6       1.0       0.0       8.6       0.2       0.0
 3 O  dxz             0.1       0.0       0.7       0.1       0.0       0.6
 3 O  dyz            23.1       0.7       0.1       5.5       0.3       0.1
 3 O  dx2y2           1.0       3.4       0.5      26.7       2.2       0.4
 3 O  dxy             0.6       0.1      13.4       0.7       0.1      12.2
 4 C  s               0.0       0.2       1.2       0.1       0.5       0.4
 4 C  px              0.0       0.4       1.3       0.2       0.6       0.4
 4 C  py              0.0       0.0       0.3       0.0       0.3       0.1
 4 C  dz2             0.5       0.0       1.0       0.0       0.2       0.0
 4 C  dxz             1.1       0.1       0.6       0.0       0.2       0.0
 4 C  dyz             1.2       0.1       0.1       0.0       0.2       0.1
 4 C  dx2y2           0.0       2.3       1.8       0.2       0.0       1.1
 4 C  dxy             0.2       0.0       2.4       0.3       2.7       0.1
 6 H  s               0.1       0.0       0.0       0.0       0.0       0.0
 7 H  s               0.1       0.0       0.0       0.0       0.0       0.0
 8 C  s               0.0       0.2       1.2       0.1       0.5       0.4
 8 C  px              0.0       0.4       1.1       0.1       0.4       0.4
 8 C  py              0.0       0.0       0.6       0.0       0.5       0.0
 8 C  dz2             0.1       0.0       1.4       0.0       0.4       0.0
 8 C  dxz             0.8       0.0       0.0       0.0       0.1       0.0
 8 C  dyz             1.8       0.1       0.0       0.0       0.0       0.1
 8 C  dx2y2           0.2       2.1       0.5       0.1       0.4       1.1
 8 C  dxy             0.0       0.2       4.2       0.5       2.5       0.0
10 H  s               0.1       0.0       0.0       0.0       0.0       0.0
11 H  s               0.1       0.0       0.0       0.0       0.0       0.0



                      *****************************
                      * MAYER POPULATION ANALYSIS *
                      *****************************

  NA   - Mulliken gross atomic population
  ZA   - Total nuclear charge
  QA   - Mulliken gross atomic charge
  VA   - Mayer's total valence
  BVA  - Mayer's bonded valence
  FA   - Mayer's free valence

  ATOM       NA         ZA         QA         VA         BVA        FA
  0 O      8.4372     8.0000    -0.4372     2.0461     2.0461    -0.0000
  1 C      5.2591     6.0000     0.7409     4.0480     4.0480    -0.0000
  2 O      8.4371     8.0000    -0.4371     2.0465     2.0465     0.0000
  3 O      8.4615     8.0000    -0.4615     2.0512     2.0512    -0.0000
  4 C      6.2094     6.0000    -0.2094     3.7514     3.7514    -0.0000
  5 H      0.8331     1.0000     0.1669     0.9327     0.9327    -0.0000
  6 H      0.8300     1.0000     0.1700     0.9301     0.9301     0.0000
  7 H      0.8300     1.0000     0.1700     0.9301     0.9301    -0.0000
  8 C      6.2091     6.0000    -0.2091     3.7515     3.7515     0.0000
  9 H      0.8334     1.0000     0.1666     0.9327     0.9327     0.0000
 10 H      0.8300     1.0000     0.1700     0.9301     0.9301     0.0000
 11 H      0.8300     1.0000     0.1700     0.9302     0.9302     0.0000

  Mayer bond orders larger than 0.1
B(  0-O ,  1-C ) :   1.0849 B(  0-O ,  4-C ) :   0.8819 B(  1-C ,  2-O ) :   1.0851 
B(  1-C ,  3-O ) :   1.8328 B(  2-O ,  8-C ) :   0.8820 B(  4-C ,  5-H ) :   0.9480 
B(  4-C ,  6-H ) :   0.9369 B(  4-C ,  7-H ) :   0.9368 B(  8-C ,  9-H ) :   0.9480 
B(  8-C , 10-H ) :   0.9368 B(  8-C , 11-H ) :   0.9369 

-------
TIMINGS
-------

Total SCF time: 0 days 0 hours 0 min 7 sec 

Total time                  ....       7.700 sec
Sum of individual times     ....       7.455 sec  ( 96.8%)

Fock matrix formation       ....       6.244 sec  ( 81.1%)
  XC integration            ....       1.407 sec  ( 22.5% of F)
    Basis function eval.    ....       0.541 sec  ( 38.4% of XC)
    Density eval.           ....       0.347 sec  ( 24.7% of XC)
    XC-Functional eval.     ....       0.137 sec  (  9.7% of XC)
    XC-Potential eval.      ....       0.294 sec  ( 20.9% of XC)
Diagonalization             ....       0.001 sec  (  0.0%)
Density matrix formation    ....       0.001 sec  (  0.0%)
Population analysis         ....       0.024 sec  (  0.3%)
Initial guess               ....       0.002 sec  (  0.0%)
Orbital Transformation      ....       0.000 sec  (  0.0%)
Orbital Orthonormalization  ....       0.001 sec  (  0.0%)
DIIS solution               ....       0.000 sec  (  0.0%)
SOSCF solution              ....       0.007 sec  (  0.1%)
Grid generation             ....       1.176 sec  ( 15.3%)

-------------------------   --------------------
FINAL SINGLE POINT ENERGY      -343.423767012259
-------------------------   --------------------

                                *** OPTIMIZATION RUN DONE ***

                            ***************************************
                            *     ORCA property calculations      *
                            ***************************************

                                    ---------------------
                                    Active property flags
                                    ---------------------
   (+) Dipole Moment


------------------------------------------------------------------------------
                       ORCA ELECTRIC PROPERTIES CALCULATION
------------------------------------------------------------------------------

Dipole Moment Calculation                       ... on
Quadrupole Moment Calculation                   ... off
Polarizability Calculation                      ... off
GBWName                                         ... /Users/lailaal-madhagi/Desktop/Testing_XAS_Analysis_code/DimethylCarbonate//Results_dir_DimethylCarbonate_geom_element_C_2019-11-10_18-07-15//GTE1_DimethylCarbonate_geom_2019-11-10_18-07-22//opt.gbw
Electron density file                           ... /Users/lailaal-madhagi/Desktop/Testing_XAS_Analysis_code/DimethylCarbonate//Results_dir_DimethylCarbonate_geom_element_C_2019-11-10_18-07-15//GTE1_DimethylCarbonate_geom_2019-11-10_18-07-22//opt.scfp.tmp
The origin for moment calculation is the CENTER OF MASS  = (-3.243770,  1.012591  0.380589)

-------------
DIPOLE MOMENT
-------------
                                X             Y             Z
Electronic contribution:      0.08053      -0.98916      -0.21682
Nuclear contribution   :     -0.07083       0.87007       0.19057
                        -----------------------------------------
Total Dipole Moment    :      0.00971      -0.11909      -0.02625
                        -----------------------------------------
Magnitude (a.u.)       :      0.12233
Magnitude (Debye)      :      0.31095



--------------------
Rotational spectrum 
--------------------
 
Rotational constants in cm-1:     0.344656     0.078453     0.065494 
Rotational constants in MHz : 10332.531283  2351.948929  1963.468585 

 Dipole components along the rotational axes: 
x,y,z [a.u.] :     0.000041    -0.122332     0.000329 
x,y,z [Debye]:     0.000103    -0.310945     0.000836 

 

Timings for individual modules:

Sum of individual times         ...      157.969 sec (=   2.633 min)
GTO integral calculation        ...        3.585 sec (=   0.060 min)   2.3 %
SCF iterations                  ...       96.935 sec (=   1.616 min)  61.4 %
SCF Gradient evaluation         ...       55.789 sec (=   0.930 min)  35.3 %
Geometry relaxation             ...        1.660 sec (=   0.028 min)   1.1 %
                             ****ORCA TERMINATED NORMALLY****
TOTAL RUN TIME: 0 days 0 hours 2 minutes 38 seconds 940 msec
