
                                 *****************
                                 * O   R   C   A *
                                 *****************

           --- An Ab Initio, DFT and Semiempirical electronic structure package ---

                  #######################################################
                  #                        -***-                        #
                  #          Department of theory and spectroscopy      #
                  #               Directorship: Frank Neese             #
                  #        Max Planck Institute fuer Kohlenforschung    #
                  #                Kaiser Wilhelm Platz 1               #
                  #                 D-45470 Muelheim/Ruhr               #
                  #                      Germany                        #
                  #                                                     #
                  #                  All rights reserved                #
                  #                        -***-                        #
                  #######################################################


                         Program Version 4.1.0  - RELEASE  -


 With contributions from (in alphabetic order):
   Daniel Aravena         : Magnetic Properties
   Michael Atanasov       : Ab Initio Ligand Field Theory
   Alexander A. Auer      : GIAO ZORA
   Ute Becker             : Parallelization
   Giovanni Bistoni       : ED, Open-shell LED
   Martin Brehm           : Molecular dynamics
   Dmytro Bykov           : SCF Hessian
   Vijay G. Chilkuri      : MRCI spin determinant printing
   Dipayan Datta          : RHF DLPNO-CCSD density
   Achintya Kumar Dutta   : EOM-CC, STEOM-CC
   Dmitry Ganyushin       : Spin-Orbit,Spin-Spin,Magnetic field MRCI
   Miquel Garcia          : C-PCM Hessian
   Yang Guo               : DLPNO-NEVPT2, CIM, IAO-localization
   Andreas Hansen         : Spin unrestricted coupled pair/coupled cluster methods
   Benjamin Helmich-Paris : CASSCF linear response (MC-RPA)
   Lee Huntington         : MR-EOM, pCC
   Robert Izsak           : Overlap fitted RIJCOSX, COSX-SCS-MP3, EOM
   Christian Kollmar      : KDIIS, OOCD, Brueckner-CCSD(T), CCSD density
   Simone Kossmann        : Meta GGA functionals, TD-DFT gradient, OOMP2, MP2 Hessian
   Martin Krupicka        : AUTO-CI
   Lucas Lang             : DCDCAS
   Dagmar Lenk            : GEPOL surface, SMD
   Dimitrios Liakos       : Extrapolation schemes; parallel MDCI
   Dimitrios Manganas     : ROCIS; embedding schemes
   Dimitrios Pantazis     : SARC Basis sets
   Taras Petrenko         : DFT Hessian,TD-DFT gradient, ASA, ECA, R-Raman, ABS, FL, XAS/XES, NRVS
   Peter Pinski           : DLPNO-MP2, DLPNO-MP2 Gradient
   Christoph Reimann      : Effective Core Potentials
   Marius Retegan         : Local ZFS, SOC
   Christoph Riplinger    : Optimizer, TS searches, QM/MM, DLPNO-CCSD(T), (RO)-DLPNO pert. Triples
   Tobias Risthaus        : Range-separated hybrids, TD-DFT gradient, RPA, STAB
   Michael Roemelt        : Restricted open shell CIS
   Masaaki Saitow         : Open-shell DLPNO
   Barbara Sandhoefer     : DKH picture change effects
   Avijit Sen             : IP-ROCIS
   Kantharuban Sivalingam : CASSCF convergence, NEVPT2, FIC-MRCI
   Bernardo de Souza      : ESD, SOC TD-DFT
   Georgi Stoychev        : AutoAux, RI-MP2 NMR
   Willem Van den Heuvel  : Paramagnetic NMR
   Boris Wezisla          : Elementary symmetry handling
   Frank Wennmohs         : Technical directorship


 We gratefully acknowledge several colleagues who have allowed us to
 interface, adapt or use parts of their codes:
   Stefan Grimme, W. Hujo, H. Kruse,             : VdW corrections, initial TS optimization,
                  C. Bannwarth                     DFT functionals, gCP, sTDA/sTD-DF
   Ed Valeev                                     : LibInt (2-el integral package), F12 methods
   Garnet Chan, S. Sharma, J. Yang, R. Olivares  : DMRG
   Ulf Ekstrom                                   : XCFun DFT Library
   Mihaly Kallay                                 : mrcc  (arbitrary order and MRCC methods)
   Andreas Klamt, Michael Diedenhofen            : otool_cosmo (COSMO solvation model)
   Jiri Pittner, Ondrej Demel                    : Mk-CCSD
   Frank Weinhold                                : gennbo (NPA and NBO analysis)
   Christopher J. Cramer and Donald G. Truhlar   : smd solvation model
   Lars Goerigk                                  : TD-DFT with DH, B97 family of functionals
   V. Asgeirsson, H. Jonsson                     : NEB implementation
   FAccTs GmbH                                   : IRC, NEB, NEB-TS, Multilevel


 Your calculation uses the libint2 library for the computation of 2-el integrals
 For citations please refer to: http://libint.valeyev.net

 This ORCA versions uses:
   CBLAS   interface :  Fast vector & matrix operations
   LAPACKE interface :  Fast linear algebra routines
   SCALAPACK package :  Parallel linear algebra routines




***************************************
The coordinates will be read from file: /Users/lailaal-madhagi/Desktop/Testing_XAS_Analysis_code/Pyrrole//Results_dir_Pyrrole_geom_element_N_2019-11-28_02-54-11//GTE1_Pyrrole_geom_2019-11-28_02-54-20//opt.xyz
***************************************


----- Orbital basis set information -----
Your calculation utilizes the basis: 6-31G*
   H-He, Li-Ne : W. J. Hehre, R. Ditchfield and J.A. Pople, J. Chem. Phys. 56, 2257 (1972).
                 Note: He and Ne are unpublished basis sets taken from the Gaussian program.
                 Note: Li and B from J. D. Dill and J. A. Pople, J. Chem. Phys. 62, 2921 (1975).
   Na - Ar     : M. M. Francl, W. J. Pietro, W. J. Hehre, J. S. Binkley, M. S. Gordon, 
                 D. J. DeFrees and J. A. Pople, J. Chem. Phys. 77, 3654 (1982).
   K - Zn      : V. A. Rassolov, J. A. Pople, M. A. Ratner, and T. L. Windus, J. Chem. Phys. 109, 1223 (1998).

================================================================================
                                        WARNINGS
                       Please study these warnings very carefully!
================================================================================

INFO   : Checking CIS options ...

WARNING: CIS/ROCIS methods need fully converged wavefunctions
  ===> : Setting SCFConvForced true
         You can overwrite this default with %scf ConvForced false 


INFO   : the flag for use of LIBINT has been found!

================================================================================
                                       INPUT FILE
================================================================================
NAME = /Users/lailaal-madhagi/Desktop/Testing_XAS_Analysis_code/Pyrrole//Results_dir_Pyrrole_geom_element_N_2019-11-28_02-54-11//GTE1_Pyrrole_geom_2019-11-28_02-54-20//TDDFT_N-edge.inp
|  1> #This is N K-edge calculation 
|  2> ! B3LYP 6-31G* TIGHTSCF Grid3 FinalGrid5 
|  3> !NormalPrint 
|  4> %output 
|  5> Print[P_Basis] 2 
|  6> Print[P_MOS] 1 
|  7> end 
|  8> 
|  9> %tddft 
| 10> orbwin[0]=0,0,-1,-1 
| 11> nroots=20 
| 12> maxdim=200 
| 13> end 
| 14> *xyzfile 0 1 /Users/lailaal-madhagi/Desktop/Testing_XAS_Analysis_code/Pyrrole//Results_dir_Pyrrole_geom_element_N_2019-11-28_02-54-11//GTE1_Pyrrole_geom_2019-11-28_02-54-20//opt.xyz                           ****END OF INPUT****
================================================================================

                       ****************************
                       * Single Point Calculation *
                       ****************************

---------------------------------
CARTESIAN COORDINATES (ANGSTROEM)
---------------------------------
  C     -2.577859    0.902922    0.000000
  C     -1.159232    1.048761   -0.000000
  C     -2.853814   -0.447892   -0.000000
  N     -1.653081   -1.120018   -0.000000
  C     -0.614166   -0.217682    0.000000
  H     -3.792773   -0.983099   -0.000000
  H     -3.311921    1.697847    0.000000
  H     -0.602324    1.976362   -0.000000
  H      0.414058   -0.550693    0.000000
  H     -1.549988   -2.122877   -0.000000

----------------------------
CARTESIAN COORDINATES (A.U.)
----------------------------
  NO LB      ZA    FRAG     MASS         X           Y           Z
   0 C     6.0000    0    12.011   -4.871447    1.706275    0.000000
   1 C     6.0000    0    12.011   -2.190630    1.981870   -0.000000
   2 C     6.0000    0    12.011   -5.392927   -0.846394   -0.000000
   3 N     7.0000    0    14.007   -3.123870   -2.116528   -0.000000
   4 C     6.0000    0    12.011   -1.160605   -0.411360    0.000000
   5 H     1.0000    0     1.008   -7.167303   -1.857787   -0.000000
   6 H     1.0000    0     1.008   -6.258624    3.208466    0.000000
   7 H     1.0000    0     1.008   -1.138227    3.734783   -0.000000
   8 H     1.0000    0     1.008    0.782456   -1.040659    0.000000
   9 H     1.0000    0     1.008   -2.929054   -4.011656   -0.000000

--------------------------------
INTERNAL COORDINATES (ANGSTROEM)
--------------------------------
 C      0   0   0     0.000000000000     0.00000000     0.00000000
 C      1   0   0     1.426103867753     0.00000000     0.00000000
 C      1   2   0     1.378713124149   107.41552409     0.00000000
 N      3   1   2     1.376050069290   107.69250751     0.00000000
 C      4   3   1     1.376065046303   109.78599965     0.00000000
 H      3   1   2     1.080782279778   131.22909182   180.00000352
 H      1   2   3     1.082014104260   126.85092875   180.00000435
 H      2   1   3     1.081938576839   126.84906181   179.99999681
 H      5   4   3     1.080804838568   121.07890336   179.99999852
 H      4   3   1     1.008143592800   125.10778138   179.99999809

---------------------------
INTERNAL COORDINATES (A.U.)
---------------------------
 C      0   0   0     0.000000000000     0.00000000     0.00000000
 C      1   0   0     2.694945748578     0.00000000     0.00000000
 C      1   2   0     2.605390221885   107.41552409     0.00000000
 N      3   1   2     2.600357777522   107.69250751     0.00000000
 C      4   3   1     2.600386079975   109.78599965     0.00000000
 H      3   1   2     2.042382519176   131.22909182   180.00000352
 H      1   2   3     2.044710330092   126.85092875   180.00000435
 H      2   1   3     2.044567603950   126.84906181   179.99999681
 H      5   4   3     2.042425149111   121.07890336   179.99999852
 H      4   3   1     1.905115294059   125.10778138   179.99999809

---------------------
BASIS SET INFORMATION
---------------------
There are 3 groups of distinct atoms

 Group   1 Type C   : 10s4p1d contracted to 3s2p1d pattern {631/31/1}
 Group   2 Type N   : 10s4p1d contracted to 3s2p1d pattern {631/31/1}
 Group   3 Type H   : 4s contracted to 2s pattern {31}

Atom   0C    basis set group =>   1
Atom   1C    basis set group =>   1
Atom   2C    basis set group =>   1
Atom   3N    basis set group =>   2
Atom   4C    basis set group =>   1
Atom   5H    basis set group =>   3
Atom   6H    basis set group =>   3
Atom   7H    basis set group =>   3
Atom   8H    basis set group =>   3
Atom   9H    basis set group =>   3

-------------------------
BASIS SET IN INPUT FORMAT
-------------------------

 # Basis set for element : H 
 NewGTO H 
 S 3 
   1      18.7311370000      0.0334945995
   2       2.8253937000      0.2347269467
   3       0.6401217000      0.8137573184
 S 1 
   1       0.1612778000      1.0000000000
  end;

 # Basis set for element : C 
 NewGTO C 
 S 6 
   1    3047.5249000000      0.0018347002
   2     457.3695100000      0.0140373012
   3     103.9486900000      0.0688426061
   4      29.2101550000      0.2321844206
   5       9.2866630000      0.4679413416
   6       3.1639270000      0.3623120322
 S 3 
   1       7.8682724000     -0.1193324086
   2       1.8812885000     -0.1608542116
   3       0.5442493000      1.1434564826
 P 3 
   1       7.8682724000      0.0689990956
   2       1.8812885000      0.3164239798
   3       0.5442493000      0.7443082524
 S 1 
   1       0.1687144000      1.0000000000
 P 1 
   1       0.1687144000      1.0000000000
 D 1 
   1       0.8000000000      1.0000000000
  end;

 # Basis set for element : N 
 NewGTO N 
 S 6 
   1    4173.5110000000      0.0018347994
   2     627.4579000000      0.0139949958
   3     142.9021000000      0.0685869792
   4      40.2343300000      0.2322409295
   5      12.8202100000      0.4690698576
   6       4.3904370000      0.3604548906
 S 3 
   1      11.6263580000     -0.1149610229
   2       2.7162800000     -0.1691180337
   3       0.7722180000      1.1458522281
 P 3 
   1      11.6263580000      0.0675800232
   2       2.7162800000      0.3239071114
   3       0.7722180000      0.7408952549
 S 1 
   1       0.2120313000      1.0000000000
 P 1 
   1       0.2120313000      1.0000000000
 D 1 
   1       0.8000000000      1.0000000000
  end;

------------------------------------------------------------------------------
                           ORCA GTO INTEGRAL CALCULATION
------------------------------------------------------------------------------

                         BASIS SET STATISTICS AND STARTUP INFO

 # of primitive gaussian shells          ...   95
 # of primitive gaussian functions       ...  155
 # of contracted shells                  ...   40
 # of contracted basis functions         ...   80
 Highest angular momentum                ...    2
 Maximum contraction depth               ...    6
 Integral package used                   ... LIBINT
 Integral threshhold            Thresh   ...  2.500e-11
 Primitive cut-off              TCut     ...  2.500e-12


------------------------------ INTEGRAL EVALUATION ----------------------------


 * One electron integrals 
 Pre-screening matrix                    ... done
 Shell pair data                         ... done (   0.002 sec)

-------------------------------------------------------------------------------
                                 ORCA SCF
-------------------------------------------------------------------------------

------------
SCF SETTINGS
------------
Hamiltonian:
 Density Functional     Method          .... DFT(GTOs)
 Exchange Functional    Exchange        .... B88
   X-Alpha parameter    XAlpha          ....  0.666667
   Becke's b parameter  XBeta           ....  0.004200
 Correlation Functional Correlation     .... LYP
 LDA part of GGA corr.  LDAOpt          .... VWN-5
 Gradients option       PostSCFGGA      .... off
 Hybrid DFT is turned on
   Fraction HF Exchange ScalHFX         ....  0.200000
   Scaling of DF-GGA-X  ScalDFX         ....  0.720000
   Scaling of DF-GGA-C  ScalDFC         ....  0.810000
   Scaling of DF-LDA-C  ScalLDAC        ....  1.000000
   Perturbative correction              ....  0.000000
   Density functional embedding theory  .... OFF
   NL short-range parameter             ....  4.800000


General Settings:
 Integral files         IntName         .... /Users/lailaal-madhagi/Desktop/Testing_XAS_Analysis_code/Pyrrole//Results_dir_Pyrrole_geom_element_N_2019-11-28_02-54-11//GTE1_Pyrrole_geom_2019-11-28_02-54-20//TDDFT_N-edge
 Hartree-Fock type      HFTyp           .... RHF
 Total Charge           Charge          ....    0
 Multiplicity           Mult            ....    1
 Number of Electrons    NEL             ....   36
 Basis Dimension        Dim             ....   80
 Nuclear Repulsion      ENuc            ....    160.6550749439 Eh

Convergence Acceleration:
 DIIS                   CNVDIIS         .... on
   Start iteration      DIISMaxIt       ....    12
   Startup error        DIISStart       ....  0.200000
   # of expansion vecs  DIISMaxEq       ....     5
   Bias factor          DIISBfac        ....   1.050
   Max. coefficient     DIISMaxC        ....  10.000
 Newton-Raphson         CNVNR           .... off
 SOSCF                  CNVSOSCF        .... on
   Start iteration      SOSCFMaxIt      ....   150
   Startup grad/error   SOSCFStart      ....  0.003300
 Level Shifting         CNVShift        .... on
   Level shift para.    LevelShift      ....    0.2500
   Turn off err/grad.   ShiftErr        ....    0.0010
 Zerner damping         CNVZerner       .... off
 Static damping         CNVDamp         .... on
   Fraction old density DampFac         ....    0.7000
   Max. Damping (<1)    DampMax         ....    0.9800
   Min. Damping (>=0)   DampMin         ....    0.0000
   Turn off err/grad.   DampErr         ....    0.1000
 Fernandez-Rico         CNVRico         .... off

SCF Procedure:
 Maximum # iterations   MaxIter         ....   125
 SCF integral mode      SCFMode         .... Direct
   Integral package                     .... LIBINT
 Reset frequency        DirectResetFreq ....    20
 Integral Threshold     Thresh          ....  2.500e-11 Eh
 Primitive CutOff       TCut            ....  2.500e-12 Eh

Convergence Tolerance:
 Convergence Check Mode ConvCheckMode   .... Total+1el-Energy
 Convergence forced     ConvForced      .... 1
 Energy Change          TolE            ....  1.000e-08 Eh
 1-El. energy change                    ....  1.000e-05 Eh
 Orbital Gradient       TolG            ....  1.000e-05
 Orbital Rotation angle TolX            ....  1.000e-05
 DIIS Error             TolErr          ....  5.000e-07


Diagonalization of the overlap matrix:
Smallest eigenvalue                        ... 1.353e-03
Time for diagonalization                   ...    0.001 sec
Threshold for overlap eigenvalues          ... 1.000e-08
Number of eigenvalues below threshold      ... 0
Time for construction of square roots      ...    0.001 sec
Total time needed                          ...    0.002 sec

-------------------
DFT GRID GENERATION
-------------------

General Integration Accuracy     IntAcc      ...  4.340
Radial Grid Type                 RadialGrid  ... Gauss-Chebyshev
Angular Grid (max. acc.)         AngularGrid ... Lebedev-194
Angular grid pruning method      GridPruning ... 3 (G Style)
Weight generation scheme         WeightScheme... Becke
Basis function cutoff            BFCut       ...    1.0000e-11
Integration weight cutoff        WCut        ...    1.0000e-14
Grids for H and He will be reduced by one unit

# of grid points (after initial pruning)     ...  24080 (   0.0 sec)
# of grid points (after weights+screening)   ...  22698 (   0.0 sec)
nearest neighbour list constructed           ...    0.0 sec
Grid point re-assignment to atoms done       ...    0.0 sec
Grid point division into batches done        ...    0.0 sec
Reduced shell lists constructed in    0.1 sec

Total number of grid points                  ...    22698
Total number of batches                      ...      361
Average number of points per batch           ...       62
Average number of grid points per atom       ...     2270
Average number of shells per batch           ...    32.01 (80.02%)
Average number of basis functions per batch  ...    66.59 (83.24%)
Average number of large shells per batch     ...    27.07 (84.56%)
Average number of large basis fcns per batch ...    56.54 (84.90%)
Maximum spatial batch extension              ...  17.45, 19.78, 22.17 au
Average spatial batch extension              ...   3.13,  3.31,  4.07 au

Time for grid setup =    0.174 sec

------------------------------
INITIAL GUESS: MODEL POTENTIAL
------------------------------
Loading Hartree-Fock densities                     ... done
Calculating cut-offs                               ... done
Setting up the integral package                    ... done
Initializing the effective Hamiltonian             ... done
Starting the Coulomb interaction                   ... done (   0.0 sec)
Reading the grid                                   ... done
Mapping shells                                     ... done
Starting the XC term evaluation                    ... done (   0.1 sec)
  promolecular density results
     # of electrons  =     35.997665359
     EX              =    -28.636871435
     EC              =     -1.195399348
     EX+EC           =    -29.832270782
Transforming the Hamiltonian                       ... done (   0.0 sec)
Diagonalizing the Hamiltonian                      ... done (   0.0 sec)
Back transforming the eigenvectors                 ... done (   0.0 sec)
Now organizing SCF variables                       ... done
                      ------------------
                      INITIAL GUESS DONE (   0.4 sec)
                      ------------------
--------------
SCF ITERATIONS
--------------
               ***  Starting incremental Fock matrix formation  ***

                         ----------------------------
                         !        ITERATION     0   !
                         ----------------------------
   Total Energy        :    -209.880720803837 Eh
   Energy Change       :    -209.880720803837 Eh
   MAX-DP              :       0.055017837622
   RMS-DP              :       0.003463835707
   Actual Damping      :       0.7000
   Actual Level Shift  :       0.2500 Eh
   Int. Num. El.       :    35.99994909 (UP=   17.99997455 DN=   17.99997455)
   Exchange            :   -23.50868819
   Correlation         :    -1.43413196


                         ----------------------------
                         !        ITERATION     1   !
                         ----------------------------
   Total Energy        :    -209.948738048920 Eh
   Energy Change       :      -0.068017245084 Eh
   MAX-DP              :       0.039539387449
   RMS-DP              :       0.002572176946
   Actual Damping      :       0.7000
   Actual Level Shift  :       0.2500 Eh
   Int. Num. El.       :    35.99994463 (UP=   17.99997231 DN=   17.99997231)
   Exchange            :   -23.33937889
   Correlation         :    -1.42635961

                               ***Turning on DIIS***

                         ----------------------------
                         !        ITERATION     2   !
                         ----------------------------
   Total Energy        :    -209.977117861385 Eh
   Energy Change       :      -0.028379812464 Eh
   MAX-DP              :       0.065690939636
   RMS-DP              :       0.004160457586
   Actual Damping      :       0.0000
   Actual Level Shift  :       0.2500 Eh
   Int. Num. El.       :    35.99993852 (UP=   17.99996926 DN=   17.99996926)
   Exchange            :   -23.22491315
   Correlation         :    -1.42090950
   DIIS-Error          :       0.035687351129


                         ----------------------------
                         !        ITERATION     3   !
                         ----------------------------
   Total Energy        :    -210.017308221005 Eh
   Energy Change       :      -0.040190359620 Eh
   MAX-DP              :       0.027326590445
   RMS-DP              :       0.001822815503
   Actual Damping      :       0.0000
   Actual Level Shift  :       0.2500 Eh
   Int. Num. El.       :    35.99992208 (UP=   17.99996104 DN=   17.99996104)
   Exchange            :   -23.05051516
   Correlation         :    -1.41241630
   DIIS-Error          :       0.046943565037
   DIIS coefficients:
      0.60486   0.39514


                         ----------------------------
                         !        ITERATION     4   !
                         ----------------------------
   Total Energy        :    -210.028339634012 Eh
   Energy Change       :      -0.011031413007 Eh
   MAX-DP              :       0.010189922453
   RMS-DP              :       0.000610099362
   Actual Damping      :       0.0000
   Actual Level Shift  :       0.2500 Eh
   Int. Num. El.       :    35.99992258 (UP=   17.99996129 DN=   17.99996129)
   Exchange            :   -23.11747430
   Correlation         :    -1.41591838
   DIIS-Error          :       0.010942971469
   DIIS coefficients:
      0.18239  -0.05235   0.86996

                      *** Initiating the SOSCF procedure ***
                           *** Shutting down DIIS ***
                      *** Re-Reading the Fockian *** 
                      *** Removing any level shift *** 

                         ----------------------------
                         !        ITERATION     5   !
                         ----------------------------
   Total Energy        :    -210.028994039631 Eh
   Energy Change       :      -0.000654405620 Eh
   MAX-DP              :       0.003284245302
   RMS-DP              :       0.000189348523
   Orbital gradient    :       0.001052682794
   Orbital Rotation    :       0.001052682794
   Actual Damping      :       0.0000
   Int. Num. El.       :    35.99992513 (UP=   17.99996257 DN=   17.99996257)
   Exchange            :   -23.13684225
   Correlation         :    -1.41689740

               *** Restarting incremental Fock matrix formation ***

                         ----------------------------
                         !        ITERATION     6   !
                         ----------------------------
   Total Energy        :    -210.029027586300 Eh
   Energy Change       :      -0.000033546669 Eh
   MAX-DP              :       0.001461283051
   RMS-DP              :       0.000084809558
   Orbital gradient    :       0.000354664912
   Orbital Rotation    :       0.000612242029
   Actual Damping      :       0.0000
   Int. Num. El.       :    35.99992469 (UP=   17.99996234 DN=   17.99996234)
   Exchange            :   -23.14066021
   Correlation         :    -1.41707725


                         ----------------------------
                         !        ITERATION     7   !
                         ----------------------------
   Total Energy        :    -210.029027757447 Eh
   Energy Change       :      -0.000000171147 Eh
   MAX-DP              :       0.000681844841
   RMS-DP              :       0.000029414440
   Orbital gradient    :       0.000433155072
   Orbital Rotation    :       0.000715519367
   Actual Damping      :       0.0000
   Int. Num. El.       :    35.99992537 (UP=   17.99996269 DN=   17.99996269)
   Exchange            :   -23.14184004
   Correlation         :    -1.41714575


                         ----------------------------
                         !        ITERATION     8   !
                         ----------------------------
   Total Energy        :    -210.029030043472 Eh
   Energy Change       :      -0.000002286025 Eh
   MAX-DP              :       0.000287088672
   RMS-DP              :       0.000020862887
   Orbital gradient    :       0.000108300750
   Orbital Rotation    :       0.000306908513
   Actual Damping      :       0.0000
   Int. Num. El.       :    35.99992509 (UP=   17.99996254 DN=   17.99996254)
   Exchange            :   -23.14141635
   Correlation         :    -1.41712133


                         ----------------------------
                         !        ITERATION     9   !
                         ----------------------------
   Total Energy        :    -210.029029961910 Eh
   Energy Change       :       0.000000081562 Eh
   MAX-DP              :       0.000184540062
   RMS-DP              :       0.000008990567
   Orbital gradient    :       0.000123687406
   Orbital Rotation    :       0.000159524070
   Actual Damping      :       0.0000
   Int. Num. El.       :    35.99992506 (UP=   17.99996253 DN=   17.99996253)
   Exchange            :   -23.14113879
   Correlation         :    -1.41710397


                         ----------------------------
                         !        ITERATION    10   !
                         ----------------------------
   Total Energy        :    -210.029030158394 Eh
   Energy Change       :      -0.000000196484 Eh
   MAX-DP              :       0.000069377571
   RMS-DP              :       0.000003030241
   Orbital gradient    :       0.000017031642
   Orbital Rotation    :       0.000029484023
   Actual Damping      :       0.0000
   Int. Num. El.       :    35.99992511 (UP=   17.99996255 DN=   17.99996255)
   Exchange            :   -23.14124682
   Correlation         :    -1.41711234


                         ----------------------------
                         !        ITERATION    11   !
                         ----------------------------
   Total Energy        :    -210.029030156888 Eh
   Energy Change       :       0.000000001506 Eh
   MAX-DP              :       0.000035253240
   RMS-DP              :       0.000001508969
   Orbital gradient    :       0.000018175028
   Orbital Rotation    :       0.000014073289
   Actual Damping      :       0.0000
   Int. Num. El.       :    35.99992509 (UP=   17.99996255 DN=   17.99996255)
   Exchange            :   -23.14134686
   Correlation         :    -1.41711679

                  ***Gradient check signals convergence***
              ***Rediagonalizing the Fockian in SOSCF/NRSCF***

               *****************************************************
               *                     SUCCESS                       *
               *           SCF CONVERGED AFTER  12 CYCLES          *
               *****************************************************

Setting up the final grid:

General Integration Accuracy     IntAcc      ...  5.010
Radial Grid Type                 RadialGrid  ... Gauss-Chebyshev
Angular Grid (max. acc.)         AngularGrid ... Lebedev-434
Angular grid pruning method      GridPruning ... 3 (G Style)
Weight generation scheme         WeightScheme... Becke
Basis function cutoff            BFCut       ...    1.0000e-11
Integration weight cutoff        WCut        ...    1.0000e-14
Grids for H and He will be reduced by one unit

# of grid points (after initial pruning)     ...  86842 (   0.0 sec)
# of grid points (after weights+screening)   ...  81259 (   0.1 sec)
nearest neighbour list constructed           ...    0.0 sec
Grid point re-assignment to atoms done       ...    0.0 sec
Grid point division into batches done        ...    0.5 sec
Reduced shell lists constructed in    0.8 sec

Total number of grid points                  ...    81259
Total number of batches                      ...     1277
Average number of points per batch           ...       63
Average number of grid points per atom       ...     8126
Average number of shells per batch           ...    29.75 (74.38%)
Average number of basis functions per batch  ...    61.71 (77.14%)
Average number of large shells per batch     ...    24.82 (83.43%)
Average number of large basis fcns per batch ...    51.88 (84.07%)
Maximum spatial batch extension              ...  17.59, 18.26, 16.91 au
Average spatial batch extension              ...   2.22,  2.25,  2.47 au

Final grid set up in    0.9 sec
Final integration                            ... done (   0.5 sec)
Change in XC energy                          ...    -0.000046497
Integrated number of electrons               ...    35.999996721
Previous integrated no of electrons          ...    35.999925099

----------------
TOTAL SCF ENERGY
----------------

Total Energy       :         -210.02907666 Eh           -5715.18173 eV

Components:
Nuclear Repulsion  :          160.65507494 Eh            4371.64684 eV
Electronic Energy  :         -370.68415160 Eh          -10086.82857 eV
One Electron Energy:         -600.73648867 Eh          -16346.87092 eV
Two Electron Energy:          230.05233707 Eh            6260.04235 eV

Virial components:
Potential Energy   :         -418.81195164 Eh          -11396.45259 eV
Kinetic Energy     :          208.78287499 Eh            5681.27086 eV
Virial Ratio       :            2.00596889


DFT components:
N(Alpha)           :       17.999998360251 electrons
N(Beta)            :       17.999998360251 electrons
N(Total)           :       35.999996720502 electrons
E(X)               :      -23.141346253114 Eh       
E(C)               :       -1.417103371788 Eh       
E(XC)              :      -24.558449624902 Eh       
DFET-embed. en.    :        0.000000000000 Eh       

---------------
SCF CONVERGENCE
---------------

  Last Energy change         ...   -5.0772e-09  Tolerance :   1.0000e-08
  Last MAX-Density change    ...    2.7356e-06  Tolerance :   1.0000e-07
  Last RMS-Density change    ...    2.4510e-07  Tolerance :   5.0000e-09
  Last Orbital Gradient      ...    1.1576e-06  Tolerance :   1.0000e-05
  Last Orbital Rotation      ...    1.9866e-06  Tolerance :   1.0000e-05

             **** THE GBW FILE WAS UPDATED (/Users/lailaal-madhagi/Desktop/Testing_XAS_Analysis_code/Pyrrole//Results_dir_Pyrrole_geom_element_N_2019-11-28_02-54-11//GTE1_Pyrrole_geom_2019-11-28_02-54-20//TDDFT_N-edge.gbw) ****
             **** DENSITY FILE WAS UPDATED (/Users/lailaal-madhagi/Desktop/Testing_XAS_Analysis_code/Pyrrole//Results_dir_Pyrrole_geom_element_N_2019-11-28_02-54-11//GTE1_Pyrrole_geom_2019-11-28_02-54-20//TDDFT_N-edge.scfp.tmp) ****
             **** ENERGY FILE WAS UPDATED (/Users/lailaal-madhagi/Desktop/Testing_XAS_Analysis_code/Pyrrole//Results_dir_Pyrrole_geom_element_N_2019-11-28_02-54-11//GTE1_Pyrrole_geom_2019-11-28_02-54-20//TDDFT_N-edge.en.tmp) ****
----------------
ORBITAL ENERGIES
----------------

  NO   OCC          E(Eh)            E(eV) 
   0   2.0000     -14.363120      -390.8404 
   1   2.0000     -10.187150      -277.2064 
   2   2.0000     -10.187100      -277.2051 
   3   2.0000     -10.150618      -276.2123 
   4   2.0000     -10.150280      -276.2032 
   5   2.0000      -0.959836       -26.1185 
   6   2.0000      -0.757186       -20.6041 
   7   2.0000      -0.705782       -19.2053 
   8   2.0000      -0.577765       -15.7218 
   9   2.0000      -0.551067       -14.9953 
  10   2.0000      -0.532051       -14.4778 
  11   2.0000      -0.417447       -11.3593 
  12   2.0000      -0.411369       -11.1939 
  13   2.0000      -0.389858       -10.6086 
  14   2.0000      -0.376384       -10.2419 
  15   2.0000      -0.361004        -9.8234 
  16   2.0000      -0.228661        -6.2222 
  17   2.0000      -0.198014        -5.3882 
  18   0.0000       0.054265         1.4766 
  19   0.0000       0.082828         2.2539 
  20   0.0000       0.100102         2.7239 
  21   0.0000       0.144817         3.9407 
  22   0.0000       0.167915         4.5692 
  23   0.0000       0.175381         4.7724 
  24   0.0000       0.186533         5.0758 
  25   0.0000       0.244758         6.6602 
  26   0.0000       0.249311         6.7841 
  27   0.0000       0.345255         9.3949 
  28   0.0000       0.375719        10.2238 
  29   0.0000       0.458539        12.4775 
  30   0.0000       0.552876        15.0445 
  31   0.0000       0.561566        15.2810 
  32   0.0000       0.585362        15.9285 
  33   0.0000       0.609338        16.5809 
  34   0.0000       0.614968        16.7341 
  35   0.0000       0.625083        17.0094 
  36   0.0000       0.637775        17.3547 
  37   0.0000       0.642910        17.4945 
  38   0.0000       0.658781        17.9264 
  39   0.0000       0.700279        19.0556 
  40   0.0000       0.780463        21.2375 
  41   0.0000       0.823224        22.4011 
  42   0.0000       0.837600        22.7922 
  43   0.0000       0.866838        23.5879 
  44   0.0000       0.871928        23.7264 
  45   0.0000       0.923625        25.1331 
  46   0.0000       0.937161        25.5014 
  47   0.0000       0.945471        25.7276 
  48   0.0000       1.007990        27.4288 
  49   0.0000       1.150555        31.3082 
  50   0.0000       1.179711        32.1016 
  51   0.0000       1.258561        34.2472 
  52   0.0000       1.318360        35.8744 
  53   0.0000       1.353577        36.8327 
  54   0.0000       1.377727        37.4899 
  55   0.0000       1.404748        38.2251 
  56   0.0000       1.512310        41.1521 
  57   0.0000       1.520072        41.3632 
  58   0.0000       1.558190        42.4005 
  59   0.0000       1.560318        42.4584 
  60   0.0000       1.803020        49.0627 
  61   0.0000       1.890137        51.4332 
  62   0.0000       2.003226        54.5105 
  63   0.0000       2.019074        54.9418 
  64   0.0000       2.055535        55.9339 
  65   0.0000       2.118525        57.6480 
  66   0.0000       2.221331        60.4455 
  67   0.0000       2.247630        61.1611 
  68   0.0000       2.264052        61.6080 
  69   0.0000       2.271823        61.8194 
  70   0.0000       2.338649        63.6379 
  71   0.0000       2.346378        63.8482 
  72   0.0000       2.563966        69.7691 
  73   0.0000       2.609769        71.0154 
  74   0.0000       2.643448        71.9319 
  75   0.0000       2.701977        73.5245 
  76   0.0000       2.704098        73.5822 
  77   0.0000       2.973588        80.9154 
  78   0.0000       3.011530        81.9479 
  79   0.0000       3.022618        82.2496 
------------------
MOLECULAR ORBITALS
------------------
                      0         1         2         3         4         5   
                 -14.36312 -10.18715 -10.18710 -10.15062 -10.15028  -0.95984
                   2.00000   2.00000   2.00000   2.00000   2.00000   2.00000
                  --------  --------  --------  --------  --------  --------
  0C   1s        -0.000005  0.000824 -0.007020  0.700115  0.707156 -0.044025
  0C   2s         0.000043 -0.000110  0.001492  0.024444  0.027030  0.079958
  0C   1pz       -0.000000  0.000000 -0.000000 -0.000000 -0.000000 -0.000000
  0C   1px       -0.000274  0.000051 -0.000453 -0.000301  0.001173  0.024962
  0C   1py       -0.000415 -0.000002 -0.001499 -0.000650 -0.000609 -0.046506
  0C   3s         0.003508  0.006402 -0.007082 -0.015103 -0.029560  0.058571
  0C   2pz        0.000000 -0.000000  0.000000  0.000000  0.000000 -0.000000
  0C   2px        0.001215  0.000475  0.001098 -0.000134 -0.006731  0.009259
  0C   2py       -0.002201 -0.003409  0.002825  0.003204  0.004736 -0.016135
  0C   1dz2       0.000085  0.000128 -0.000639  0.000005 -0.000888 -0.005813
  0C   1dxz      -0.000000 -0.000000  0.000000  0.000000 -0.000000 -0.000000
  0C   1dyz      -0.000000  0.000000  0.000000  0.000000 -0.000000  0.000000
  0C   1dx2y2    -0.000169  0.000055 -0.001004 -0.000843  0.000614 -0.002474
  0C   1dxy       0.000116  0.000110  0.000379 -0.000128  0.000145 -0.002855
  1C   1s        -0.000005 -0.007001 -0.000885  0.707120 -0.700151 -0.044028
  1C   2s         0.000043  0.001475  0.000252  0.024712 -0.026785  0.079953
  1C   1pz        0.000000  0.000000  0.000000  0.000000 -0.000000  0.000000
  1C   1px        0.000353  0.000738  0.000132  0.000417  0.001029 -0.014981
  1C   1py       -0.000351 -0.001333 -0.000342 -0.000584  0.000829 -0.050609
  1C   3s         0.003507 -0.008414  0.004511 -0.015399  0.029408  0.058558
  1C   2pz        0.000000 -0.000000  0.000000 -0.000000  0.000000  0.000000
  1C   2px       -0.000741 -0.001656 -0.000174 -0.000464 -0.005632 -0.005809
  1C   2py       -0.002402  0.003293 -0.002722  0.003226 -0.005975 -0.017686
  1C   1dz2       0.000085 -0.000651 -0.000029 -0.000003  0.000888 -0.005816
  1C   1dxz      -0.000000  0.000000 -0.000000  0.000000  0.000000 -0.000000
  1C   1dyz      -0.000000 -0.000000 -0.000000 -0.000000  0.000000 -0.000000
  1C   1dx2y2    -0.000109 -0.000770 -0.000094 -0.000818 -0.000629 -0.003408
  1C   1dxy      -0.000173 -0.000707 -0.000256 -0.000217 -0.000113  0.001637
  2C   1s        -0.000052  0.120526 -0.987661 -0.005113 -0.005060 -0.086187
  2C   2s         0.000798  0.005166 -0.035189 -0.001782 -0.001372  0.165739
  2C   1pz       -0.000000  0.000000 -0.000000 -0.000000 -0.000000  0.000000
  2C   1px        0.000125  0.000262 -0.001707 -0.000128 -0.000221  0.101543
  2C   1py       -0.000010  0.000169  0.000297 -0.001230 -0.000777 -0.022676
  2C   3s        -0.011495 -0.009167  0.018622  0.008502  0.009672  0.036099
  2C   2pz       -0.000000 -0.000000  0.000000 -0.000000  0.000000 -0.000000
  2C   2px       -0.007225 -0.005427 -0.001475  0.003096  0.002680 -0.027887
  2C   2py       -0.001048 -0.004634  0.002119  0.003273  0.003005 -0.011015
  2C   1dz2      -0.000199  0.000206  0.001022  0.000349  0.000532 -0.011451
  2C   1dxz      -0.000000 -0.000000 -0.000000 -0.000000  0.000000  0.000000
  2C   1dyz      -0.000000 -0.000000 -0.000000 -0.000000 -0.000000  0.000000
  2C   1dx2y2     0.000344 -0.000084 -0.000163  0.000859  0.000637  0.007432
  2C   1dxy      -0.000790 -0.000110  0.000128 -0.000325 -0.000386 -0.005863
  3N   1s        -0.995279 -0.000109 -0.000139  0.000030  0.000000 -0.175133
  3N   2s        -0.033183 -0.000330 -0.000422  0.000261  0.000001  0.362725
  3N   1pz       -0.000000  0.000000  0.000000  0.000000 -0.000000  0.000000
  3N   1px        0.000076  0.000682 -0.000588 -0.000007  0.000130 -0.005541
  3N   1py       -0.000740  0.000329  0.000270  0.000066  0.000014  0.053948
  3N   3s         0.029217  0.002961  0.003784 -0.004270 -0.000021  0.376513
  3N   2pz        0.000000  0.000000  0.000000 -0.000000  0.000000  0.000000
  3N   2px       -0.000753  0.000675 -0.001372  0.000212  0.001244 -0.004078
  3N   2py        0.007317  0.004092  0.004999 -0.002123  0.000117  0.039329
  3N   1dz2      -0.000030 -0.001003 -0.001282 -0.000062 -0.000000 -0.016202
  3N   1dxz      -0.000000  0.000000  0.000000 -0.000000 -0.000000  0.000000
  3N   1dyz       0.000000  0.000000  0.000000 -0.000000  0.000000  0.000000
  3N   1dx2y2     0.000014  0.000118  0.000766 -0.000200 -0.000027 -0.006840
  3N   1dxy       0.000003  0.001524 -0.001014 -0.000042  0.000125 -0.001428
  4C   1s        -0.000052 -0.987692 -0.120271 -0.005154  0.005001 -0.086188
  4C   2s         0.000798 -0.035399 -0.003438 -0.001795  0.001353  0.165718
  4C   1pz       -0.000000  0.000000  0.000000  0.000000 -0.000000 -0.000000
  4C   1px       -0.000121  0.001634  0.000104  0.000379 -0.000371 -0.094817
  4C   1py       -0.000035  0.000592  0.000262 -0.001185  0.000703 -0.042868
  4C   3s        -0.011494  0.020279 -0.004424  0.008599 -0.009587  0.036208
  4C   2pz        0.000000 -0.000000  0.000000 -0.000000  0.000000  0.000000
  4C   2px        0.007287 -0.000521  0.006316 -0.003730  0.003199  0.029500
  4C   2py        0.000443  0.003131 -0.002762  0.002598 -0.002371 -0.005086
  4C   1dz2      -0.000199  0.000942  0.000445  0.000354 -0.000528 -0.011458
  4C   1dxz       0.000000 -0.000000 -0.000000 -0.000000 -0.000000  0.000000
  4C   1dyz       0.000000  0.000000  0.000000  0.000000 -0.000000  0.000000
  4C   1dx2y2     0.000001 -0.000067 -0.000141  0.000663 -0.000424  0.004483
  4C   1dxy       0.000862 -0.000194  0.000022  0.000646 -0.000602  0.008337
  5H   1s         0.000103 -0.000471  0.001434 -0.000044 -0.000062  0.023202
  5H   2s        -0.001724 -0.002040 -0.004702  0.001028  0.000427 -0.011222
  6H   1s         0.000166  0.000048  0.000313 -0.001204 -0.000971  0.009494
  6H   2s         0.000519  0.000370  0.000094  0.002258  0.001437  0.002725
  7H   1s         0.000166  0.000292  0.000122 -0.001215  0.000959  0.009497
  7H   2s         0.000519  0.000003  0.000382  0.002272 -0.001415  0.002732
  8H   1s         0.000103  0.001505 -0.000113 -0.000045  0.000061  0.023199
  8H   2s        -0.001723 -0.004074 -0.003110  0.001032 -0.000417 -0.011211
  9H   1s         0.000923  0.000505  0.000645 -0.000154 -0.000001  0.089135
  9H   2s        -0.001682  0.001043  0.001333 -0.000339 -0.000002  0.006461
                      6         7         8         9        10        11   
                  -0.75719  -0.70578  -0.57777  -0.55107  -0.53205  -0.41745
                   2.00000   2.00000   2.00000   2.00000   2.00000   2.00000
                  --------  --------  --------  --------  --------  --------
  0C   1s         0.127539  0.067419 -0.074577  0.100105  0.008352 -0.009244
  0C   2s        -0.244513 -0.131487  0.150503 -0.205094 -0.018041  0.020087
  0C   1pz        0.000000  0.000000 -0.000000 -0.000000  0.000000 -0.000000
  0C   1px       -0.065803  0.063718  0.032388  0.129468 -0.142005  0.110919
  0C   1py        0.035821  0.076654  0.149701 -0.002411 -0.013001 -0.269775
  0C   3s        -0.170588 -0.109701  0.137997 -0.114740  0.008463  0.041707
  0C   2pz        0.000000  0.000000 -0.000000 -0.000000  0.000000 -0.000000
  0C   2px       -0.004609  0.009321 -0.002170  0.073917 -0.039864  0.029675
  0C   2py       -0.001251  0.007212  0.048309 -0.049787 -0.012227 -0.105690
  0C   1dz2       0.011139  0.004668 -0.004423  0.004313  0.000584  0.001088
  0C   1dxz       0.000000 -0.000000 -0.000000 -0.000000  0.000000  0.000000
  0C   1dyz      -0.000000 -0.000000 -0.000000 -0.000000  0.000000  0.000000
  0C   1dx2y2    -0.003900  0.009512  0.007612  0.005485 -0.003259  0.000843
  0C   1dxy       0.003822 -0.000888 -0.001391  0.007456  0.006630  0.003717
  1C   1s         0.127547 -0.067405 -0.074593 -0.100112  0.008325 -0.009274
  1C   2s        -0.244497  0.131441  0.150505  0.205097 -0.017991  0.020158
  1C   1pz       -0.000000  0.000000  0.000000 -0.000000 -0.000000  0.000000
  1C   1px        0.057141  0.077990 -0.062156  0.126243  0.141717 -0.053696
  1C   1py        0.048436 -0.062066  0.140036  0.028742  0.016199 -0.286732
  1C   3s        -0.170934  0.109698  0.138508  0.114837  0.008665  0.041320
  1C   2pz       -0.000000  0.000000 -0.000000 -0.000000  0.000000  0.000000
  1C   2px        0.004879  0.010536 -0.007796  0.062188  0.041348 -0.007427
  1C   2py        0.000003 -0.005260  0.047200  0.063604 -0.003946 -0.108698
  1C   1dz2       0.011148 -0.004669 -0.004432 -0.004319  0.000583  0.001095
  1C   1dxz       0.000000  0.000000 -0.000000  0.000000  0.000000  0.000000
  1C   1dyz       0.000000 -0.000000  0.000000 -0.000000 -0.000000 -0.000000
  1C   1dx2y2    -0.002049 -0.008375  0.006419 -0.008007 -0.000349  0.002255
  1C   1dxy      -0.005060 -0.004605  0.004304  0.004651 -0.007375 -0.003063
  2C   1s         0.039862  0.135919  0.061556 -0.025213 -0.074415 -0.006786
  2C   2s        -0.075462 -0.273138 -0.126001  0.056907  0.150025  0.012828
  2C   1pz       -0.000000 -0.000000 -0.000000 -0.000000 -0.000000 -0.000000
  2C   1px        0.005212 -0.012769 -0.055973  0.049259 -0.245404 -0.046264
  2C   1py       -0.129309 -0.001207  0.012427 -0.219425 -0.042032  0.203461
  2C   3s        -0.053952 -0.183866 -0.091688 -0.010152  0.150887 -0.028879
  2C   2pz       -0.000000 -0.000000 -0.000000 -0.000000 -0.000000 -0.000000
  2C   2px       -0.000628  0.025603  0.004896 -0.017760 -0.079745 -0.027663
  2C   2py       -0.018096  0.005228  0.008001 -0.077670 -0.034746  0.040047
  2C   1dz2       0.002900  0.010373  0.004368 -0.003260 -0.002382  0.002764
  2C   1dxz      -0.000000 -0.000000 -0.000000 -0.000000  0.000000 -0.000000
  2C   1dyz      -0.000000 -0.000000 -0.000000 -0.000000  0.000000  0.000000
  2C   1dx2y2     0.004239  0.002399 -0.013566  0.008263 -0.005054 -0.013116
  2C   1dxy      -0.013476 -0.000835 -0.004514 -0.006033  0.009513  0.011875
  3N   1s        -0.095353 -0.000004 -0.029288 -0.000004  0.036861  0.028364
  3N   2s         0.211523 -0.000004  0.063326 -0.000011 -0.087959 -0.079915
  3N   1pz       -0.000000  0.000000 -0.000000 -0.000000 -0.000000 -0.000000
  3N   1px        0.013622  0.225942  0.036239 -0.271499  0.015037  0.029657
  3N   1py       -0.132585  0.023218 -0.352380 -0.027868 -0.146681 -0.286625
  3N   3s         0.225303  0.000117  0.080533  0.000120 -0.096771 -0.070245
  3N   2pz       -0.000000  0.000000 -0.000000 -0.000000  0.000000 -0.000000
  3N   2px        0.006967  0.098797  0.017187 -0.132329  0.005903  0.010200
  3N   2py       -0.068384  0.010250 -0.167388 -0.013574 -0.057139 -0.098468
  3N   1dz2      -0.004212 -0.000002 -0.003394 -0.000000 -0.001145 -0.005941
  3N   1dxz       0.000000  0.000000 -0.000000 -0.000000  0.000000 -0.000000
  3N   1dyz       0.000000  0.000000 -0.000000 -0.000000 -0.000000 -0.000000
  3N   1dx2y2    -0.002415 -0.002615 -0.012614  0.000367  0.009917 -0.020398
  3N   1dxy      -0.000508  0.012603 -0.002621 -0.001787  0.002066 -0.004235
  4C   1s         0.039869 -0.135914  0.061556  0.025238 -0.074409 -0.006771
  4C   2s        -0.075464  0.273079 -0.125938 -0.056954  0.149973  0.012796
  4C   1pz        0.000000 -0.000000  0.000000 -0.000000  0.000000 -0.000000
  4C   1px        0.021218 -0.012766  0.052278  0.003508  0.248810  0.003529
  4C   1py       -0.127648 -0.001442  0.023526  0.224841  0.008807  0.208553
  4C   3s        -0.053709  0.183818 -0.092173  0.009927  0.150912 -0.028351
  4C   2pz        0.000000  0.000000 -0.000000 -0.000000  0.000000 -0.000000
  4C   2px        0.004118  0.026336 -0.006209 -0.033039  0.085513  0.018571
  4C   2py       -0.017537  0.000125  0.006639  0.072388 -0.017712  0.045074
  4C   1dz2       0.002900 -0.010374  0.004375  0.003263 -0.002379  0.002757
  4C   1dxz      -0.000000  0.000000 -0.000000 -0.000000 -0.000000 -0.000000
  4C   1dyz       0.000000 -0.000000  0.000000 -0.000000 -0.000000 -0.000000
  4C   1dx2y2    -0.001487 -0.001871 -0.014241 -0.005175 -0.000853 -0.007317
  4C   1dxy       0.014056 -0.001731 -0.001252 -0.008825 -0.010752 -0.016106
  5H   1s        -0.007754 -0.092782 -0.036292  0.053534  0.185579 -0.026156
  5H   2s        -0.000432 -0.020584 -0.009729  0.021065  0.104094 -0.027692
  6H   1s        -0.058102 -0.041494  0.101370 -0.129365  0.031618 -0.153520
  6H   2s        -0.009549 -0.009403  0.045180 -0.049034  0.021387 -0.128781
  7H   1s        -0.058129  0.041498  0.101420  0.129385  0.031670 -0.153489
  7H   2s        -0.009626  0.009441  0.045345  0.049081  0.021479 -0.129041
  8H   1s        -0.007752  0.092766 -0.036282 -0.053592  0.185558 -0.026381
  8H   2s        -0.000370  0.020480 -0.009781 -0.021159  0.103868 -0.027791
  9H   1s         0.126832  0.000008  0.216583 -0.000021  0.043890  0.173297
  9H   2s         0.018092  0.000038  0.092026 -0.000019  0.030022  0.147623
                     12        13        14        15        16        17   
                  -0.41137  -0.38986  -0.37638  -0.36100  -0.22866  -0.19801
                   2.00000   2.00000   2.00000   2.00000   2.00000   2.00000
                  --------  --------  --------  --------  --------  --------
  0C   1s         0.031903 -0.000000  0.006067 -0.010628  0.000000 -0.000000
  0C   2s        -0.062205  0.000000 -0.001163  0.028871 -0.000000  0.000000
  0C   1pz       -0.000000 -0.153489 -0.000000 -0.000000 -0.333618  0.214973
  0C   1px        0.015128 -0.000000  0.071727  0.372467 -0.000000  0.000000
  0C   1py       -0.007144  0.000000 -0.298778  0.104350  0.000000 -0.000000
  0C   3s        -0.132486 -0.000000 -0.098130  0.012660  0.000000  0.000000
  0C   2pz       -0.000000 -0.078472 -0.000000 -0.000000 -0.243217  0.159531
  0C   2px       -0.025332 -0.000000 -0.007846  0.117608 -0.000000  0.000000
  0C   2py        0.009175  0.000000 -0.028273  0.069447 -0.000000  0.000000
  0C   1dz2       0.001627  0.000000  0.004005  0.001810  0.000000 -0.000000
  0C   1dxz      -0.000000 -0.005447 -0.000000 -0.000000 -0.011055 -0.011834
  0C   1dyz       0.000000  0.009263  0.000000 -0.000000  0.001093 -0.014131
  0C   1dx2y2     0.006153 -0.000000 -0.009352  0.013243  0.000000 -0.000000
  0C   1dxy       0.009071 -0.000000  0.020500  0.007684 -0.000000  0.000000
  1C   1s        -0.031891  0.000000 -0.006075 -0.010627 -0.000000 -0.000000
  1C   2s         0.062170 -0.000000  0.001184  0.028875  0.000000  0.000000
  1C   1pz       -0.000000 -0.153474 -0.000000  0.000000 -0.333755 -0.214600
  1C   1px        0.013475  0.000000  0.009392 -0.385924 -0.000000 -0.000000
  1C   1py        0.010419 -0.000000  0.307189  0.026324 -0.000000 -0.000000
  1C   3s         0.132530  0.000000  0.098277  0.012434  0.000000 -0.000000
  1C   2pz       -0.000000 -0.078574 -0.000000  0.000000 -0.243283 -0.159322
  1C   2px       -0.022885 -0.000000 -0.013488 -0.128880  0.000000 -0.000000
  1C   2py       -0.014091 -0.000000  0.025804  0.044183 -0.000000  0.000000
  1C   1dz2      -0.001631 -0.000000 -0.004010  0.001815 -0.000000 -0.000000
  1C   1dxz      -0.000000  0.003453 -0.000000 -0.000000  0.010596 -0.014469
  1C   1dyz       0.000000  0.010179  0.000000  0.000000  0.003318  0.011419
  1C   1dx2y2    -0.009263  0.000000  0.000405  0.015199  0.000000  0.000000
  1C   1dxy       0.005865 -0.000000  0.022519 -0.001782 -0.000000 -0.000000
  2C   1s        -0.012898 -0.000000 -0.039080  0.002322  0.000000  0.000000
  2C   2s         0.014989  0.000000  0.082175 -0.010191 -0.000000 -0.000000
  2C   1pz       -0.000000 -0.234101  0.000000 -0.000000 -0.033283  0.371909
  2C   1px       -0.319258  0.000000  0.061288 -0.072225  0.000000 -0.000000
  2C   1py       -0.013045  0.000000  0.245578 -0.192850 -0.000000 -0.000000
  2C   3s         0.074944  0.000000  0.176067  0.056310 -0.000000  0.000000
  2C   2pz       -0.000000 -0.118841  0.000000 -0.000000 -0.026041  0.293631
  2C   2px       -0.066438  0.000000  0.036513  0.042076 -0.000000  0.000000
  2C   2py        0.010628  0.000000  0.107916 -0.062679 -0.000000 -0.000000
  2C   1dz2      -0.001196 -0.000000  0.001853 -0.003411 -0.000000  0.000000
  2C   1dxz      -0.000000 -0.017070  0.000000 -0.000000  0.008571  0.000580
  2C   1dyz      -0.000000  0.002209 -0.000000 -0.000000 -0.021799  0.005613
  2C   1dx2y2     0.007279 -0.000000 -0.005256  0.007546 -0.000000  0.000000
  2C   1dxy       0.022588 -0.000000  0.006211  0.014644 -0.000000  0.000000
  3N   1s        -0.000016 -0.000000 -0.000004  0.018215  0.000000  0.000000
  3N   2s         0.000044  0.000000  0.000024 -0.032834 -0.000000 -0.000000
  3N   1pz       -0.000000 -0.412506  0.000000 -0.000000  0.380794 -0.000146
  3N   1px        0.334975 -0.000000  0.104613 -0.000593 -0.000000 -0.000000
  3N   1py        0.034581  0.000000  0.010785  0.005800 -0.000000 -0.000000
  3N   3s         0.000040  0.000000  0.000070 -0.166251 -0.000000 -0.000000
  3N   2pz       -0.000000 -0.274044  0.000000 -0.000000  0.321947 -0.000009
  3N   2px        0.176491 -0.000000  0.081602  0.004121 -0.000000 -0.000000
  3N   2py        0.018234  0.000000  0.008431 -0.040793 -0.000000 -0.000000
  3N   1dz2       0.000001 -0.000000  0.000002  0.000398  0.000000 -0.000000
  3N   1dxz       0.000000  0.000958  0.000000  0.000000  0.000754 -0.024749
  3N   1dyz      -0.000000 -0.009308  0.000000 -0.000000 -0.007405 -0.002537
  3N   1dx2y2    -0.001775  0.000000  0.002022  0.010530 -0.000000  0.000000
  3N   1dxy       0.008626 -0.000000 -0.009724  0.002186  0.000000  0.000000
  4C   1s         0.012910  0.000000  0.039083  0.002315 -0.000000  0.000000
  4C   2s        -0.014940 -0.000000 -0.082139 -0.010162  0.000000 -0.000000
  4C   1pz       -0.000000 -0.234092  0.000000  0.000000 -0.033507 -0.371827
  4C   1px       -0.315197  0.000000  0.109961  0.109927 -0.000000  0.000000
  4C   1py       -0.052401 -0.000000 -0.228027 -0.174084  0.000000 -0.000000
  4C   3s        -0.075231 -0.000000 -0.176335  0.056394  0.000000  0.000000
  4C   2pz       -0.000000 -0.118842  0.000000  0.000000 -0.026440 -0.293844
  4C   2px       -0.062996  0.000000  0.057968 -0.028641 -0.000000 -0.000000
  4C   2py       -0.024033 -0.000000 -0.098404 -0.070064  0.000000 -0.000000
  4C   1dz2       0.001200  0.000000 -0.001846 -0.003412  0.000000  0.000000
  4C   1dxz       0.000000  0.016270 -0.000000  0.000000 -0.003950  0.001725
  4C   1dyz       0.000000  0.005641  0.000000  0.000000 -0.023087 -0.005344
  4C   1dx2y2    -0.015668  0.000000  0.002351  0.012761  0.000000  0.000000
  4C   1dxy       0.017845 -0.000000  0.007800 -0.010419  0.000000 -0.000000
  5H   1s         0.201262 -0.000000 -0.064329  0.117953 -0.000000  0.000000
  5H   2s         0.189870 -0.000000 -0.067535  0.138692 -0.000000  0.000000
  6H   1s        -0.049746  0.000000 -0.191003 -0.107647  0.000000 -0.000000
  6H   2s        -0.042073  0.000000 -0.201819 -0.117706  0.000000 -0.000000
  7H   1s         0.049943 -0.000000  0.191016 -0.107685 -0.000000 -0.000000
  7H   2s         0.042248  0.000000  0.201924 -0.117904 -0.000000 -0.000000
  8H   1s        -0.201210  0.000000  0.064336  0.117939 -0.000000  0.000000
  8H   2s        -0.189668  0.000000  0.067388  0.138698 -0.000000  0.000000
  9H   1s        -0.000089 -0.000000 -0.000014 -0.033126  0.000000 -0.000000
  9H   2s        -0.000070 -0.000000 -0.000011 -0.030006  0.000000 -0.000000
                     18        19        20        21        22        23   
                   0.05426   0.08283   0.10010   0.14482   0.16792   0.17538
                   0.00000   0.00000   0.00000   0.00000   0.00000   0.00000
                  --------  --------  --------  --------  --------  --------
  0C   1s        -0.000000  0.023230  0.000000 -0.021058  0.029283  0.050616
  0C   2s         0.000000 -0.041433 -0.000000  0.014476 -0.078541 -0.079895
  0C   1pz        0.177562  0.000000 -0.391590 -0.000000  0.000000 -0.000000
  0C   1px        0.000000  0.017565  0.000000 -0.097221 -0.043484  0.157600
  0C   1py        0.000000 -0.039597  0.000000  0.117942  0.060205 -0.137243
  0C   3s         0.000000 -0.176128 -0.000000  0.612948  0.186450 -0.891017
  0C   2pz        0.262492  0.000000 -0.657666 -0.000000 -0.000000 -0.000000
  0C   2px        0.000000  0.042831  0.000000 -0.197752  0.271366  0.597334
  0C   2py        0.000000 -0.111865  0.000000  0.189957 -0.067459 -0.403548
  0C   1dz2      -0.000000 -0.002565 -0.000000  0.002798 -0.004514 -0.000105
  0C   1dxz       0.014225 -0.000000  0.018251  0.000000 -0.000000 -0.000000
  0C   1dyz       0.021584  0.000000 -0.007474 -0.000000 -0.000000  0.000000
  0C   1dx2y2     0.000000 -0.005074 -0.000000 -0.005592  0.011404 -0.003718
  0C   1dxy       0.000000 -0.014833 -0.000000  0.012682  0.004617 -0.006726
  1C   1s         0.000000  0.023233  0.000000 -0.021264 -0.028997  0.052060
  1C   2s        -0.000000 -0.041472 -0.000000  0.014808  0.078064 -0.082222
  1C   1pz        0.177611 -0.000000  0.391713  0.000000  0.000000  0.000000
  1C   1px        0.000000 -0.009144  0.000000  0.071237 -0.031026 -0.126899
  1C   1py       -0.000000 -0.042361  0.000000  0.135306 -0.069145 -0.168347
  1C   3s        -0.000000 -0.175236 -0.000000  0.613873 -0.191705 -0.905993
  1C   2pz        0.262105 -0.000000  0.657651  0.000000 -0.000000  0.000000
  1C   2px        0.000000 -0.019836 -0.000000  0.156875  0.249703 -0.510254
  1C   2py       -0.000000 -0.119834  0.000000  0.228964  0.117859 -0.532354
  1C   1dz2      -0.000000 -0.002581 -0.000000  0.002814  0.004505 -0.000178
  1C   1dxz      -0.018311 -0.000000  0.016331  0.000000  0.000000 -0.000000
  1C   1dyz       0.018236 -0.000000  0.011047  0.000000 -0.000000 -0.000000
  1C   1dx2y2     0.000000 -0.010566 -0.000000 -0.000113 -0.012338 -0.005964
  1C   1dxy      -0.000000  0.011580 -0.000000 -0.013852 -0.000235  0.004603
  2C   1s        -0.000000  0.014637  0.000000 -0.070252 -0.063210 -0.056969
  2C   2s         0.000000 -0.018132  0.000000  0.107283  0.112068  0.094202
  2C   1pz       -0.361102 -0.000000  0.234671  0.000000  0.000000  0.000000
  2C   1px        0.000000  0.135822  0.000000 -0.070294 -0.230468 -0.047584
  2C   1py        0.000000  0.013156  0.000000 -0.113254 -0.117519 -0.074410
  2C   3s         0.000000 -0.388248 -0.000000  0.857194  0.985411  0.728492
  2C   2pz       -0.520409 -0.000000  0.402311  0.000000 -0.000000  0.000000
  2C   2px       -0.000000  0.183381  0.000000 -0.244527 -0.917846 -0.433836
  2C   2py        0.000000 -0.051145  0.000000 -0.488056 -0.408291 -0.258101
  2C   1dz2       0.000000 -0.000214 -0.000000  0.006402  0.002644  0.003967
  2C   1dxz       0.017130  0.000000 -0.001477 -0.000000 -0.000000  0.000000
  2C   1dyz       0.000794  0.000000 -0.027065 -0.000000  0.000000 -0.000000
  2C   1dx2y2    -0.000000  0.007003  0.000000 -0.009578  0.004503 -0.007951
  2C   1dxy       0.000000  0.011486  0.000000 -0.005848 -0.002858  0.016721
  3N   1s        -0.000000  0.082041  0.000000  0.067299  0.000043  0.036318
  3N   2s         0.000000 -0.150317 -0.000000 -0.117290 -0.000085 -0.110150
  3N   1pz        0.354364  0.000000  0.000005 -0.000000 -0.000000 -0.000000
  3N   1px        0.000000 -0.025174  0.000000 -0.009725  0.038411  0.014712
  3N   1py       -0.000000  0.244367  0.000000  0.096066  0.003365 -0.143836
  3N   3s         0.000000 -1.103446 -0.000000 -0.989243 -0.000443 -0.096512
  3N   2pz        0.487821  0.000000  0.000051 -0.000000 -0.000000  0.000000
  3N   2px        0.000000 -0.064548  0.000000 -0.036877  0.111587  0.016144
  3N   2py       -0.000000  0.628186  0.000000  0.363875  0.009877 -0.143258
  3N   1dz2      -0.000000 -0.001596 -0.000000  0.005858 -0.000005 -0.006877
  3N   1dxz       0.002104  0.000000 -0.027456 -0.000000  0.000000 -0.000000
  3N   1dyz      -0.020410  0.000000 -0.002827 -0.000000  0.000000  0.000000
  3N   1dx2y2     0.000000 -0.010378 -0.000000  0.022688  0.000451  0.005563
  3N   1dxy      -0.000000 -0.002146 -0.000000  0.004711 -0.002278  0.001303
  4C   1s         0.000000  0.014629  0.000000 -0.070013  0.063132 -0.057522
  4C   2s        -0.000000 -0.018016  0.000000  0.106976 -0.111864  0.095503
  4C   1pz       -0.360883  0.000000 -0.234894 -0.000000  0.000000 -0.000000
  4C   1px        0.000000 -0.135558 -0.000000  0.091245 -0.249494  0.062037
  4C   1py       -0.000000 -0.014736  0.000000 -0.096461  0.068028 -0.062889
  4C   3s        -0.000000 -0.389187 -0.000000  0.854168 -0.984002  0.728164
  4C   2pz       -0.520286  0.000000 -0.402305  0.000000 -0.000000 -0.000000
  4C   2px        0.000000 -0.168655  0.000000  0.336062 -0.981988  0.485702
  4C   2py       -0.000000 -0.087956  0.000000 -0.427007  0.211949 -0.161838
  4C   1dz2      -0.000000 -0.000202 -0.000000  0.006400 -0.002657  0.004057
  4C   1dxz      -0.016928  0.000000 -0.006956 -0.000000  0.000000 -0.000000
  4C   1dyz      -0.002701 -0.000000  0.026207  0.000000 -0.000000  0.000000
  4C   1dx2y2    -0.000000  0.011013  0.000000 -0.011145 -0.002952 -0.000527
  4C   1dxy       0.000000 -0.007742 -0.000000  0.001530 -0.004493 -0.018447
  5H   1s        -0.000000  0.023739  0.000000 -0.076851 -0.042638 -0.025722
  5H   2s        -0.000000  0.446155  0.000000 -1.079150 -1.677101 -0.924013
  6H   1s        -0.000000  0.052940  0.000000 -0.028475  0.012048  0.041570
  6H   2s        -0.000000  0.350186  0.000000 -0.683151  0.126641  1.303723
  7H   1s         0.000000  0.052969  0.000000 -0.028576 -0.011678  0.042217
  7H   2s         0.000000  0.351464  0.000000 -0.687150 -0.118293  1.329423
  8H   1s         0.000000  0.023812  0.000000 -0.076810  0.042910 -0.026282
  8H   2s         0.000000  0.445738  0.000000 -1.074286  1.676201 -0.932181
  9H   1s        -0.000000  0.122965  0.000000  0.026511 -0.000010  0.020168
  9H   2s        -0.000000  1.534943  0.000000  0.871819 -0.002020 -0.168486
                     24        25        26        27        28        29   
                   0.18653   0.24476   0.24931   0.34526   0.37572   0.45854
                   0.00000   0.00000   0.00000   0.00000   0.00000   0.00000
                  --------  --------  --------  --------  --------  --------
  0C   1s        -0.090164  0.038739  0.046356  0.049450  0.061404 -0.070399
  0C   2s         0.169623 -0.039086 -0.050259 -0.076826  0.023703  0.073822
  0C   1pz       -0.000000  0.000000  0.000000 -0.000000 -0.000000 -0.000000
  0C   1px       -0.092016 -0.211394  0.085882 -0.140039  0.068350  0.218442
  0C   1py        0.158009 -0.052016  0.140265  0.019383  0.232307  0.010833
  0C   3s         0.961927 -1.007805 -1.157113 -1.591522 -3.098303  2.527557
  0C   2pz        0.000000  0.000000  0.000000  0.000000  0.000000 -0.000000
  0C   2px       -0.658923 -1.139652  0.456636  0.034033 -0.529055  2.786140
  0C   2py        0.966923 -0.294330  0.524460  1.544813  2.513705 -0.083469
  0C   1dz2       0.006112 -0.000812 -0.004414  0.013113  0.016254 -0.004304
  0C   1dxz       0.000000  0.000000 -0.000000  0.000000 -0.000000  0.000000
  0C   1dyz      -0.000000  0.000000 -0.000000 -0.000000  0.000000 -0.000000
  0C   1dx2y2    -0.001262  0.025705 -0.006924 -0.035485  0.001774 -0.018779
  0C   1dxy      -0.007365  0.014934  0.026189  0.009629 -0.016145  0.010725
  1C   1s         0.089433 -0.040087  0.045081  0.049258 -0.061667  0.070264
  1C   2s        -0.168013  0.040543 -0.048675 -0.076472 -0.023172 -0.073493
  1C   1pz       -0.000000  0.000000 -0.000000  0.000000  0.000000 -0.000000
  1C   1px       -0.056040 -0.214497 -0.118958  0.133649  0.113870  0.216318
  1C   1py       -0.170501  0.004651  0.120388  0.047192 -0.214351  0.033296
  1C   3s        -0.950712  1.042352 -1.125584 -1.582269  3.106329 -2.524974
  1C   2pz        0.000000  0.000000 -0.000000 -0.000000  0.000000 -0.000000
  1C   2px       -0.441936 -1.158641 -0.586529 -0.340984 -0.004778  2.710664
  1C   2py       -1.072610  0.042743  0.420341  1.491294 -2.575195  0.645708
  1C   1dz2      -0.006085  0.000911 -0.004370  0.013066 -0.016306  0.004311
  1C   1dxz      -0.000000 -0.000000 -0.000000  0.000000  0.000000 -0.000000
  1C   1dyz      -0.000000  0.000000  0.000000  0.000000  0.000000 -0.000000
  1C   1dx2y2     0.004217 -0.029634  0.003146 -0.028847  0.004956  0.013059
  1C   1dxy      -0.006387  0.004164 -0.026656 -0.023053 -0.015378  0.017464
  2C   1s         0.016834  0.066040 -0.013885 -0.068995 -0.057258  0.049166
  2C   2s        -0.057909 -0.118506  0.038720 -0.020000  0.065249  0.002147
  2C   1pz       -0.000000 -0.000000 -0.000000  0.000000  0.000000  0.000000
  2C   1px       -0.058703 -0.158602 -0.162938  0.111687  0.138335 -0.251952
  2C   1py       -0.058062  0.061652  0.190555  0.191023 -0.052110  0.243300
  2C   3s         0.392810 -1.226601  0.309544  2.574700  2.269060 -1.318715
  2C   2pz        0.000000 -0.000000 -0.000000  0.000000  0.000000  0.000000
  2C   2px        0.288676 -0.462797 -0.865008  1.811398  0.640675 -1.643799
  2C   2py       -0.130419  0.366186  1.071589  1.003634  2.462917  0.557751
  2C   1dz2      -0.006430 -0.006989 -0.001507  0.001260 -0.004889 -0.017647
  2C   1dxz      -0.000000 -0.000000  0.000000  0.000000 -0.000000  0.000000
  2C   1dyz      -0.000000  0.000000  0.000000  0.000000 -0.000000 -0.000000
  2C   1dx2y2    -0.007931 -0.003519  0.031238 -0.003867  0.022306  0.005131
  2C   1dxy      -0.000726 -0.033281 -0.008593 -0.005739 -0.007300  0.000847
  3N   1s        -0.000237  0.000925 -0.064989  0.066928 -0.000170 -0.000079
  3N   2s         0.000757 -0.001317  0.087126 -0.037249  0.000252  0.000086
  3N   1pz       -0.000000  0.000000  0.000000  0.000000 -0.000000 -0.000000
  3N   1px       -0.005092 -0.349097 -0.027520  0.014804 -0.164493 -0.357294
  3N   1py        0.000667 -0.038997  0.217593 -0.151366 -0.016701 -0.036479
  3N   3s         0.000465 -0.021242  1.519512 -2.228371  0.005199  0.002569
  3N   2pz        0.000000  0.000000  0.000000 -0.000000 -0.000000 -0.000000
  3N   2px        0.194286 -1.096277 -0.095827  0.158540 -0.184734 -1.625766
  3N   2py        0.021267 -0.123404  0.777992 -1.572595 -0.014791 -0.165460
  3N   1dz2       0.000062  0.000068 -0.004731  0.030429 -0.000092 -0.000037
  3N   1dxz       0.000000 -0.000000  0.000000 -0.000000  0.000000  0.000000
  3N   1dyz       0.000000 -0.000000  0.000000 -0.000000 -0.000000  0.000000
  3N   1dx2y2    -0.004055 -0.006751 -0.024682 -0.018289  0.012702 -0.009615
  3N   1dxy       0.019402  0.034288 -0.004596 -0.003910 -0.060756  0.046444
  4C   1s        -0.016169 -0.065626 -0.015673 -0.068889  0.057586 -0.048978
  4C   2s         0.056624  0.117782  0.041669 -0.019727 -0.064345 -0.002190
  4C   1pz       -0.000000 -0.000000  0.000000 -0.000000  0.000000  0.000000
  4C   1px       -0.069897 -0.145688  0.116177 -0.147855  0.125818 -0.196795
  4C   1py        0.045824 -0.098940  0.216906  0.163972  0.078275 -0.290045
  4C   3s        -0.400208  1.215000  0.342263  2.565096 -2.282214  1.313619
  4C   2pz        0.000000 -0.000000  0.000000 -0.000000  0.000000 -0.000000
  4C   2px        0.250181 -0.395269  0.618157 -1.976362  1.137668 -1.491559
  4C   2py        0.189511 -0.488762  1.210525  0.599689 -2.284370 -0.881315
  4C   1dz2       0.006369  0.007055 -0.001273  0.001311  0.004844  0.017546
  4C   1dxz      -0.000000  0.000000  0.000000 -0.000000  0.000000 -0.000000
  4C   1dyz      -0.000000  0.000000 -0.000000  0.000000 -0.000000 -0.000000
  4C   1dx2y2     0.007549  0.015786  0.025694 -0.005839 -0.017590 -0.005074
  4C   1dxy       0.002787 -0.029657  0.019431  0.003718 -0.015622 -0.001314
  5H   1s         0.018818 -0.072081  0.027362 -0.038975  0.022220  0.105920
  5H   2s         0.001396  0.137394 -0.314523  0.989642  0.768034 -0.485816
  6H   1s        -0.043590 -0.055676 -0.080107 -0.027993  0.030584 -0.050892
  6H   2s        -1.747305 -0.307861  0.157234 -0.476164 -0.943535  0.842252
  7H   1s         0.042791  0.057962 -0.078424 -0.027704 -0.030567  0.050990
  7H   2s         1.728213  0.303609  0.165341 -0.472078  0.945349 -0.841040
  8H   1s        -0.018606  0.071297  0.029388 -0.038989 -0.021843 -0.105673
  8H   2s         0.009578 -0.129574 -0.317531  0.987041 -0.772879  0.483544
  9H   1s        -0.000137 -0.001488  0.105566  0.010945  0.000007 -0.000044
  9H   2s         0.001893 -0.008931  0.642006 -0.750615  0.001968  0.000854
                     30        31        32        33        34        35   
                   0.55288   0.56157   0.58536   0.60934   0.61497   0.62508
                   0.00000   0.00000   0.00000   0.00000   0.00000   0.00000
                  --------  --------  --------  --------  --------  --------
  0C   1s        -0.008359  0.000000 -0.018168 -0.000000  0.089703  0.038416
  0C   2s         0.382714  0.000000  0.098781 -0.000000  0.034708  0.129833
  0C   1pz        0.000000 -0.430570  0.000000  0.327883 -0.000000  0.000000
  0C   1px       -0.191420 -0.000000 -0.100692 -0.000000 -0.431879  0.238273
  0C   1py       -0.146457 -0.000000 -0.321724 -0.000000 -0.170729  0.347375
  0C   3s        -0.096805 -0.000000  0.468270  0.000000 -1.391213 -0.406585
  0C   2pz       -0.000000  0.262340 -0.000000 -0.308386  0.000000 -0.000000
  0C   2px        0.436704 -0.000000  0.095891  0.000000 -0.324808 -0.404951
  0C   2py       -0.157170  0.000000 -0.000349  0.000000  1.256265 -0.092386
  0C   1dz2      -0.049887  0.000000  0.008256  0.000000 -0.080161 -0.053918
  0C   1dxz      -0.000000 -0.015665  0.000000  0.000815 -0.000000 -0.000000
  0C   1dyz       0.000000  0.028849 -0.000000 -0.043004  0.000000 -0.000000
  0C   1dx2y2    -0.030301 -0.000000 -0.002335 -0.000000  0.017992  0.003689
  0C   1dxy      -0.059863 -0.000000  0.049772  0.000000  0.006488 -0.020677
  1C   1s        -0.008128 -0.000000 -0.018096 -0.000000 -0.090238  0.037315
  1C   2s         0.382992  0.000000  0.099636 -0.000000 -0.035532  0.128973
  1C   1pz       -0.000000 -0.432437 -0.000000 -0.326550 -0.000000 -0.000000
  1C   1px        0.217610 -0.000000  0.164859  0.000000 -0.452701 -0.309090
  1C   1py       -0.104574  0.000000 -0.294403 -0.000000  0.074600  0.291608
  1C   3s        -0.104375  0.000000  0.466140  0.000000  1.396347 -0.391796
  1C   2pz        0.000000  0.264350  0.000000  0.307716  0.000000  0.000000
  1C   2px       -0.393401 -0.000000 -0.093973 -0.000000 -0.069270  0.416356
  1C   2py       -0.236613 -0.000000 -0.020884 -0.000000 -1.296069 -0.019415
  1C   1dz2      -0.049972 -0.000000  0.008130  0.000000  0.080759 -0.052818
  1C   1dxz      -0.000000  0.009398  0.000000 -0.007955  0.000000 -0.000000
  1C   1dyz      -0.000000  0.031617  0.000000  0.042184  0.000000  0.000000
  1C   1dx2y2    -0.051658 -0.000000  0.017676 -0.000000 -0.019135 -0.004882
  1C   1dxy       0.042777  0.000000 -0.046582 -0.000000 -0.001249  0.020425
  2C   1s         0.018785 -0.000000  0.055048 -0.000000 -0.016539 -0.017791
  2C   2s         0.499394  0.000000 -0.165237  0.000000  0.293729 -0.271685
  2C   1pz        0.000000 -0.582985  0.000000  0.658815  0.000000  0.000000
  2C   1px       -0.011511 -0.000000 -0.327636  0.000000 -0.133337 -0.351562
  2C   1py        0.079284  0.000000  0.337711 -0.000000  0.381183  0.327362
  2C   3s        -1.117431  0.000000 -0.276350 -0.000000  0.945100  0.833911
  2C   2pz       -0.000000  0.578048 -0.000000 -0.776123 -0.000000 -0.000000
  2C   2px       -0.533254  0.000000 -0.150863 -0.000000  0.827617  1.023019
  2C   2py       -0.276270  0.000000 -0.871350  0.000000  0.182026 -0.108528
  2C   1dz2      -0.061685 -0.000000 -0.042283  0.000000 -0.039923  0.027361
  2C   1dxz       0.000000 -0.017783  0.000000  0.041876 -0.000000  0.000000
  2C   1dyz       0.000000 -0.017840  0.000000  0.029143 -0.000000  0.000000
  2C   1dx2y2     0.008072 -0.000000 -0.024336 -0.000000 -0.000403  0.076886
  2C   1dxy       0.064030  0.000000 -0.041227 -0.000000 -0.017827  0.000470
  3N   1s        -0.018100  0.000000 -0.077024  0.000000 -0.000036 -0.008665
  3N   2s         0.095769 -0.000000  0.292222 -0.000000  0.000288 -0.002848
  3N   1pz       -0.000000 -0.171527 -0.000000  0.001181  0.000000 -0.000000
  3N   1px        0.002324 -0.000000 -0.018693 -0.000000 -0.145419 -0.003542
  3N   1py       -0.019667 -0.000000  0.186794 -0.000000 -0.015045  0.024996
  3N   3s         0.769880  0.000000 -0.121885  0.000000  0.008136 -1.164634
  3N   2pz        0.000000 -0.069836  0.000000 -0.000868 -0.000000 -0.000000
  3N   2px       -0.074646  0.000000 -0.034371  0.000000  0.371936  0.053470
  3N   2py        0.724060  0.000000  0.331074  0.000000  0.042595 -0.503628
  3N   1dz2      -0.072354 -0.000000  0.099196 -0.000000 -0.000649  0.110654
  3N   1dxz       0.000000  0.003365 -0.000000 -0.040679  0.000000 -0.000000
  3N   1dyz       0.000000 -0.033551 -0.000000 -0.004073  0.000000 -0.000000
  3N   1dx2y2    -0.054124 -0.000000  0.029510  0.000000 -0.006965 -0.069600
  3N   1dxy      -0.011289  0.000000  0.006153  0.000000  0.035436 -0.014302
  4C   1s         0.018699  0.000000  0.055085  0.000000  0.016946 -0.017588
  4C   2s         0.500624  0.000000 -0.163415  0.000000 -0.290965 -0.275698
  4C   1pz        0.000000 -0.585656 -0.000000 -0.656243  0.000000 -0.000000
  4C   1px       -0.004222 -0.000000  0.252493 -0.000000 -0.056243  0.277501
  4C   1py        0.081019 -0.000000  0.397491 -0.000000 -0.404622  0.386582
  4C   3s        -1.114046 -0.000000 -0.279038 -0.000000 -0.955795  0.825814
  4C   2pz        0.000000  0.580939  0.000000  0.773875 -0.000000  0.000000
  4C   2px        0.573708  0.000000  0.323652  0.000000  0.862247 -0.972089
  4C   2py       -0.160055 -0.000000 -0.822161  0.000000 -0.007326 -0.314050
  4C   1dz2      -0.061773  0.000000 -0.042445  0.000000  0.039335  0.027790
  4C   1dxz       0.000000  0.021212  0.000000  0.046771 -0.000000  0.000000
  4C   1dyz      -0.000000 -0.013972 -0.000000 -0.020043 -0.000000 -0.000000
  4C   1dx2y2     0.032939  0.000000 -0.038717 -0.000000  0.006617  0.070650
  4C   1dxy      -0.055427  0.000000  0.028198 -0.000000 -0.016759  0.029957
  5H   1s         0.400986  0.000000  0.017887 -0.000000  0.116767  0.027874
  5H   2s        -0.407768  0.000000 -0.333562 -0.000000  0.340445  0.225318
  6H   1s         0.280196  0.000000 -0.164724 -0.000000  0.348077  0.375259
  6H   2s         0.035336 -0.000000  0.202730  0.000000 -0.619616 -0.216295
  7H   1s         0.280687  0.000000 -0.164038 -0.000000 -0.352082  0.370337
  7H   2s         0.032671  0.000000  0.203360  0.000000  0.622291 -0.210657
  8H   1s         0.401321  0.000000  0.018838 -0.000000 -0.116061  0.026163
  8H   2s        -0.405437 -0.000000 -0.332657 -0.000000 -0.345930  0.222332
  9H   1s         0.278131  0.000000 -0.497479  0.000000  0.000263 -0.081377
  9H   2s         0.134935  0.000000  0.474166  0.000000  0.002097 -0.231598
                     36        37        38        39        40        41   
                   0.63778   0.64291   0.65878   0.70028   0.78046   0.82322
                   0.00000   0.00000   0.00000   0.00000   0.00000   0.00000
                  --------  --------  --------  --------  --------  --------
  0C   1s         0.000000 -0.040819  0.025185  0.000000 -0.000000 -0.029367
  0C   2s         0.000000  0.261170  0.483375  0.000000  0.000000 -0.052142
  0C   1pz        0.608559 -0.000000  0.000000 -0.694003  0.066415  0.000000
  0C   1px       -0.000000 -0.170133  0.268389  0.000000  0.000000 -0.338173
  0C   1py       -0.000000 -0.319098  0.059521 -0.000000  0.000000  0.006180
  0C   3s        -0.000000  0.546943 -0.094358  0.000000 -0.000000 -0.345173
  0C   2pz       -0.740521  0.000000 -0.000000  1.327080 -0.202078 -0.000000
  0C   2px        0.000000  0.421041 -0.197890  0.000000 -0.000000  0.983551
  0C   2py        0.000000 -0.537276 -0.060546 -0.000000  0.000000  0.239252
  0C   1dz2      -0.000000  0.009572 -0.095901 -0.000000  0.000000  0.041950
  0C   1dxz       0.043142 -0.000000 -0.000000  0.003634 -0.026181 -0.000000
  0C   1dyz      -0.009099 -0.000000  0.000000  0.001108  0.003367 -0.000000
  0C   1dx2y2     0.000000  0.036873 -0.022750 -0.000000 -0.000000  0.077248
  0C   1dxy      -0.000000 -0.017799  0.047816  0.000000 -0.000000  0.058241
  1C   1s        -0.000000  0.040782  0.025173  0.000000  0.000000  0.029510
  1C   2s        -0.000000 -0.261586  0.483037  0.000000 -0.000000  0.051629
  1C   1pz        0.605372 -0.000000 -0.000000  0.696166  0.067061  0.000000
  1C   1px       -0.000000 -0.230986 -0.275104 -0.000000  0.000000 -0.329891
  1C   1py        0.000000  0.277508  0.003874  0.000000  0.000000 -0.076220
  1C   3s         0.000000 -0.546056 -0.093847  0.000000  0.000000  0.343786
  1C   2pz       -0.734899  0.000000  0.000000 -1.329849 -0.202892 -0.000000
  1C   2px        0.000000  0.302457  0.206194 -0.000000 -0.000000  1.010090
  1C   2py       -0.000000  0.611394 -0.018568 -0.000000 -0.000000 -0.030952
  1C   1dz2       0.000000 -0.009473 -0.095847 -0.000000 -0.000000 -0.042106
  1C   1dxz      -0.040425  0.000000 -0.000000  0.003643  0.024939  0.000000
  1C   1dyz      -0.017696 -0.000000 -0.000000 -0.000461  0.008549 -0.000000
  1C   1dx2y2    -0.000000 -0.026722 -0.001792 -0.000000  0.000000 -0.094367
  1C   1dxy      -0.000000 -0.031028 -0.052941 -0.000000  0.000000  0.023446
  2C   1s         0.000000  0.061853 -0.038828 -0.000000  0.000000 -0.035292
  2C   2s         0.000000  0.332947  0.500548  0.000000  0.000000 -0.038435
  2C   1pz       -0.420459  0.000000 -0.000000  0.353057 -0.197149 -0.000000
  2C   1px        0.000000  0.163066  0.292265  0.000000 -0.000000 -0.529452
  2C   1py        0.000000 -0.417587  0.272126  0.000000  0.000000 -0.373778
  2C   3s        -0.000000 -1.214637 -0.743145 -0.000000  0.000000  0.655124
  2C   2pz        0.667472 -0.000000  0.000000 -0.748752  0.701013  0.000000
  2C   2px        0.000000 -0.584868 -0.703971 -0.000000  0.000000  1.919532
  2C   2py        0.000000 -0.017160 -0.393545 -0.000000 -0.000000  1.143364
  2C   1dz2      -0.000000 -0.086253  0.016190 -0.000000 -0.000000  0.019641
  2C   1dxz      -0.017300  0.000000 -0.000000 -0.003549  0.006790 -0.000000
  2C   1dyz       0.021498  0.000000  0.000000 -0.013546 -0.002212  0.000000
  2C   1dx2y2     0.000000 -0.012908 -0.056558 -0.000000  0.000000 -0.066125
  2C   1dxy       0.000000  0.038192 -0.033790  0.000000  0.000000 -0.088848
  3N   1s         0.000000 -0.000055 -0.000754 -0.000000 -0.000000 -0.000123
  3N   2s        -0.000000  0.000302 -0.058112  0.000000 -0.000000  0.000083
  3N   1pz       -0.205856  0.000000 -0.000000 -0.000610  0.953663  0.000000
  3N   1px       -0.000000 -0.233171  0.020520  0.000000 -0.000000 -0.155481
  3N   1py       -0.000000 -0.023938 -0.202324 -0.000000 -0.000000 -0.017883
  3N   3s         0.000000 -0.000750  0.769004  0.000000  0.000000  0.002074
  3N   2pz        0.027277 -0.000000  0.000000  0.000265 -1.487272 -0.000000
  3N   2px        0.000000  0.103401 -0.066747 -0.000000  0.000000  0.563701
  3N   2py        0.000000  0.010890  0.650788  0.000000  0.000000  0.062337
  3N   1dz2      -0.000000  0.000129 -0.060854 -0.000000 -0.000000  0.000172
  3N   1dxz       0.005957 -0.000000  0.000000 -0.008572 -0.003838  0.000000
  3N   1dyz      -0.057754  0.000000  0.000000 -0.001021  0.037500 -0.000000
[...]
Sum of individual times     ....      14.541 sec  ( 97.9%)

Fock matrix formation       ....      13.144 sec  ( 88.5%)
  XC integration            ....       2.624 sec  ( 20.0% of F)
    Basis function eval.    ....       0.960 sec  ( 36.6% of XC)
    Density eval.           ....       0.635 sec  ( 24.2% of XC)
    XC-Functional eval.     ....       0.254 sec  (  9.7% of XC)
    XC-Potential eval.      ....       0.629 sec  ( 24.0% of XC)
Diagonalization             ....       0.009 sec  (  0.1%)
Density matrix formation    ....       0.001 sec  (  0.0%)
Population analysis         ....       0.030 sec  (  0.2%)
Initial guess               ....       0.264 sec  (  1.8%)
Orbital Transformation      ....       0.000 sec  (  0.0%)
Orbital Orthonormalization  ....       0.000 sec  (  0.0%)
DIIS solution               ....       0.003 sec  (  0.0%)
SOSCF solution              ....       0.006 sec  (  0.0%)
Grid generation             ....       1.085 sec  (  7.3%)
------------------------------------------------------------------------------
                        ORCA TD-DFT/TDA CALCULATION
------------------------------------------------------------------------------

Input orbitals are from        ... /Users/lailaal-madhagi/Desktop/Testing_XAS_Analysis_code/Pyrrole//Results_dir_Pyrrole_geom_element_N_2019-11-28_02-54-11//GTE1_Pyrrole_geom_2019-11-28_02-54-20//TDDFT_N-edge.gbw
CI-vector output               ... /Users/lailaal-madhagi/Desktop/Testing_XAS_Analysis_code/Pyrrole//Results_dir_Pyrrole_geom_element_N_2019-11-28_02-54-11//GTE1_Pyrrole_geom_2019-11-28_02-54-20//TDDFT_N-edge.cis
Tamm-Dancoff approximation     ... operative
CIS-Integral strategy          ... AO-integrals
Integral handling              ... AO integral Direct
Max. core memory used          ... 512 MB
Reference state                ... RHF
Generation of triplets         ... off
Follow IRoot                   ... off
Number of operators            ... 1
Orbital ranges used for CIS calculation:
 Operator 0:  Orbitals   0...  0  to  18... 79
XAS localization array:
 Operator 0:  Orbitals  -1... -1
-------------------
XC-INTEGRATION GRID
-------------------

General Integration Accuracy     IntAcc      ...  3.670
Radial Grid Type                 RadialGrid  ... Gauss-Chebyshev
Angular Grid (max. acc.)         AngularGrid ... Lebedev-50
Angular grid pruning method      GridPruning ... 3 (G Style)
Weight generation scheme         WeightScheme... Becke
Basis function cutoff            BFCut       ...    1.0000e-11
Integration weight cutoff        WCut        ...    1.0000e-14
Grids for H and He will be reduced by one unit

# of grid points (after initial pruning)     ...   5710 (   0.0 sec)
# of grid points (after weights+screening)   ...   5432 (   0.0 sec)
nearest neighbour list constructed           ...    0.0 sec
Grid point re-assignment to atoms done       ...    0.0 sec
Grid point division into batches done        ...    0.0 sec
Reduced shell lists constructed in    0.0 sec

Total number of grid points                  ...     5432
Total number of batches                      ...       89
Average number of points per batch           ...       61
Average number of grid points per atom       ...      543
Average number of shells per batch           ...    34.20 (85.50%)
Average number of basis functions per batch  ...    70.78 (88.47%)
Average number of large shells per batch     ...    29.24 (85.51%)
Average number of large basis fcns per batch ...    60.71 (85.78%)
Maximum spatial batch extension              ...  16.27, 16.68, 39.19 au
Average spatial batch extension              ...   4.62,  4.34,  7.13 au


---------------
TD-DFT XC SETUP
---------------

DFT calculation                         ... on
Name of the grid file                   ... /Users/lailaal-madhagi/Desktop/Testing_XAS_Analysis_code/Pyrrole//Results_dir_Pyrrole_geom_element_N_2019-11-28_02-54-11//GTE1_Pyrrole_geom_2019-11-28_02-54-20//TDDFT_N-edge.grid_cis.tmp
Exchange functional (SCF)               ... B88
Exchange functional (TD-DFT)            ... B88
   X-Alpha parameter    XAlpha (SCF)    ...  0.666667
   X-Alpha parameter    XAlpha (TD-DFT) ...  0.666667
   Becke's b parameter  XBeta (SCF)     ...  0.004200
   Becke's b parameter  XBeta (TD-DFT)  ...  0.004200
Correlation functional (SCF)            ... LYP
Correlation functional (TD-DFT)         ... LYP
 LDA part of GGA corr.  LDAOpt (SCF)    ... VWN-5
 LDA part of GGA corr.  LDAOpt (TD-DFT) ... VWN-5
Hybrid DFT                              ... on
   Exchange mixing (SCF)                ...  0.200
   Exchange mixing (TD-DFT)             ...  0.200
   GGA exch. scaling(SCF)               ...  0.720
   GGA exch. scaling (TD-DFT)           ...  0.720
   GGA corr. scaling (SCF)              ...  0.810
   GGA corr. scaling (TD-DFT)           ...  0.810

Building densities             ... done
Calculating rho(r) on the grid ... done
Building xc-kernel on the grid ... done
                    *** TD-DFT CALCULATION INITIALIZED ***


------------------------
DAVIDSON-DIAGONALIZATION
------------------------

Dimension of the eigenvalue problem            ...     62
Number of roots to be determined               ...     20
Maximum size of the expansion space            ...     62
Maximum number of iterations                   ...    100
Convergence tolerance for the residual         ...    2.500e-07
Convergence tolerance for the energies         ...    2.500e-07
Orthogonality tolerance                        ...    1.000e-14
Level Shift                                    ...    0.000e+00
Constructing the preconditioner                ... o.k.
Building the initial guess                     ... o.k.
Number of trial vectors determined             ...     62


                       ****Iteration    0****

   Memory handling for direct AO based CIS:
   Memory per vector needed      ...     1 MB
   Memory needed                 ...    11 MB
   Memory available              ...   512 MB
   Number of vectors per batch   ...   512
   Number of batches             ...     1
   Time for densities:     0.005
   Using LibInt in JK Direct
   Time for J+K (Direct):    35.350
   Time for XC-Integration:     2.248
   Time for Sigma-Completion:     0.086
   Size of expansion space: 60
   Lowest Energy          :    14.336736616111
   Maximum Energy change  :    14.948933354983 (vector 19)
   Maximum residual norm  :     0.000051879530
   Rebuilding the expansion space

                       ****Iteration    1****
   Time for densities:     0.005
   Using LibInt in JK Direct
   Time for J+K (Direct):    26.958
   Time for XC-Integration:     2.015
   Time for Sigma-Completion:     0.133
   Size of expansion space: 40
   Lowest Energy          :    14.336736616111
   Maximum Energy change  :     0.000022047017 (vector 16)
   Maximum residual norm  :     0.000000006161

      *** CONVERGENCE OF RESIDUAL NORM REACHED ***

Storing the converged CI vectors               ... /Users/lailaal-madhagi/Desktop/Testing_XAS_Analysis_code/Pyrrole//Results_dir_Pyrrole_geom_element_N_2019-11-28_02-54-11//GTE1_Pyrrole_geom_2019-11-28_02-54-20//TDDFT_N-edge.cis1

                 *** DAVIDSON DONE ***

Total time for solving the CIS problem:    67.118sec

------------------------------------
TD-DFT/TDA EXCITED STATES (SINGLETS)
------------------------------------

the weight of the individual excitations are printed if larger than 1.0e-02

STATE  1:  E=  14.336737 au    390.122 eV  3146550.0 cm**-1
     0a ->  18a  :     0.998443 (c=  0.99922143)

STATE  2:  E=  14.377688 au    391.237 eV  3155537.8 cm**-1
     0a ->  19a  :     0.975552 (c=  0.98770048)
     0a ->  21a  :     0.011600 (c=  0.10770192)

STATE  3:  E=  14.412261 au    392.178 eV  3163125.8 cm**-1
     0a ->  20a  :     0.999789 (c=  0.99989471)

STATE  4:  E=  14.460252 au    393.483 eV  3173658.5 cm**-1
     0a ->  21a  :     0.974273 (c=  0.98705275)
     0a ->  23a  :     0.015180 (c=  0.12320629)

STATE  5:  E=  14.485513 au    394.171 eV  3179202.5 cm**-1
     0a ->  22a  :     0.997014 (c=  0.99850566)

STATE  6:  E=  14.497816 au    394.506 eV  3181902.9 cm**-1
     0a ->  19a  :     0.010244 (c=  0.10121209)
     0a ->  21a  :     0.013306 (c= -0.11535153)
     0a ->  23a  :     0.946972 (c=  0.97312480)
     0a ->  26a  :     0.026737 (c= -0.16351568)

STATE  7:  E=  14.517242 au    395.034 eV  3186166.3 cm**-1
     0a ->  24a  :     0.962300 (c=  0.98096908)
     0a ->  25a  :     0.033553 (c=  0.18317612)

STATE  8:  E=  14.530267 au    395.389 eV  3189025.0 cm**-1
     0a ->  24a  :     0.034958 (c= -0.18697191)
     0a ->  25a  :     0.940571 (c=  0.96983029)
     0a ->  29a  :     0.020072 (c=  0.14167514)

STATE  9:  E=  14.551258 au    395.960 eV  3193632.0 cm**-1
     0a ->  23a  :     0.030053 (c=  0.17335855)
     0a ->  26a  :     0.961903 (c=  0.98076654)

STATE 10:  E=  14.659626 au    398.909 eV  3217416.0 cm**-1
     0a ->  27a  :     0.992477 (c=  0.99623145)

STATE 11:  E=  14.675548 au    399.342 eV  3220910.5 cm**-1
     0a ->  28a  :     0.992984 (c= -0.99648561)

STATE 12:  E=  14.752312 au    401.431 eV  3237758.1 cm**-1
     0a ->  25a  :     0.022281 (c=  0.14926933)
     0a ->  29a  :     0.971483 (c= -0.98563837)

STATE 13:  E=  14.855058 au    404.227 eV  3260308.5 cm**-1
     0a ->  30a  :     0.678566 (c= -0.82375133)
     0a ->  32a  :     0.282090 (c=  0.53112158)
     0a ->  35a  :     0.036706 (c=  0.19158777)

STATE 14:  E=  14.864332 au    404.479 eV  3262343.8 cm**-1
     0a ->  31a  :     0.971976 (c=  0.98588832)
     0a ->  36a  :     0.021808 (c=  0.14767591)

STATE 15:  E=  14.878876 au    404.875 eV  3265535.8 cm**-1
     0a ->  30a  :     0.313538 (c=  0.55994451)
     0a ->  32a  :     0.661949 (c=  0.81360237)
     0a ->  35a  :     0.020455 (c=  0.14302249)

STATE 16:  E=  14.915728 au    405.878 eV  3273624.0 cm**-1
     0a ->  33a  :     0.993626 (c=  0.99680778)

STATE 17:  E=  14.926872 au    406.181 eV  3276069.8 cm**-1
     0a ->  32a  :     0.050238 (c=  0.22413739)
     0a ->  35a  :     0.797779 (c= -0.89318467)
     0a ->  38a  :     0.143270 (c=  0.37851052)

STATE 18:  E=  14.931369 au    406.303 eV  3277056.6 cm**-1
     0a ->  34a  :     0.987599 (c= -0.99378029)

STATE 19:  E=  14.942323 au    406.601 eV  3279460.8 cm**-1
     0a ->  37a  :     0.987625 (c= -0.99379304)

STATE 20:  E=  14.948933 au    406.781 eV  3280911.6 cm**-1
     0a ->  31a  :     0.024975 (c=  0.15803418)
     0a ->  36a  :     0.953247 (c= -0.97634386)
     0a ->  40a  :     0.021679 (c=  0.14723947)


-----------------------------
TD-DFT/TDA-EXCITATION SPECTRA
-----------------------------

Center of mass = ( -3.3408, -0.0063,  0.0000)
Calculating the Dipole integrals                  ... done
Transforming integrals                            ... done
Calculating the Linear Momentum integrals         ... done
Transforming integrals                            ... done
Calculating angular momentum integrals            ... done
Transforming integrals                            ... done

-----------------------------------------------------------------------------
         ABSORPTION SPECTRUM VIA TRANSITION ELECTRIC DIPOLE MOMENTS
-----------------------------------------------------------------------------
State   Energy    Wavelength  fosc         T2        TX        TY        TZ  
        (cm-1)      (nm)                 (au**2)    (au)      (au)      (au) 
-----------------------------------------------------------------------------
   1 3146550.0      3.2   0.027075168   0.00283  -0.00000   0.00000  -0.05322
   2 3155537.8      3.2   0.017608425   0.00184   0.00439  -0.04264  -0.00000
   3 3163125.8      3.2   0.000000000   0.00000  -0.00000  -0.00000  -0.00000
   4 3173658.5      3.2   0.000739021   0.00008   0.00086  -0.00871   0.00000
   5 3179202.5      3.1   0.000965009   0.00010  -0.00995  -0.00096  -0.00000
   6 3181902.9      3.1   0.005861216   0.00061  -0.00247   0.02450   0.00000
   7 3186166.3      3.1   0.001434561   0.00015   0.01212   0.00112   0.00000
   8 3189025.0      3.1   0.029301325   0.00302   0.05470   0.00571   0.00000
   9 3193632.0      3.1   0.007275315   0.00075   0.00297  -0.02722  -0.00000
  10 3217416.0      3.1   0.004415245   0.00045  -0.00204   0.02116   0.00000
  11 3220910.5      3.1   0.004415190   0.00045  -0.02114  -0.00211  -0.00000
  12 3237758.1      3.1   0.019853636   0.00202  -0.04470  -0.00456  -0.00000
  13 3260308.5      3.1   0.002142907   0.00022   0.00151  -0.01463   0.00000
  14 3262343.8      3.1   0.008453513   0.00085  -0.00000  -0.00000   0.02921
  15 3265535.8      3.1   0.004320285   0.00044   0.00207  -0.02077   0.00000
  16 3273624.0      3.1   0.000000416   0.00000  -0.00000   0.00000  -0.00020
  17 3276069.8      3.1   0.000572231   0.00006  -0.00063   0.00756   0.00000
  18 3277056.6      3.1   0.002176075   0.00022  -0.01472  -0.00140  -0.00000
  19 3279460.8      3.0   0.006570605   0.00066  -0.02555  -0.00263  -0.00000
  20 3280911.6      3.0   0.011291513   0.00113  -0.00000  -0.00000  -0.03366

-----------------------------------------------------------------------------
         ABSORPTION SPECTRUM VIA TRANSITION VELOCITY DIPOLE MOMENTS
-----------------------------------------------------------------------------
State   Energy    Wavelength   fosc        P2         PX        PY        PZ  
        (cm-1)      (nm)                 (au**2)     (au)      (au)      (au) 
-----------------------------------------------------------------------------
   1 3146550.0      3.2   0.026295322   0.56548   0.00000  -0.00000   0.75199
   2 3155537.8      3.2   0.017379718   0.37482  -0.06271   0.60901   0.00000
   3 3163125.8      3.2   0.000000000   0.00000   0.00000   0.00000   0.00000
   4 3173658.5      3.2   0.000604759   0.01312  -0.01128   0.11397  -0.00000
   5 3179202.5      3.1   0.000807506   0.01755   0.13185   0.01265   0.00000
   6 3181902.9      3.1   0.006108461   0.13284   0.03665  -0.36262  -0.00000
   7 3186166.3      3.1   0.001203605   0.02621  -0.16122  -0.01475  -0.00000
   8 3189025.0      3.1   0.029324557   0.63914  -0.79514  -0.08303  -0.00000
   9 3193632.0      3.1   0.007074829   0.15442  -0.04268   0.39064   0.00000
  10 3217416.0      3.1   0.004701602   0.10339   0.03088  -0.32005  -0.00000
  11 3220910.5      3.1   0.004948378   0.10893   0.32841   0.03279   0.00000
  12 3237758.1      3.1   0.018627388   0.41220   0.63871   0.06513   0.00000
  13 3260308.5      3.1   0.001986725   0.04427  -0.02158   0.20929  -0.00000
  14 3262343.8      3.1   0.008536481   0.19033   0.00000   0.00000  -0.43627
  15 3265535.8      3.1   0.004064215   0.09071  -0.02984   0.29969  -0.00000
  16 3273624.0      3.1   0.000000396   0.00001   0.00000  -0.00000   0.00298
  17 3276069.8      3.1   0.000370532   0.00830   0.00744  -0.09078  -0.00001
  18 3277056.6      3.1   0.001827139   0.04092   0.20138   0.01925   0.00000
  19 3279460.8      3.0   0.007166873   0.16063   0.39868   0.04110   0.00000
  20 3280911.6      3.0   0.010505315   0.23556   0.00000   0.00000   0.48535

-------------------------------------------------------------------
                             CD SPECTRUM
-------------------------------------------------------------------
State  Energy     Wavelength     R         MX        MY        MZ   
       (cm-1)       (nm)     (1e40*cgs)   (au)      (au)      (au)  
-------------------------------------------------------------------
   1 3146550.0      3.2     -0.00000   0.79341   0.08156  -0.00000
   2 3155537.8      3.2     -0.00000   0.00000   0.00000   0.00011
   3 3163125.8      3.2      0.00000   0.00001  -0.00008  -0.00000
   4 3173658.5      3.2      0.00000  -0.00000  -0.00000  -0.00046
   5 3179202.5      3.1     -0.00000   0.00000   0.00000  -0.14152
   6 3181902.9      3.1     -0.00000  -0.00000  -0.00000   0.00067
   7 3186166.3      3.1     -0.00000  -0.00000  -0.00000   0.17262
   8 3189025.0      3.1     -0.00000  -0.00000  -0.00000   0.84720
   9 3193632.0      3.1     -0.00000   0.00000   0.00000   0.00266
  10 3217416.0      3.1     -0.00000  -0.00000  -0.00000   0.00213
  11 3220910.5      3.1      0.00000   0.00000   0.00000  -0.35027
  12 3237758.1      3.1     -0.00000   0.00000   0.00000  -0.68208
  13 3260308.5      3.1      0.00000  -0.00001  -0.00000   0.00006
  14 3262343.8      3.1     -0.00000  -0.46036  -0.04732  -0.00000
  15 3265535.8      3.1      0.00000  -0.00000  -0.00000  -0.00102
  16 3273624.0      3.1      0.00000   0.00313   0.00043  -0.00000
  17 3276069.8      3.1     -0.00000  -0.00001  -0.00000   0.00199
  18 3277056.6      3.1     -0.00000   0.00000   0.00000  -0.21423
  19 3279460.8      3.0      0.00000   0.00000   0.00000  -0.42577
  20 3280911.6      3.0     -0.00000   0.51268   0.05270  -0.00000

Total run time:       67.443 sec

           *** ORCA-CIS/TD-DFT FINISHED WITHOUT ERROR ***

-----------------------
CIS/TD-DFT TOTAL ENERGY
-----------------------

    E(SCF)  =   -210.029076659 Eh
    DE(CIS) =     14.336736616 Eh (Root  1)
    ----------------------------- ---------
    E(tot)  =   -195.692340043 Eh


-------------------------   --------------------
FINAL SINGLE POINT ENERGY      -195.692340042597
-------------------------   --------------------


                            ***************************************
                            *     ORCA property calculations      *
                            ***************************************

                                    ---------------------
                                    Active property flags
                                    ---------------------
   (+) Dipole Moment


------------------------------------------------------------------------------
                       ORCA ELECTRIC PROPERTIES CALCULATION
------------------------------------------------------------------------------

Dipole Moment Calculation                       ... on
Quadrupole Moment Calculation                   ... off
Polarizability Calculation                      ... off
GBWName                                         ... /Users/lailaal-madhagi/Desktop/Testing_XAS_Analysis_code/Pyrrole//Results_dir_Pyrrole_geom_element_N_2019-11-28_02-54-11//GTE1_Pyrrole_geom_2019-11-28_02-54-20//TDDFT_N-edge.gbw
Electron density file                           ... /Users/lailaal-madhagi/Desktop/Testing_XAS_Analysis_code/Pyrrole//Results_dir_Pyrrole_geom_element_N_2019-11-28_02-54-11//GTE1_Pyrrole_geom_2019-11-28_02-54-20//TDDFT_N-edge.scfp.tmp
The origin for moment calculation is the CENTER OF MASS  = (-3.340799, -0.006281  0.000000)

-------------
DIPOLE MOMENT
-------------
                                X             Y             Z
Electronic contribution:      0.07950      -0.77439      -0.00000
Nuclear contribution   :     -0.00272       0.02590      -0.00000
                        -----------------------------------------
Total Dipole Moment    :      0.07678      -0.74850      -0.00000
                        -----------------------------------------
Magnitude (a.u.)       :      0.75242
Magnitude (Debye)      :      1.91251



--------------------
Rotational spectrum 
--------------------
 
Rotational constants in cm-1:     0.304240     0.299818     0.151006 
Rotational constants in MHz :  9120.893140  8988.318411  4527.060248 

 Dipole components along the rotational axes: 
x,y,z [a.u.] :    -0.752423    -0.001152    -0.000000 
x,y,z [Debye]:    -1.912508    -0.002928    -0.000000 

 

Timings for individual modules:

Sum of individual times         ...       85.191 sec (=   1.420 min)
GTO integral calculation        ...        1.069 sec (=   0.018 min)   1.3 %
SCF iterations                  ...       15.794 sec (=   0.263 min)  18.5 %
CIS module                      ...       68.328 sec (=   1.139 min)  80.2 %
                             ****ORCA TERMINATED NORMALLY****
TOTAL RUN TIME: 0 days 0 hours 1 minutes 26 seconds 144 msec
