
                                 *****************
                                 * O   R   C   A *
                                 *****************

           --- An Ab Initio, DFT and Semiempirical electronic structure package ---

                  #######################################################
                  #                        -***-                        #
                  #          Department of theory and spectroscopy      #
                  #               Directorship: Frank Neese             #
                  #        Max Planck Institute fuer Kohlenforschung    #
                  #                Kaiser Wilhelm Platz 1               #
                  #                 D-45470 Muelheim/Ruhr               #
                  #                      Germany                        #
                  #                                                     #
                  #                  All rights reserved                #
                  #                        -***-                        #
                  #######################################################


                         Program Version 4.1.0  - RELEASE  -


 With contributions from (in alphabetic order):
   Daniel Aravena         : Magnetic Properties
   Michael Atanasov       : Ab Initio Ligand Field Theory
   Alexander A. Auer      : GIAO ZORA
   Ute Becker             : Parallelization
   Giovanni Bistoni       : ED, Open-shell LED
   Martin Brehm           : Molecular dynamics
   Dmytro Bykov           : SCF Hessian
   Vijay G. Chilkuri      : MRCI spin determinant printing
   Dipayan Datta          : RHF DLPNO-CCSD density
   Achintya Kumar Dutta   : EOM-CC, STEOM-CC
   Dmitry Ganyushin       : Spin-Orbit,Spin-Spin,Magnetic field MRCI
   Miquel Garcia          : C-PCM Hessian
   Yang Guo               : DLPNO-NEVPT2, CIM, IAO-localization
   Andreas Hansen         : Spin unrestricted coupled pair/coupled cluster methods
   Benjamin Helmich-Paris : CASSCF linear response (MC-RPA)
   Lee Huntington         : MR-EOM, pCC
   Robert Izsak           : Overlap fitted RIJCOSX, COSX-SCS-MP3, EOM
   Christian Kollmar      : KDIIS, OOCD, Brueckner-CCSD(T), CCSD density
   Simone Kossmann        : Meta GGA functionals, TD-DFT gradient, OOMP2, MP2 Hessian
   Martin Krupicka        : AUTO-CI
   Lucas Lang             : DCDCAS
   Dagmar Lenk            : GEPOL surface, SMD
   Dimitrios Liakos       : Extrapolation schemes; parallel MDCI
   Dimitrios Manganas     : ROCIS; embedding schemes
   Dimitrios Pantazis     : SARC Basis sets
   Taras Petrenko         : DFT Hessian,TD-DFT gradient, ASA, ECA, R-Raman, ABS, FL, XAS/XES, NRVS
   Peter Pinski           : DLPNO-MP2, DLPNO-MP2 Gradient
   Christoph Reimann      : Effective Core Potentials
   Marius Retegan         : Local ZFS, SOC
   Christoph Riplinger    : Optimizer, TS searches, QM/MM, DLPNO-CCSD(T), (RO)-DLPNO pert. Triples
   Tobias Risthaus        : Range-separated hybrids, TD-DFT gradient, RPA, STAB
   Michael Roemelt        : Restricted open shell CIS
   Masaaki Saitow         : Open-shell DLPNO
   Barbara Sandhoefer     : DKH picture change effects
   Avijit Sen             : IP-ROCIS
   Kantharuban Sivalingam : CASSCF convergence, NEVPT2, FIC-MRCI
   Bernardo de Souza      : ESD, SOC TD-DFT
   Georgi Stoychev        : AutoAux, RI-MP2 NMR
   Willem Van den Heuvel  : Paramagnetic NMR
   Boris Wezisla          : Elementary symmetry handling
   Frank Wennmohs         : Technical directorship


 We gratefully acknowledge several colleagues who have allowed us to
 interface, adapt or use parts of their codes:
   Stefan Grimme, W. Hujo, H. Kruse,             : VdW corrections, initial TS optimization,
                  C. Bannwarth                     DFT functionals, gCP, sTDA/sTD-DF
   Ed Valeev                                     : LibInt (2-el integral package), F12 methods
   Garnet Chan, S. Sharma, J. Yang, R. Olivares  : DMRG
   Ulf Ekstrom                                   : XCFun DFT Library
   Mihaly Kallay                                 : mrcc  (arbitrary order and MRCC methods)
   Andreas Klamt, Michael Diedenhofen            : otool_cosmo (COSMO solvation model)
   Jiri Pittner, Ondrej Demel                    : Mk-CCSD
   Frank Weinhold                                : gennbo (NPA and NBO analysis)
   Christopher J. Cramer and Donald G. Truhlar   : smd solvation model
   Lars Goerigk                                  : TD-DFT with DH, B97 family of functionals
   V. Asgeirsson, H. Jonsson                     : NEB implementation
   FAccTs GmbH                                   : IRC, NEB, NEB-TS, Multilevel


 Your calculation uses the libint2 library for the computation of 2-el integrals
 For citations please refer to: http://libint.valeyev.net

 This ORCA versions uses:
   CBLAS   interface :  Fast vector & matrix operations
   LAPACKE interface :  Fast linear algebra routines
   SCALAPACK package :  Parallel linear algebra routines




***************************************
The coordinates will be read from file: /Users/lailaal-madhagi/Desktop/Testing_XAS_Analysis_code/1-4_Benzoquinone//Results_dir_Benzoquinone_geom_element_C_2019-11-12_23-54-58//GTE1_Benzoquinone_geom_2019-11-12_23-55-56//opt.xyz
***************************************


----- Orbital basis set information -----
Your calculation utilizes the basis: 6-31G*
   H-He, Li-Ne : W. J. Hehre, R. Ditchfield and J.A. Pople, J. Chem. Phys. 56, 2257 (1972).
                 Note: He and Ne are unpublished basis sets taken from the Gaussian program.
                 Note: Li and B from J. D. Dill and J. A. Pople, J. Chem. Phys. 62, 2921 (1975).
   Na - Ar     : M. M. Francl, W. J. Pietro, W. J. Hehre, J. S. Binkley, M. S. Gordon, 
                 D. J. DeFrees and J. A. Pople, J. Chem. Phys. 77, 3654 (1982).
   K - Zn      : V. A. Rassolov, J. A. Pople, M. A. Ratner, and T. L. Windus, J. Chem. Phys. 109, 1223 (1998).

================================================================================
                                        WARNINGS
                       Please study these warnings very carefully!
================================================================================


INFO   : the flag for use of LIBINT has been found!

================================================================================
                                       INPUT FILE
================================================================================
NAME = /Users/lailaal-madhagi/Desktop/Testing_XAS_Analysis_code/1-4_Benzoquinone//Results_dir_Benzoquinone_geom_element_C_2019-11-12_23-54-58//GTE1_Benzoquinone_geom_2019-11-12_23-55-56//freq.inp
|  1> ! B3LYP 6-31G* TIGHTSCF Grid3 FinalGrid5 Freq 
|  2> !NormalPrint 
|  3> %output 
|  4> Print[P_Basis] 2 
|  5> Print[P_MOS] 1 
|  6> end 
|  7> *xyzfile 0 1 /Users/lailaal-madhagi/Desktop/Testing_XAS_Analysis_code/1-4_Benzoquinone//Results_dir_Benzoquinone_geom_element_C_2019-11-12_23-54-58//GTE1_Benzoquinone_geom_2019-11-12_23-55-56//opt.xyz                           ****END OF INPUT****
================================================================================

                       ****************************
                       * Single Point Calculation *
                       ****************************

---------------------------------
CARTESIAN COORDINATES (ANGSTROEM)
---------------------------------
  O      1.832883    2.143182   -0.492668
  C      2.564649    3.118450   -0.614012
  C      2.199537    4.437947   -0.033440
  C      3.002247    5.507177   -0.166524
  C      4.292580    5.420366   -0.900609
  C      4.657660    4.100904   -1.481148
  C      3.854940    3.031665   -1.348066
  H      1.252377    4.476113    0.498040
  H      2.757878    6.481365    0.248527
  H      5.604825    4.062775   -2.012613
  H      4.099272    2.057468   -1.763105
  O      5.024571    6.395441   -1.022140

----------------------------
CARTESIAN COORDINATES (A.U.)
----------------------------
  NO LB      ZA    FRAG     MASS         X           Y           Z
   0 O     8.0000    0    15.999    3.463647    4.050027   -0.931008
   1 C     6.0000    0    12.011    4.846484    5.893016   -1.160315
   2 C     6.0000    0    12.011    4.156523    8.386504   -0.063193
   3 C     6.0000    0    12.011    5.673425   10.407055   -0.314685
   4 C     6.0000    0    12.011    8.111800   10.243006   -1.701905
   5 C     6.0000    0    12.011    8.801701    7.749585   -2.798965
   6 C     6.0000    0    12.011    7.284782    5.729017   -2.547476
   7 H     1.0000    0     1.008    2.366650    8.458627    0.941159
   8 H     1.0000    0     1.008    5.211635   12.248004    0.469648
   9 H     1.0000    0     1.008   10.591584    7.677532   -3.803288
  10 H     1.0000    0     1.008    7.746502    3.888051   -3.331785
  11 O     8.0000    0    15.999    9.495064   12.085631   -1.931564

--------------------------------
INTERNAL COORDINATES (ANGSTROEM)
--------------------------------
 O      0   0   0     0.000000000000     0.00000000     0.00000000
 C      1   0   0     1.225297088668     0.00000000     0.00000000
 C      2   1   0     1.487092329818   121.39597383     0.00000000
 C      3   2   1     1.343616998895   121.38258327   179.99178047
 C      4   3   2     1.487069271454   121.38766417     0.00000000
 C      5   4   3     1.487040330770   117.22879484     0.00000000
 C      6   5   4     1.343629229934   121.38353060     0.00000000
 H      3   2   1     1.086756487673   115.85361310     0.00000000
 H      4   3   2     1.086750276826   122.76487734   180.01359036
 H      6   5   4     1.086752319711   115.85056255   180.00093102
 H      7   6   5     1.086745484556   122.76696596   179.98597654
 O      5   4   3     1.225297182548   121.39067615   179.99144480

---------------------------
INTERNAL COORDINATES (A.U.)
---------------------------
 O      0   0   0     0.000000000000     0.00000000     0.00000000
 C      1   0   0     2.315475930273     0.00000000     0.00000000
 C      2   1   0     2.810197239211   121.39597383     0.00000000
 C      3   2   1     2.539068156792   121.38258327   179.99178047
 C      4   3   2     2.810153665219   121.38766417     0.00000000
 C      5   4   3     2.810098975251   117.22879484     0.00000000
 C      6   5   4     2.539091270107   121.38353060     0.00000000
 H      3   2   1     2.053672135964   115.85361310     0.00000000
 H      4   3   2     2.053660399164   122.76487734   180.01359036
 H      6   5   4     2.053664259658   115.85056255   180.00093102
 H      7   6   5     2.053651343087   122.76696596   179.98597654
 O      5   4   3     2.315476107680   121.39067615   179.99144480

---------------------
BASIS SET INFORMATION
---------------------
There are 3 groups of distinct atoms

 Group   1 Type O   : 10s4p1d contracted to 3s2p1d pattern {631/31/1}
 Group   2 Type C   : 10s4p1d contracted to 3s2p1d pattern {631/31/1}
 Group   3 Type H   : 4s contracted to 2s pattern {31}

Atom   0O    basis set group =>   1
Atom   1C    basis set group =>   2
Atom   2C    basis set group =>   2
Atom   3C    basis set group =>   2
Atom   4C    basis set group =>   2
Atom   5C    basis set group =>   2
Atom   6C    basis set group =>   2
Atom   7H    basis set group =>   3
Atom   8H    basis set group =>   3
Atom   9H    basis set group =>   3
Atom  10H    basis set group =>   3
Atom  11O    basis set group =>   1

-------------------------
BASIS SET IN INPUT FORMAT
-------------------------

 # Basis set for element : H 
 NewGTO H 
 S 3 
   1      18.7311370000      0.0334945995
   2       2.8253937000      0.2347269467
   3       0.6401217000      0.8137573184
 S 1 
   1       0.1612778000      1.0000000000
  end;

 # Basis set for element : C 
 NewGTO C 
 S 6 
   1    3047.5249000000      0.0018347002
   2     457.3695100000      0.0140373012
   3     103.9486900000      0.0688426061
   4      29.2101550000      0.2321844206
   5       9.2866630000      0.4679413416
   6       3.1639270000      0.3623120322
 S 3 
   1       7.8682724000     -0.1193324086
   2       1.8812885000     -0.1608542116
   3       0.5442493000      1.1434564826
 P 3 
   1       7.8682724000      0.0689990956
   2       1.8812885000      0.3164239798
   3       0.5442493000      0.7443082524
 S 1 
   1       0.1687144000      1.0000000000
 P 1 
   1       0.1687144000      1.0000000000
 D 1 
   1       0.8000000000      1.0000000000
  end;

 # Basis set for element : O 
 NewGTO O 
 S 6 
   1    5484.6717000000      0.0018310998
   2     825.2349500000      0.0139500985
   3     188.0469600000      0.0684450927
   4      52.9645000000      0.2327142753
   5      16.8975700000      0.4701929501
   6       5.7996353000      0.3585208619
 S 3 
   1      15.5396160000     -0.1107775038
   2       3.5999336000     -0.1480263051
   3       1.0137618000      1.1307670390
 P 3 
   1      15.5396160000      0.0708742995
   2       3.5999336000      0.3397527978
   3       1.0137618000      0.7271585953
 S 1 
   1       0.2700058000      1.0000000000
 P 1 
   1       0.2700058000      1.0000000000
 D 1 
   1       0.8000000000      1.0000000000
  end;

------------------------------------------------------------------------------
                           ORCA GTO INTEGRAL CALCULATION
------------------------------------------------------------------------------

                         BASIS SET STATISTICS AND STARTUP INFO

 # of primitive gaussian shells          ...  136
 # of primitive gaussian functions       ...  232
 # of contracted shells                  ...   56
 # of contracted basis functions         ...  120
 Highest angular momentum                ...    2
 Maximum contraction depth               ...    6
 Integral package used                   ... LIBINT
 Integral threshhold            Thresh   ...  2.500e-11
 Primitive cut-off              TCut     ...  2.500e-12


------------------------------ INTEGRAL EVALUATION ----------------------------


 * One electron integrals 
 Pre-screening matrix                    ... done
 Shell pair data                         ... done (   0.001 sec)

-------------------------------------------------------------------------------
                                 ORCA SCF
-------------------------------------------------------------------------------

------------
SCF SETTINGS
------------
Hamiltonian:
 Density Functional     Method          .... DFT(GTOs)
 Exchange Functional    Exchange        .... B88
   X-Alpha parameter    XAlpha          ....  0.666667
   Becke's b parameter  XBeta           ....  0.004200
 Correlation Functional Correlation     .... LYP
 LDA part of GGA corr.  LDAOpt          .... VWN-5
 Gradients option       PostSCFGGA      .... off
 Hybrid DFT is turned on
   Fraction HF Exchange ScalHFX         ....  0.200000
   Scaling of DF-GGA-X  ScalDFX         ....  0.720000
   Scaling of DF-GGA-C  ScalDFC         ....  0.810000
   Scaling of DF-LDA-C  ScalLDAC        ....  1.000000
   Perturbative correction              ....  0.000000
   Density functional embedding theory  .... OFF
   NL short-range parameter             ....  4.800000


General Settings:
 Integral files         IntName         .... /Users/lailaal-madhagi/Desktop/Testing_XAS_Analysis_code/1-4_Benzoquinone//Results_dir_Benzoquinone_geom_element_C_2019-11-12_23-54-58//GTE1_Benzoquinone_geom_2019-11-12_23-55-56//freq
 Hartree-Fock type      HFTyp           .... RHF
 Total Charge           Charge          ....    0
 Multiplicity           Mult            ....    1
 Number of Electrons    NEL             ....   56
 Basis Dimension        Dim             ....  120
 Nuclear Repulsion      ENuc            ....    321.8197533958 Eh

Convergence Acceleration:
 DIIS                   CNVDIIS         .... on
   Start iteration      DIISMaxIt       ....    12
   Startup error        DIISStart       ....  0.200000
   # of expansion vecs  DIISMaxEq       ....     5
   Bias factor          DIISBfac        ....   1.050
   Max. coefficient     DIISMaxC        ....  10.000
 Newton-Raphson         CNVNR           .... off
 SOSCF                  CNVSOSCF        .... on
   Start iteration      SOSCFMaxIt      ....   150
   Startup grad/error   SOSCFStart      ....  0.003300
 Level Shifting         CNVShift        .... on
   Level shift para.    LevelShift      ....    0.2500
   Turn off err/grad.   ShiftErr        ....    0.0010
 Zerner damping         CNVZerner       .... off
 Static damping         CNVDamp         .... on
   Fraction old density DampFac         ....    0.7000
   Max. Damping (<1)    DampMax         ....    0.9800
   Min. Damping (>=0)   DampMin         ....    0.0000
   Turn off err/grad.   DampErr         ....    0.1000
 Fernandez-Rico         CNVRico         .... off

SCF Procedure:
 Maximum # iterations   MaxIter         ....   125
 SCF integral mode      SCFMode         .... Direct
   Integral package                     .... LIBINT
 Reset frequency        DirectResetFreq ....    20
 Integral Threshold     Thresh          ....  2.500e-11 Eh
 Primitive CutOff       TCut            ....  2.500e-12 Eh

Convergence Tolerance:
 Convergence Check Mode ConvCheckMode   .... Total+1el-Energy
 Convergence forced     ConvForced      .... 0
 Energy Change          TolE            ....  1.000e-08 Eh
 1-El. energy change                    ....  1.000e-05 Eh
 Orbital Gradient       TolG            ....  1.000e-05
 Orbital Rotation angle TolX            ....  1.000e-05
 DIIS Error             TolErr          ....  5.000e-07


Diagonalization of the overlap matrix:
Smallest eigenvalue                        ... 6.582e-04
Time for diagonalization                   ...    0.002 sec
Threshold for overlap eigenvalues          ... 1.000e-08
Number of eigenvalues below threshold      ... 0
Time for construction of square roots      ...    0.002 sec
Total time needed                          ...    0.005 sec

-------------------
DFT GRID GENERATION
-------------------

General Integration Accuracy     IntAcc      ...  4.340
Radial Grid Type                 RadialGrid  ... Gauss-Chebyshev
Angular Grid (max. acc.)         AngularGrid ... Lebedev-194
Angular grid pruning method      GridPruning ... 3 (G Style)
Weight generation scheme         WeightScheme... Becke
Basis function cutoff            BFCut       ...    1.0000e-11
Integration weight cutoff        WCut        ...    1.0000e-14
Grids for H and He will be reduced by one unit

# of grid points (after initial pruning)     ...  32480 (   0.0 sec)
# of grid points (after weights+screening)   ...  30442 (   0.0 sec)
nearest neighbour list constructed           ...    0.0 sec
Grid point re-assignment to atoms done       ...    0.0 sec
Grid point division into batches done        ...    0.0 sec
Reduced shell lists constructed in    0.2 sec

Total number of grid points                  ...    30442
Total number of batches                      ...      482
Average number of points per batch           ...       63
Average number of grid points per atom       ...     2537
Average number of shells per batch           ...    39.32 (70.22%)
Average number of basis functions per batch  ...    86.99 (72.49%)
Average number of large shells per batch     ...    31.16 (79.25%)
Average number of large basis fcns per batch ...    68.67 (78.94%)
Maximum spatial batch extension              ...  24.92, 18.67, 20.64 au
Average spatial batch extension              ...   3.50,  3.25,  3.90 au

Time for grid setup =    0.220 sec

------------------------------
INITIAL GUESS: MODEL POTENTIAL
------------------------------
Loading Hartree-Fock densities                     ... done
Calculating cut-offs                               ... done
Setting up the integral package                    ... done
Initializing the effective Hamiltonian             ... done
Starting the Coulomb interaction                   ... done (   0.0 sec)
Reading the grid                                   ... done
Mapping shells                                     ... done
Starting the XC term evaluation                    ... done (   0.2 sec)
  promolecular density results
     # of electrons  =     55.996936460
     EX              =    -48.356749806
     EC              =     -1.923523507
     EX+EC           =    -50.280273313
Transforming the Hamiltonian                       ... done (   0.0 sec)
Diagonalizing the Hamiltonian                      ... done (   0.0 sec)
Back transforming the eigenvectors                 ... done (   0.0 sec)
Now organizing SCF variables                       ... done
                      ------------------
                      INITIAL GUESS DONE (   0.5 sec)
                      ------------------
--------------
SCF ITERATIONS
--------------
               ***  Starting incremental Fock matrix formation  ***

                         ----------------------------
                         !        ITERATION     0   !
                         ----------------------------
   Total Energy        :    -381.031872811493 Eh
   Energy Change       :    -381.031872811493 Eh
   MAX-DP              :       0.089804556659
   RMS-DP              :       0.003657150273
   Actual Damping      :       0.7000
   Actual Level Shift  :       0.2500 Eh
   Int. Num. El.       :    55.99956372 (UP=   27.99978186 DN=   27.99978186)
   Exchange            :   -39.49514843
   Correlation         :    -2.29008949


                         ----------------------------
                         !        ITERATION     1   !
                         ----------------------------
   Total Energy        :    -381.130172714705 Eh
   Energy Change       :      -0.098299903212 Eh
   MAX-DP              :       0.050830975504
   RMS-DP              :       0.002170623466
   Actual Damping      :       0.7000
   Actual Level Shift  :       0.2500 Eh
   Int. Num. El.       :    55.99949314 (UP=   27.99974657 DN=   27.99974657)
   Exchange            :   -39.20739897
   Correlation         :    -2.28150824

                               ***Turning on DIIS***

                         ----------------------------
                         !        ITERATION     2   !
                         ----------------------------
   Total Energy        :    -381.163429740026 Eh
   Energy Change       :      -0.033257025321 Eh
   MAX-DP              :       0.049704222030
   RMS-DP              :       0.002813793366
   Actual Damping      :       0.0000
   Actual Level Shift  :       0.2500 Eh
   Int. Num. El.       :    55.99943386 (UP=   27.99971693 DN=   27.99971693)
   Exchange            :   -39.03703817
   Correlation         :    -2.27579261
   DIIS-Error          :       0.030547826671


                         ----------------------------
                         !        ITERATION     3   !
                         ----------------------------
   Total Energy        :    -381.226970112464 Eh
   Energy Change       :      -0.063540372438 Eh
   MAX-DP              :       0.034803624501
   RMS-DP              :       0.001609333416
   Actual Damping      :       0.0000
   Actual Level Shift  :       0.2500 Eh
   Int. Num. El.       :    55.99931391 (UP=   27.99965695 DN=   27.99965695)
   Exchange            :   -38.81641786
   Correlation         :    -2.26677302
   DIIS-Error          :       0.040004840617
   DIIS coefficients:
      0.53482   0.46518


                         ----------------------------
                         !        ITERATION     4   !
                         ----------------------------
   Total Energy        :    -381.234765696433 Eh
   Energy Change       :      -0.007795583970 Eh
   MAX-DP              :       0.008044282443
   RMS-DP              :       0.000443557133
   Actual Damping      :       0.0000
   Actual Level Shift  :       0.2500 Eh
   Int. Num. El.       :    55.99934440 (UP=   27.99967220 DN=   27.99967220)
   Exchange            :   -38.92299557
   Correlation         :    -2.27033474
   DIIS-Error          :       0.016269876861
   DIIS coefficients:
      0.29108   0.19813   0.51079

                      *** Initiating the SOSCF procedure ***
                           *** Shutting down DIIS ***
                      *** Re-Reading the Fockian *** 
                      *** Removing any level shift *** 

                         ----------------------------
                         !        ITERATION     5   !
                         ----------------------------
   Total Energy        :    -381.236373958394 Eh
   Energy Change       :      -0.001608261960 Eh
   MAX-DP              :       0.002518647166
   RMS-DP              :       0.000113004916
   Orbital gradient    :       0.000743042819
   Orbital Rotation    :       0.000743042819
   Actual Damping      :       0.0000
   Int. Num. El.       :    55.99935815 (UP=   27.99967907 DN=   27.99967907)
   Exchange            :   -38.92649117
   Correlation         :    -2.27094725

               *** Restarting incremental Fock matrix formation ***

                         ----------------------------
                         !        ITERATION     6   !
                         ----------------------------
   Total Energy        :    -381.236408652771 Eh
   Energy Change       :      -0.000034694377 Eh
   MAX-DP              :       0.001458935758
   RMS-DP              :       0.000062966679
   Orbital gradient    :       0.000532986628
   Orbital Rotation    :       0.001682756221
   Actual Damping      :       0.0000
   Int. Num. El.       :    55.99936100 (UP=   27.99968050 DN=   27.99968050)
   Exchange            :   -38.93110991
   Correlation         :    -2.27115012


                         ----------------------------
                         !        ITERATION     7   !
                         ----------------------------
   Total Energy        :    -381.236403699710 Eh
   Energy Change       :       0.000004953061 Eh
   MAX-DP              :       0.000982792402
   RMS-DP              :       0.000041495404
   Orbital gradient    :       0.000965330257
   Orbital Rotation    :       0.001153782549
   Actual Damping      :       0.0000
   Int. Num. El.       :    55.99936177 (UP=   27.99968089 DN=   27.99968089)
   Exchange            :   -38.92919074
   Correlation         :    -2.27111667


                         ----------------------------
                         !        ITERATION     8   !
                         ----------------------------
   Total Energy        :    -381.236411388781 Eh
   Energy Change       :      -0.000007689070 Eh
   MAX-DP              :       0.000314682349
   RMS-DP              :       0.000012951864
   Orbital gradient    :       0.000138101132
   Orbital Rotation    :       0.000269098326
   Actual Damping      :       0.0000
   Int. Num. El.       :    55.99936155 (UP=   27.99968077 DN=   27.99968077)
   Exchange            :   -38.93062349
   Correlation         :    -2.27113999


                         ----------------------------
                         !        ITERATION     9   !
                         ----------------------------
   Total Energy        :    -381.236411237679 Eh
   Energy Change       :       0.000000151101 Eh
   MAX-DP              :       0.000173284830
   RMS-DP              :       0.000007323042
   Orbital gradient    :       0.000159957202
   Orbital Rotation    :       0.000149827284
   Actual Damping      :       0.0000
   Int. Num. El.       :    55.99936136 (UP=   27.99968068 DN=   27.99968068)
   Exchange            :   -38.93055702
   Correlation         :    -2.27114184


                         ----------------------------
                         !        ITERATION    10   !
                         ----------------------------
   Total Energy        :    -381.236411624638 Eh
   Energy Change       :      -0.000000386959 Eh
   MAX-DP              :       0.000007597550
   RMS-DP              :       0.000000435386
   Orbital gradient    :       0.000003525545
   Orbital Rotation    :       0.000005380131
   Actual Damping      :       0.0000
   Int. Num. El.       :    55.99936146 (UP=   27.99968073 DN=   27.99968073)
   Exchange            :   -38.93057886
   Correlation         :    -2.27114125


                         ----------------------------
                         !        ITERATION    11   !
                         ----------------------------
   Total Energy        :    -381.236411623939 Eh
   Energy Change       :       0.000000000699 Eh
   MAX-DP              :       0.000002792110
   RMS-DP              :       0.000000188257
   Orbital gradient    :       0.000002889969
   Orbital Rotation    :       0.000002633189
   Actual Damping      :       0.0000
   Int. Num. El.       :    55.99936145 (UP=   27.99968073 DN=   27.99968073)
   Exchange            :   -38.93055062
   Correlation         :    -2.27113996

                 **** Energy Check signals convergence ****
              ***Rediagonalizing the Fockian in SOSCF/NRSCF***

               *****************************************************
               *                     SUCCESS                       *
               *           SCF CONVERGED AFTER  12 CYCLES          *
               *****************************************************

Setting up the final grid:

General Integration Accuracy     IntAcc      ...  5.010
Radial Grid Type                 RadialGrid  ... Gauss-Chebyshev
Angular Grid (max. acc.)         AngularGrid ... Lebedev-434
Angular grid pruning method      GridPruning ... 3 (G Style)
Weight generation scheme         WeightScheme... Becke
Basis function cutoff            BFCut       ...    1.0000e-11
Integration weight cutoff        WCut        ...    1.0000e-14
Grids for H and He will be reduced by one unit

# of grid points (after initial pruning)     ... 112640 (   0.0 sec)
# of grid points (after weights+screening)   ... 104710 (   0.1 sec)
nearest neighbour list constructed           ...    0.0 sec
Grid point re-assignment to atoms done       ...    0.0 sec
Grid point division into batches done        ...    0.6 sec
Reduced shell lists constructed in    1.0 sec

Total number of grid points                  ...   104710
Total number of batches                      ...     1642
Average number of points per batch           ...       63
Average number of grid points per atom       ...     8726
Average number of shells per batch           ...    36.42 (65.04%)
Average number of basis functions per batch  ...    80.31 (66.93%)
Average number of large shells per batch     ...    28.45 (78.11%)
Average number of large basis fcns per batch ...    62.43 (77.74%)
Maximum spatial batch extension              ...  19.89, 20.47, 28.76 au
Average spatial batch extension              ...   2.30,  2.23,  2.40 au

Final grid set up in    1.2 sec
Final integration                            ... done (   0.7 sec)
Change in XC energy                          ...    -0.000074803
Integrated number of electrons               ...    55.999993259
Previous integrated no of electrons          ...    55.999361459

----------------
TOTAL SCF ENERGY
----------------

Total Energy       :         -381.23648643 Eh          -10373.97220 eV

Components:
Nuclear Repulsion  :          321.81975340 Eh            8757.16070 eV
Electronic Energy  :         -703.05623982 Eh          -19131.13289 eV
One Electron Energy:        -1155.18066993 Eh          -31434.06411 eV
Two Electron Energy:          452.12443011 Eh           12302.93121 eV

Virial components:
Potential Energy   :         -760.22049914 Eh          -20686.65147 eV
Kinetic Energy     :          378.98401271 Eh           10312.67927 eV
Virial Ratio       :            2.00594345


DFT components:
N(Alpha)           :       27.999996629451 electrons
N(Beta)            :       27.999996629451 electrons
N(Total)           :       55.999993258903 electrons
E(X)               :      -38.930663632360 Eh       
E(C)               :       -2.271117241225 Eh       
E(XC)              :      -41.201780873585 Eh       
DFET-embed. en.    :        0.000000000000 Eh       

---------------
SCF CONVERGENCE
---------------

  Last Energy change         ...   -1.0041e-09  Tolerance :   1.0000e-08
  Last MAX-Density change    ...    5.7954e-07  Tolerance :   1.0000e-07
  Last RMS-Density change    ...    2.7011e-08  Tolerance :   5.0000e-09
  Last Orbital Gradient      ...    2.1985e-07  Tolerance :   1.0000e-05
  Last Orbital Rotation      ...    2.8573e-07  Tolerance :   1.0000e-05

             **** THE GBW FILE WAS UPDATED (/Users/lailaal-madhagi/Desktop/Testing_XAS_Analysis_code/1-4_Benzoquinone//Results_dir_Benzoquinone_geom_element_C_2019-11-12_23-54-58//GTE1_Benzoquinone_geom_2019-11-12_23-55-56//freq.gbw) ****
             **** DENSITY FILE WAS UPDATED (/Users/lailaal-madhagi/Desktop/Testing_XAS_Analysis_code/1-4_Benzoquinone//Results_dir_Benzoquinone_geom_element_C_2019-11-12_23-54-58//GTE1_Benzoquinone_geom_2019-11-12_23-55-56//freq.scfp.tmp) ****
             **** ENERGY FILE WAS UPDATED (/Users/lailaal-madhagi/Desktop/Testing_XAS_Analysis_code/1-4_Benzoquinone//Results_dir_Benzoquinone_geom_element_C_2019-11-12_23-54-58//GTE1_Benzoquinone_geom_2019-11-12_23-55-56//freq.en.tmp) ****
----------------
ORBITAL ENERGIES
----------------

  NO   OCC          E(Eh)            E(eV) 
   0   2.0000     -19.157855      -521.3117 
   1   2.0000     -19.157840      -521.3113 
   2   2.0000     -10.291256      -280.0393 
   3   2.0000     -10.291223      -280.0384 
   4   2.0000     -10.221269      -278.1349 
   5   2.0000     -10.221238      -278.1340 
   6   2.0000     -10.220563      -278.1157 
   7   2.0000     -10.220544      -278.1151 
   8   2.0000      -1.056133       -28.7389 
   9   2.0000      -1.054149       -28.6848 
  10   2.0000      -0.857137       -23.3239 
  11   2.0000      -0.789767       -21.4907 
  12   2.0000      -0.704455       -19.1692 
  13   2.0000      -0.638252       -17.3677 
  14   2.0000      -0.603214       -16.4143 
  15   2.0000      -0.509958       -13.8767 
  16   2.0000      -0.503864       -13.7108 
  17   2.0000      -0.483602       -13.1595 
  18   2.0000      -0.461753       -12.5649 
  19   2.0000      -0.439093       -11.9483 
  20   2.0000      -0.435434       -11.8487 
  21   2.0000      -0.416626       -11.3370 
  22   2.0000      -0.405735       -11.0406 
  23   2.0000      -0.398441       -10.8421 
  24   2.0000      -0.301743        -8.2109 
  25   2.0000      -0.300443        -8.1755 
  26   2.0000      -0.275085        -7.4854 
  27   2.0000      -0.266810        -7.2603 
  28   0.0000      -0.126387        -3.4392 
  29   0.0000      -0.023005        -0.6260 
  30   0.0000       0.015236         0.4146 
  31   0.0000       0.092089         2.5059 
  32   0.0000       0.118530         3.2254 
  33   0.0000       0.137159         3.7323 
  34   0.0000       0.147022         4.0007 
  35   0.0000       0.178161         4.8480 
  36   0.0000       0.179896         4.8952 
  37   0.0000       0.241345         6.5673 
  38   0.0000       0.273899         7.4532 
  39   0.0000       0.279981         7.6187 
  40   0.0000       0.347395         9.4531 
  41   0.0000       0.351686         9.5699 
  42   0.0000       0.459605        12.5065 
  43   0.0000       0.465318        12.6619 
  44   0.0000       0.479891        13.0585 
  45   0.0000       0.498724        13.5710 
  46   0.0000       0.503056        13.6888 
  47   0.0000       0.528912        14.3924 
  48   0.0000       0.559784        15.2325 
  49   0.0000       0.578587        15.7442 
  50   0.0000       0.609653        16.5895 
  51   0.0000       0.634399        17.2629 
  52   0.0000       0.636774        17.3275 
  53   0.0000       0.644468        17.5369 
  54   0.0000       0.652418        17.7532 
  55   0.0000       0.682166        18.5627 
  56   0.0000       0.734254        19.9801 
  57   0.0000       0.769654        20.9433 
  58   0.0000       0.794578        21.6216 
  59   0.0000       0.830761        22.6062 
  60   0.0000       0.831032        22.6135 
  61   0.0000       0.848495        23.0887 
  62   0.0000       0.880662        23.9640 
  63   0.0000       0.899825        24.4855 
  64   0.0000       0.910209        24.7680 
  65   0.0000       0.952858        25.9286 
  66   0.0000       0.975612        26.5478 
  67   0.0000       0.979053        26.6414 
  68   0.0000       1.008259        27.4361 
  69   0.0000       1.023219        27.8432 
  70   0.0000       1.046480        28.4762 
  71   0.0000       1.093925        29.7672 
  72   0.0000       1.119329        30.4585 
  73   0.0000       1.191557        32.4239 
  74   0.0000       1.204783        32.7838 
  75   0.0000       1.245587        33.8942 
  76   0.0000       1.278781        34.7974 
  77   0.0000       1.373432        37.3730 
  78   0.0000       1.412259        38.4295 
  79   0.0000       1.416586        38.5473 
  80   0.0000       1.418876        38.6096 
  81   0.0000       1.421826        38.6898 
  82   0.0000       1.460242        39.7352 
  83   0.0000       1.565343        42.5952 
  84   0.0000       1.650256        44.9057 
  85   0.0000       1.717887        46.7461 
  86   0.0000       1.752225        47.6805 
  87   0.0000       1.803347        49.0716 
  88   0.0000       1.806498        49.1573 
  89   0.0000       1.825072        49.6627 
  90   0.0000       1.829648        49.7872 
  91   0.0000       1.867308        50.8120 
  92   0.0000       1.901037        51.7298 
  93   0.0000       1.913862        52.0788 
  94   0.0000       1.920516        52.2599 
  95   0.0000       1.929249        52.4975 
  96   0.0000       2.038217        55.4627 
  97   0.0000       2.043366        55.6028 
  98   0.0000       2.045608        55.6638 
  99   0.0000       2.049803        55.7780 
 100   0.0000       2.096787        57.0565 
 101   0.0000       2.129750        57.9535 
 102   0.0000       2.218036        60.3558 
 103   0.0000       2.254220        61.3404 
 104   0.0000       2.306086        62.7518 
 105   0.0000       2.317460        63.0613 
 106   0.0000       2.478218        67.4358 
 107   0.0000       2.561865        69.7119 
 108   0.0000       2.569249        69.9128 
 109   0.0000       2.595863        70.6370 
 110   0.0000       2.596487        70.6540 
 111   0.0000       2.622940        71.3738 
 112   0.0000       2.671196        72.6869 
 113   0.0000       2.749466        74.8168 
 114   0.0000       2.807384        76.3928 
 115   0.0000       2.948797        80.2408 
 116   0.0000       2.949366        80.2563 
 117   0.0000       3.008094        81.8544 
 118   0.0000       3.167737        86.1985 
 119   0.0000       3.290588        89.5414 
------------------
MOLECULAR ORBITALS
------------------
                      0         1         2         3         4         5   
                 -19.15785 -19.15784 -10.29126 -10.29122 -10.22127 -10.22124
                   2.00000   2.00000   2.00000   2.00000   2.00000   2.00000
                  --------  --------  --------  --------  --------  --------
  0O   1s         0.703274  0.704152 -0.000061  0.000028  0.000005  0.000015
  0O   2s         0.021820  0.021560 -0.001524  0.001026  0.000134  0.000383
  0O   1pz       -0.000151 -0.000153 -0.000078  0.000075  0.000020 -0.000017
  0O   1px        0.000911  0.000922  0.000470 -0.000451 -0.000009  0.000065
  0O   1py        0.001214  0.001229  0.000627 -0.000601  0.000051  0.000065
  0O   3s        -0.019947 -0.018190  0.010908 -0.007765 -0.000298 -0.000858
  0O   2pz        0.000559  0.000523 -0.000469  0.000404  0.000112 -0.000010
  0O   2px       -0.003372 -0.003156  0.002829 -0.002438 -0.000179 -0.000101
  0O   2py       -0.004495 -0.004206  0.003770 -0.003249  0.000048 -0.000227
  0O   1dz2       0.000093  0.000087 -0.000754  0.000745  0.000020  0.000083
  0O   1dxz      -0.000040 -0.000028 -0.000197  0.000215  0.000076  0.000111
  0O   1dyz       0.000081  0.000067 -0.000177  0.000156  0.000005 -0.000086
  0O   1dx2y2     0.000062  0.000055 -0.000363  0.000352 -0.000070  0.000036
  0O   1dxy      -0.000241 -0.000212  0.001227 -0.001182 -0.000012  0.000017
  1C   1s         0.000275  0.000213 -0.703321  0.704204  0.000413  0.001162
  1C   2s         0.001483  0.000809 -0.027342  0.026111  0.000605  0.001710
  1C   1pz       -0.000022 -0.000013 -0.000103  0.000126  0.000399 -0.000196
  1C   1px        0.000133  0.000077  0.000622 -0.000757 -0.000414  0.000498
  1C   1py        0.000177  0.000103  0.000829 -0.001009  0.000596  0.000269
  1C   3s         0.001569  0.005373  0.019333 -0.013295 -0.002255 -0.006211
  1C   2pz        0.001479  0.001098 -0.001627  0.000982 -0.001191  0.000687
  1C   2px       -0.008923 -0.006626  0.009815 -0.005920  0.001056 -0.002092
  1C   2py       -0.011893 -0.008832  0.013082 -0.007890 -0.002122 -0.001606
  1C   1dz2       0.000197  0.000192  0.000743 -0.000751 -0.000143 -0.000149
  1C   1dxz      -0.000009 -0.000072  0.000261 -0.000361  0.000160 -0.000618
  1C   1dyz       0.000102  0.000159  0.000112 -0.000023  0.000458  0.000272
  1C   1dx2y2     0.000111  0.000125  0.000339 -0.000317 -0.000737  0.000295
  1C   1dxy      -0.000404 -0.000484 -0.001114  0.000990 -0.000296 -0.000294
  2C   1s        -0.000053 -0.000041 -0.000877  0.000814 -0.636845 -0.307591
  2C   2s        -0.000424 -0.000498  0.001162 -0.001387 -0.021889 -0.010145
  2C   1pz       -0.000031  0.000105 -0.000132  0.000354  0.000187 -0.000077
  2C   1px        0.000092 -0.000238 -0.000052 -0.000495  0.000029  0.000245
  2C   1py        0.000067 -0.000092 -0.000558  0.000284  0.000704  0.000201
  2C   3s         0.010570  0.000708 -0.017931  0.004882  0.012157  0.006063
  2C   2pz       -0.003220 -0.001677  0.004668 -0.002224 -0.000660 -0.000133
  2C   2px        0.006809  0.003297 -0.008615  0.003395  0.000336 -0.000125
  2C   2py        0.001809  0.000468 -0.000227 -0.001243 -0.001652 -0.000700
  2C   1dz2       0.000012 -0.000031 -0.000188  0.000137 -0.000125  0.000011
  2C   1dxz      -0.000219 -0.000215 -0.000037 -0.000025  0.000041  0.000060
  2C   1dyz       0.000020  0.000068  0.000516 -0.000382 -0.000124 -0.000056
  2C   1dx2y2     0.000238  0.000147 -0.000615  0.000512 -0.000055 -0.000006
  2C   1dxy      -0.000106 -0.000101 -0.000357  0.000252  0.000338  0.000069
  3C   1s         0.000054 -0.000041  0.000878  0.000813 -0.630256 -0.304285
  3C   2s         0.000425 -0.000497 -0.001164 -0.001386 -0.021629 -0.010017
  3C   1pz        0.000009  0.000060  0.000224  0.000333  0.000297 -0.000015
  3C   1px        0.000041  0.000031 -0.000501 -0.000369 -0.000646 -0.000133
  3C   1py        0.000111  0.000268 -0.000177  0.000451 -0.000202 -0.000307
  3C   3s        -0.010570  0.000694  0.017937  0.004857  0.011824  0.005955
  3C   2pz        0.002067 -0.001178 -0.003524 -0.001970 -0.000832 -0.000247
  3C   2px        0.000153  0.000300  0.001699  0.001889  0.001572  0.000600
  3C   2py        0.007468 -0.003515 -0.008992 -0.003236  0.000110  0.000290
  3C   1dz2       0.000033 -0.000058  0.000053  0.000025 -0.000138  0.000006
  3C   1dxz       0.000030 -0.000098  0.000610  0.000445  0.000065  0.000064
  3C   1dyz      -0.000201  0.000180  0.000031  0.000068 -0.000101 -0.000052
  3C   1dx2y2     0.000183 -0.000112 -0.000656 -0.000534 -0.000117 -0.000017
  3C   1dxy       0.000202 -0.000160  0.000070  0.000015  0.000336  0.000072
  4C   1s        -0.000275  0.000212  0.704310  0.703215  0.000399  0.001167
  4C   2s        -0.001484  0.000807  0.027378  0.026073  0.000589  0.001716
  4C   1pz       -0.000022  0.000013 -0.000104 -0.000126  0.000435 -0.000094
  4C   1px        0.000133 -0.000077  0.000623  0.000757 -0.000634 -0.000133
  4C   1py        0.000177 -0.000103  0.000831  0.001008  0.000300 -0.000581
  4C   3s        -0.001576  0.005371 -0.019351 -0.013268 -0.002095 -0.006268
  4C   2pz        0.001483 -0.001099 -0.001631 -0.000981 -0.001361  0.000202
  4C   2px       -0.008934  0.006618  0.009827  0.005909  0.002128  0.000984
  4C   2py       -0.011901  0.008814  0.013090  0.007870 -0.000664  0.002577
  4C   1dz2      -0.000197  0.000192 -0.000744 -0.000750  0.000019 -0.000206
  4C   1dxz       0.000009 -0.000072 -0.000261 -0.000361 -0.000510 -0.000385
  4C   1dyz      -0.000102  0.000159 -0.000113 -0.000023 -0.000190  0.000498
  4C   1dx2y2    -0.000111  0.000125 -0.000339 -0.000316  0.000760 -0.000227
  4C   1dxy       0.000405 -0.000483  0.001116  0.000988  0.000049 -0.000414
  5C   1s         0.000054 -0.000041  0.000878  0.000813  0.307558 -0.636917
  5C   2s         0.000424 -0.000498 -0.001164 -0.001386  0.010837 -0.021558
  5C   1pz       -0.000031 -0.000105 -0.000133 -0.000354  0.000194 -0.000056
  5C   1px        0.000092  0.000238 -0.000051  0.000495 -0.000130 -0.000210
  5C   1py        0.000067  0.000092 -0.000559 -0.000283  0.000426 -0.000596
  5C   3s        -0.010566  0.000693  0.017935  0.004855 -0.005753  0.012309
  5C   2pz       -0.003221  0.001672  0.004670  0.002217 -0.000434  0.000514
  5C   2px        0.006811 -0.003288 -0.008619 -0.003383  0.000340 -0.000112
  5C   2py        0.001809 -0.000466 -0.000227  0.001243 -0.000859  0.001575
  5C   1dz2      -0.000012 -0.000031  0.000189  0.000137  0.000104 -0.000069
  5C   1dxz       0.000219 -0.000215  0.000037 -0.000025  0.000005  0.000073
  5C   1dyz      -0.000020  0.000068 -0.000516 -0.000381  0.000063 -0.000121
  5C   1dx2y2    -0.000238  0.000147  0.000616  0.000511  0.000040 -0.000039
  5C   1dxy       0.000107 -0.000101  0.000357  0.000251 -0.000222  0.000264
  6C   1s        -0.000053 -0.000041 -0.000877  0.000814  0.304405 -0.630141
  6C   2s        -0.000424 -0.000498  0.001162 -0.001387  0.010711 -0.021292
  6C   1pz        0.000009 -0.000060  0.000224 -0.000333  0.000242 -0.000173
  6C   1px        0.000041 -0.000031 -0.000500  0.000370 -0.000424  0.000506
  6C   1py        0.000111 -0.000267 -0.000177 -0.000451  0.000033  0.000366
  6C   3s         0.010564  0.000706 -0.017927  0.004881 -0.005558  0.012013
  6C   2pz        0.002065  0.001180 -0.003520  0.001975 -0.000498  0.000710
  6C   2px        0.000154 -0.000300  0.001694 -0.001891  0.000858 -0.001447
  6C   2py        0.007461  0.003524 -0.008987  0.003249 -0.000094 -0.000296
  6C   1dz2      -0.000033 -0.000059 -0.000053  0.000025  0.000112 -0.000081
  6C   1dxz      -0.000030 -0.000098 -0.000609  0.000446 -0.000012  0.000091
  6C   1dyz       0.000201  0.000180 -0.000030  0.000068  0.000047 -0.000103
  6C   1dx2y2    -0.000183 -0.000113  0.000655 -0.000535  0.000081 -0.000087
  6C   1dxy      -0.000202 -0.000160 -0.000069  0.000015 -0.000218  0.000265
  7H   1s         0.000234  0.000227 -0.000105  0.000017  0.000903  0.000428
  7H   2s         0.001970  0.001667 -0.002143  0.001618 -0.002469 -0.001623
  8H   1s        -0.000234  0.000227  0.000105  0.000017  0.000895  0.000426
  8H   2s        -0.001972  0.001665  0.002146  0.001615 -0.002461 -0.001611
  9H   1s        -0.000234  0.000227  0.000105  0.000017 -0.000441  0.000897
  9H   2s        -0.001971  0.001664  0.002145  0.001615  0.000925 -0.002807
 10H   1s         0.000234  0.000227 -0.000105  0.000017 -0.000436  0.000890
 10H   2s         0.001969  0.001667 -0.002143  0.001618  0.000926 -0.002792
 11O   1s        -0.704171  0.703255  0.000061  0.000028  0.000005  0.000015
 11O   2s        -0.021847  0.021533  0.001526  0.001024  0.000133  0.000384
 11O   1pz       -0.000151  0.000153 -0.000078 -0.000075  0.000026  0.000001
 11O   1px        0.000913 -0.000921  0.000471  0.000451 -0.000048 -0.000045
 11O   1py        0.001216 -0.001227  0.000628  0.000600 -0.000001 -0.000082
 11O   3s         0.019970 -0.018164 -0.010919 -0.007750 -0.000300 -0.000858
 11O   2pz        0.000561 -0.000523 -0.000470 -0.000404  0.000094 -0.000062
 11O   2px       -0.003377  0.003153  0.002833  0.002435 -0.000078  0.000190
 11O   2py       -0.004499  0.004200  0.003774  0.003243  0.000179  0.000148
 11O   1dz2      -0.000093  0.000087  0.000755  0.000743  0.000036  0.000077
 11O   1dxz       0.000040 -0.000027  0.000198  0.000215  0.000009  0.000134
 11O   1dyz      -0.000081  0.000067  0.000178  0.000156 -0.000057 -0.000064
 11O   1dx2y2    -0.000062  0.000055  0.000363  0.000351  0.000078 -0.000015
 11O   1dxy       0.000241 -0.000212 -0.001229 -0.001180  0.000020  0.000006
                      6         7         8         9        10        11   
                 -10.22056 -10.22054  -1.05613  -1.05415  -0.85714  -0.78977
                   2.00000   2.00000   2.00000   2.00000   2.00000   2.00000
                  --------  --------  --------  --------  --------  --------
  0O   1s         0.000007  0.000006  0.134438  0.136639  0.046056  0.000011
  0O   2s        -0.000027 -0.000025 -0.293957 -0.297677 -0.107121 -0.000028
  0O   1pz        0.000015 -0.000005  0.011188  0.011315  0.001414 -0.012425
  0O   1px       -0.000049 -0.000019 -0.067479 -0.068245 -0.008542  0.015647
  0O   1py       -0.000042 -0.000054 -0.089926 -0.090947 -0.011389 -0.013288
  0O   3s        -0.000192 -0.000153 -0.279081 -0.290916 -0.086582 -0.000017
  0O   2pz       -0.000244  0.000401  0.004050  0.004320 -0.000351 -0.004618
  0O   2px        0.000064 -0.000705 -0.024436 -0.026052  0.002160  0.005811
  0O   2py       -0.000725  0.000048 -0.032572 -0.034724  0.002875 -0.004934
  0O   1dz2       0.000013 -0.000011  0.003362  0.003479 -0.000345  0.000258
  0O   1dxz      -0.000126 -0.000016 -0.000549 -0.000591 -0.000399 -0.001089
  0O   1dyz       0.000036  0.000115  0.002117  0.002212  0.000206 -0.001039
  0O   1dx2y2     0.000120 -0.000098  0.001999  0.002074 -0.000083  0.002414
  0O   1dxy      -0.000099 -0.000126 -0.007477 -0.007768  0.000128  0.000547
  1C   1s        -0.001063 -0.000884  0.085695  0.083537 -0.050295 -0.000004
  1C   2s        -0.001244 -0.001037 -0.162846 -0.156838  0.097741 -0.000001
  1C   1pz       -0.000182  0.000286 -0.011843 -0.012599 -0.013019 -0.055772
  1C   1px        0.000087 -0.000478  0.071450  0.076011  0.078493  0.070240
  1C   1py       -0.000465  0.000079  0.095235  0.101312  0.104586 -0.059633
  1C   3s         0.012488  0.010325 -0.056955 -0.049716  0.068163  0.000122
  1C   2pz        0.001380 -0.002658  0.003498  0.004272 -0.004118 -0.005380
  1C   2px        0.000531  0.005223 -0.021003 -0.025749  0.024677  0.006815
  1C   2py        0.005806  0.000738 -0.027934 -0.034283  0.032848 -0.005709
  1C   1dz2       0.000147  0.000026  0.009856  0.009524 -0.000437  0.000898
  1C   1dxz       0.000214  0.000583  0.002755  0.002499 -0.005023 -0.003779
  1C   1dyz      -0.000521 -0.000047  0.002147  0.002226  0.004459 -0.003605
  1C   1dx2y2     0.000382 -0.000582  0.004688  0.004574  0.001106  0.008383
  1C   1dxy       0.000475  0.000191 -0.015776 -0.015472 -0.006176  0.001896
  2C   1s         0.696834 -0.067522  0.018440  0.011700 -0.098645  0.113932
  2C   2s         0.027497 -0.002405 -0.037424 -0.022569  0.187869 -0.221273
  2C   1pz       -0.000443  0.000079  0.008156  0.004787 -0.026571  0.003204
  2C   1px        0.001394 -0.000141 -0.006253  0.002692  0.060825 -0.037022
  2C   1py        0.001121  0.000004  0.016389  0.021760  0.023785 -0.059502
  2C   3s        -0.033055 -0.001820 -0.013999  0.019117  0.121439 -0.169977
  2C   2pz        0.004497  0.000900 -0.005601 -0.004569 -0.001464 -0.002492
  2C   2px       -0.008138 -0.002246  0.012468  0.016433  0.003620  0.002642
  2C   2py        0.000089 -0.001160  0.004371  0.015486  0.001779 -0.003528
  2C   1dz2      -0.000782  0.000082  0.001749  0.001349 -0.004940  0.005774
  2C   1dxz      -0.000187  0.000035  0.000652  0.000346 -0.006095  0.005062
  2C   1dyz      -0.000113 -0.000032 -0.001912 -0.002209  0.001915 -0.000388
  2C   1dx2y2    -0.000459  0.000071  0.002739  0.002959  0.000181  0.000397
  2C   1dxy       0.001192 -0.000068 -0.000021  0.000812  0.002949 -0.006261
  3C   1s        -0.704158  0.068340  0.018441 -0.011702 -0.098645  0.113927
  3C   2s        -0.027747  0.002429 -0.037439  0.022582  0.187902 -0.221322
  3C   1pz        0.000096 -0.000060  0.009839 -0.008444 -0.015096 -0.010631
  3C   1px        0.000712  0.000034 -0.016411  0.019356 -0.008345  0.046354
  3C   1py        0.001691 -0.000143  0.002858  0.007610 -0.068353  0.051561
  3C   3s         0.033194  0.001802 -0.013959 -0.019163  0.121358 -0.169693
  3C   2pz       -0.003469 -0.000434 -0.003334  0.000097 -0.000729 -0.002706
  3C   2px        0.001898 -0.000568 -0.001190  0.010545 -0.000893  0.003891
  3C   2py       -0.008421 -0.002589 -0.013883  0.020458 -0.004160 -0.002071
  3C   1dz2       0.000760 -0.000073  0.001238 -0.000747 -0.005265  0.006137
  3C   1dxz       0.000275 -0.000075  0.002792 -0.002879 -0.004698  0.003492
  3C   1dyz       0.000195 -0.000004  0.000135 -0.000212  0.003242 -0.001878
  3C   1dx2y2     0.000264  0.000015 -0.002018  0.002668 -0.002905  0.003863
  3C   1dxy      -0.001233  0.000088 -0.001099  0.000462  0.002253 -0.005478
  4C   1s         0.001072  0.000874  0.085693 -0.083539 -0.050295 -0.000006
  4C   2s         0.001257  0.001022 -0.162842  0.156842  0.097741  0.000022
  4C   1pz        0.000245 -0.000233  0.011866 -0.012624  0.013032 -0.055767
  4C   1px       -0.000452  0.000177 -0.071477  0.076042 -0.078508  0.070209
  4C   1py       -0.000012 -0.000472 -0.095208  0.101290 -0.104572 -0.059674
  4C   3s        -0.012533 -0.010270 -0.056953  0.049717  0.068163 -0.000111
  4C   2pz       -0.002343  0.001865 -0.003507  0.004284  0.004125 -0.005380
  4C   2px        0.005229 -0.000483  0.021013 -0.025764 -0.024684  0.006812
  4C   2py        0.001840  0.005555  0.027924 -0.034271 -0.032842 -0.005713
  4C   1dz2      -0.000054 -0.000139  0.009855 -0.009523 -0.000437 -0.000897
  4C   1dxz      -0.000613 -0.000098  0.002759 -0.002503 -0.005022  0.003778
  4C   1dyz       0.000146  0.000502  0.002151 -0.002229  0.004459  0.003606
  4C   1dx2y2     0.000498 -0.000486  0.004680 -0.004566  0.001105 -0.008382
  4C   1dxy      -0.000278 -0.000429 -0.015778  0.015475 -0.006176 -0.001899
  5C   1s        -0.067704 -0.696765  0.018446 -0.011705 -0.098625 -0.113945
  5C   2s        -0.002926 -0.027445 -0.037435  0.022579  0.187830  0.221296
  5C   1pz       -0.000008 -0.000450 -0.008158  0.004789  0.026571  0.003212
  5C   1px        0.000130  0.001395  0.006252  0.002694 -0.060818 -0.037033
  5C   1py        0.000219  0.001099 -0.016396  0.021769 -0.023771 -0.059492
  5C   3s         0.008141  0.032088 -0.014014 -0.019101  0.121415  0.169993
  5C   2pz        0.001747  0.004239  0.005599 -0.004567  0.001464 -0.002488
  5C   2px       -0.003768 -0.007554 -0.012468  0.016433 -0.003619  0.002637
  5C   2py       -0.001122  0.000310 -0.004375  0.015495 -0.001776 -0.003527
  5C   1dz2       0.000070  0.000783  0.001749 -0.001350 -0.004939 -0.005774
  5C   1dxz       0.000001  0.000190  0.000652 -0.000347 -0.006094 -0.005063
  5C   1dyz       0.000053  0.000104 -0.001912  0.002210  0.001915  0.000388
  5C   1dx2y2     0.000019  0.000464  0.002740 -0.002959  0.000181 -0.000397
  5C   1dxy      -0.000163 -0.001183 -0.000021 -0.000812  0.002947  0.006261
  6C   1s         0.068314  0.704211  0.018448  0.011707 -0.098626 -0.113940
  6C   2s         0.002951  0.027698 -0.037451 -0.022590  0.187863  0.221345
  6C   1pz       -0.000040  0.000106 -0.009842 -0.008446  0.015099 -0.010622
  6C   1px        0.000170  0.000693  0.016418  0.019363  0.008333  0.046343
  6C   1py        0.000185  0.001687 -0.002855  0.007615  0.068342  0.051569
  6C   3s        -0.008150 -0.032229 -0.013973  0.019147  0.121333  0.169709
  6C   2pz       -0.001093 -0.003321  0.003333  0.000094  0.000730 -0.002704
  6C   2px       -0.000193  0.001971  0.001195  0.010552  0.000891  0.003889
  6C   2py       -0.004160 -0.007766  0.013886  0.020458  0.004160 -0.002066
  6C   1dz2      -0.000074 -0.000760  0.001238  0.000747 -0.005264 -0.006138
  6C   1dxz       0.000020 -0.000284  0.002793  0.002880 -0.004698 -0.003493
  6C   1dyz      -0.000033 -0.000192  0.000135  0.000212  0.003241  0.001879
  6C   1dx2y2    -0.000065 -0.000256 -0.002018 -0.002668 -0.002905 -0.003864
  6C   1dxy       0.000151  0.001227 -0.001099 -0.000462  0.002252  0.005478
  7H   1s        -0.000841 -0.000039 -0.005863 -0.004989  0.037101 -0.061653
  7H   2s         0.001120 -0.000794  0.005631  0.001952  0.001758 -0.008390
  8H   1s         0.000851  0.000038 -0.005868  0.004994  0.037109 -0.061658
  8H   2s        -0.001150  0.000802  0.005623 -0.001941  0.001776 -0.008388
  9H   1s         0.000200  0.000817 -0.005867  0.004992  0.037090  0.061655
  9H   2s         0.000564 -0.001252  0.005631 -0.001951  0.001756  0.008391
 10H   1s        -0.000201 -0.000828 -0.005871 -0.004997  0.037098  0.061660
 10H   2s        -0.000566  0.001283  0.005622  0.001940  0.001774  0.008388
 11O   1s        -0.000007 -0.000006  0.134435 -0.136642  0.046056  0.000009
 11O   2s         0.000029  0.000021 -0.293949  0.297684 -0.107121 -0.000019
 11O   1pz       -0.000002  0.000016 -0.011204  0.011332 -0.001419 -0.012424
 11O   1px       -0.000028 -0.000045  0.067497 -0.068267  0.008548  0.015644
 11O   1py       -0.000061 -0.000031  0.089907 -0.090932  0.011384 -0.013292
 11O   3s         0.000186  0.000160 -0.279075  0.290923 -0.086582 -0.000033
 11O   2pz        0.000347 -0.000317 -0.004055  0.004326  0.000351 -0.004618
 11O   2px       -0.000679  0.000198  0.024441 -0.026059 -0.002160  0.005808
 11O   2py       -0.000092 -0.000721  0.032566 -0.034719 -0.002875 -0.004937
 11O   1dz2       0.000009 -0.000015  0.003361 -0.003478 -0.000345 -0.000260
 11O   1dxz       0.000040  0.000120 -0.000547  0.000589 -0.000399  0.001089
 11O   1dyz      -0.000120 -0.000014  0.002119 -0.002214  0.000207  0.001038
 11O   1dx2y2     0.000074 -0.000136  0.001995 -0.002070 -0.000083 -0.002414
 11O   1dxy       0.000143  0.000073 -0.007477  0.007769  0.000128 -0.000545
                     12        13        14        15        16        17   
                  -0.70446  -0.63825  -0.60321  -0.50996  -0.50386  -0.48360
                   2.00000   2.00000   2.00000   2.00000   2.00000   2.00000
                  --------  --------  --------  --------  --------  --------
  0O   1s         0.061062  0.000012 -0.039049 -0.000020  0.059709 -0.039597
  0O   2s        -0.142372 -0.000033  0.092408  0.000050 -0.136236  0.093059
  0O   1pz       -0.002959 -0.041772  0.006267  0.083714 -0.019976  0.018402
  0O   1px        0.017804  0.052611 -0.037818 -0.105457  0.120549 -0.111070
  0O   1py        0.023710 -0.044660 -0.050419  0.089464  0.160702 -0.148072
  0O   3s        -0.156541 -0.000028  0.109511  0.000063 -0.222585  0.118355
  0O   2pz       -0.002019 -0.021764  0.003783  0.048993 -0.009963  0.010456
  0O   2px        0.012188  0.027419 -0.022776 -0.061722  0.060117 -0.063048
  0O   2py        0.016223 -0.023267 -0.030354  0.052351  0.080111 -0.084052
  0O   1dz2      -0.002325  0.000757  0.002827 -0.001222 -0.005987  0.004788
  0O   1dxz      -0.001334 -0.003192  0.000928  0.005153 -0.002571  0.000794
  0O   1dyz       0.000128 -0.003046  0.000489  0.004918 -0.000470  0.001546
  0O   1dx2y2    -0.000921  0.007080  0.001308 -0.011430 -0.002608  0.002424
  0O   1dxy       0.002764  0.001607 -0.004331 -0.002596  0.008324 -0.008420
  1C   1s        -0.094306 -0.000003  0.083355  0.000006 -0.045031  0.069629
  1C   2s         0.196966  0.000002 -0.180292 -0.000016  0.105301 -0.149783
  1C   1pz       -0.015176 -0.110681  0.009813  0.134286  0.010219 -0.002388
  1C   1px        0.091424  0.139387 -0.059206 -0.169095 -0.061527  0.014295
  1C   1py        0.121794 -0.118366 -0.078932  0.143646 -0.081900  0.019028
  1C   3s         0.163861  0.000064 -0.138053  0.000034  0.090082 -0.188429
  1C   2pz       -0.004244 -0.011997  0.003417  0.029983  0.001857  0.007844
  1C   2px        0.025525  0.015096 -0.020808 -0.037737 -0.011109 -0.047402
  1C   2py        0.033987 -0.012789 -0.027774  0.032081 -0.014731 -0.063198
  1C   1dz2       0.000847  0.000565 -0.000220  0.000411  0.002143  0.001895
  1C   1dxz      -0.006507 -0.002372  0.000730 -0.001740 -0.002894 -0.002092
  1C   1dyz       0.006450 -0.002261 -0.000784 -0.001666  0.003711  0.002850
  1C   1dx2y2     0.002210  0.005261 -0.000317  0.003867  0.001954  0.001600
  1C   1dxy      -0.010816  0.001188  0.001464  0.000881 -0.008329 -0.006709
  2C   1s        -0.070963  0.082888 -0.043138  0.009453  0.002881 -0.045251
  2C   2s         0.141397 -0.166766  0.087116 -0.018286 -0.000980  0.088215
  2C   1pz       -0.019774 -0.010898  0.084901 -0.021119  0.070203  0.081970
  2C   1px       -0.017749  0.069992 -0.062511 -0.082187 -0.178150 -0.133767
  2C   1py       -0.102536  0.095719  0.175513 -0.230139 -0.096166  0.029421
  2C   3s         0.124957 -0.157219  0.081029  0.009461  0.009467  0.171566
  2C   2pz        0.002047 -0.005294  0.028851 -0.009181  0.031403  0.006478
  2C   2px       -0.009123  0.033100 -0.029199 -0.025470 -0.068040 -0.010163
  2C   2py       -0.010264  0.044715  0.044337 -0.080527 -0.020868  0.003174
  2C   1dz2      -0.001071  0.001499 -0.002149  0.000181  0.000032  0.000416
  2C   1dxz      -0.004701  0.005344 -0.000705 -0.000922 -0.001411 -0.008522
  2C   1dyz       0.006012 -0.003054 -0.003371  0.002971  0.002678 -0.003480
  2C   1dx2y2    -0.001298 -0.001693  0.001745 -0.001501 -0.000835  0.013080
  2C   1dxy      -0.007029  0.003086  0.006866 -0.004068 -0.003651  0.001027
  3C   1s         0.070966 -0.082879 -0.043144  0.009458  0.002889  0.045247
  3C   2s        -0.141440  0.166802  0.087153 -0.018288 -0.000979 -0.088235
  3C   1pz        0.037651 -0.012693  0.103520 -0.066712  0.032587 -0.069197
  3C   1px       -0.090095  0.072309 -0.174711  0.192804  0.048778  0.056532
  3C   1py       -0.041121  0.093813  0.026038  0.136174  0.206083 -0.132259
  3C   3s        -0.124874  0.157062  0.080926  0.009563  0.009481 -0.171457
  3C   2pz        0.000687 -0.005789  0.031800 -0.024781  0.019392 -0.005627
  3C   2px       -0.007357  0.033611 -0.047165  0.068148  0.004048  0.005197
  3C   2py       -0.011710  0.044199  0.020540  0.044084  0.075161 -0.009794
  3C   1dz2       0.000555 -0.001779 -0.002858  0.000662  0.000353  0.002340
  3C   1dxz       0.006854 -0.004140  0.002301 -0.002949 -0.002760 -0.003091
  3C   1dyz      -0.003951  0.004197 -0.000499  0.001033  0.001388 -0.007610
  3C   1dx2y2    -0.003492 -0.000963 -0.004926  0.002998  0.002161  0.012691
  3C   1dxy       0.005941 -0.003683  0.005354 -0.003043 -0.002969  0.004803
  4C   1s         0.094306 -0.000007  0.083355  0.000017 -0.045031 -0.069629
  4C   2s        -0.196966  0.000011 -0.180292 -0.000039  0.105301  0.149783
  4C   1pz       -0.015182  0.110677 -0.009835  0.134287 -0.010168 -0.002374
  4C   1px        0.091430 -0.139366  0.059234 -0.169105  0.061463  0.014277
  4C   1py        0.121789  0.118395  0.078908  0.143633  0.081954  0.019042
  4C   3s        -0.163861  0.000077 -0.138053 -0.000050  0.090083  0.188428
  4C   2pz       -0.004247  0.011995 -0.003425  0.029980 -0.001838  0.007859
  4C   2px        0.025528 -0.015086  0.020818 -0.037721  0.011085 -0.047421
  4C   2py        0.033984  0.012802  0.027765  0.032104  0.014751 -0.063181
  4C   1dz2      -0.000847  0.000564 -0.000219 -0.000414  0.002143 -0.001895
  4C   1dxz       0.006506 -0.002372  0.000730  0.001743 -0.002893  0.002093
  4C   1dyz      -0.006452 -0.002263 -0.000785  0.001662  0.003712 -0.002850
  4C   1dx2y2    -0.002207  0.005260 -0.000317 -0.003869  0.001950 -0.001600
  4C   1dxy       0.010817  0.001191  0.001464 -0.000872 -0.008330  0.006709
  5C   1s         0.070963  0.082887 -0.043145 -0.009459  0.002873  0.045248
  5C   2s        -0.141396 -0.166765  0.087129  0.018295 -0.000964 -0.088210
  5C   1pz       -0.019777  0.010895 -0.084895 -0.021093 -0.070177  0.081960
  5C   1px       -0.017744 -0.069988  0.062509 -0.082267  0.178043 -0.133756
  5C   1py       -0.102537 -0.095721 -0.175496 -0.230202  0.096046  0.029413
  5C   3s        -0.124952 -0.157214  0.081045 -0.009448  0.009470 -0.171536
  5C   2pz        0.002049  0.005297 -0.028848 -0.009164 -0.031396  0.006475
  5C   2px       -0.009124 -0.033102  0.029198 -0.025507  0.068007 -0.010163
  5C   2py       -0.010258 -0.044709 -0.044329 -0.080540  0.020828  0.003164
  5C   1dz2       0.001071  0.001499 -0.002150 -0.000181  0.000031 -0.000415
  5C   1dxz       0.004701  0.005344 -0.000705  0.000923 -0.001409  0.008521
  5C   1dyz      -0.006012 -0.003053 -0.003371 -0.002972  0.002675  0.003480
  5C   1dx2y2     0.001298 -0.001693  0.001745  0.001501 -0.000835 -0.013079
  5C   1dxy       0.007029  0.003085  0.006867  0.004069 -0.003647 -0.001028
  6C   1s        -0.070965 -0.082878 -0.043150 -0.009464  0.002881 -0.045244
  6C   2s         0.141438  0.166801  0.087166  0.018297 -0.000963  0.088229
  6C   1pz        0.037653  0.012695 -0.103512 -0.066706 -0.032594 -0.069189
  6C   1px       -0.090097 -0.072313  0.174696  0.192844 -0.048692  0.056521
  6C   1py       -0.041116 -0.093810 -0.026040  0.136271 -0.205946 -0.132247
  6C   3s         0.124870  0.157056  0.080942 -0.009550  0.009485  0.171427
  6C   2pz        0.000683  0.005785 -0.031796 -0.024771 -0.019396 -0.005622
  6C   2px       -0.007350 -0.033605  0.047157  0.068152 -0.004019  0.005187
  6C   2py       -0.011709 -0.044200 -0.020541  0.044125 -0.075119 -0.009797
  6C   1dz2      -0.000555 -0.001779 -0.002859 -0.000662  0.000353 -0.002340
  6C   1dxz      -0.006853 -0.004140  0.002301  0.002950 -0.002758  0.003091
  6C   1dyz       0.003951  0.004197 -0.000499 -0.001033  0.001386  0.007609
  6C   1dx2y2     0.003492 -0.000964 -0.004926 -0.002999  0.002159 -0.012690
  6C   1dxy      -0.005941 -0.003682  0.005355  0.003044 -0.002965 -0.004802
  7H   1s         0.051298 -0.092914  0.082019  0.019828  0.097520  0.141498
  7H   2s         0.009420 -0.032544  0.036555  0.016555  0.052313  0.110385
  8H   1s        -0.051315  0.092924  0.082031  0.019834  0.097514 -0.141500
  8H   2s        -0.009445  0.032591  0.036569  0.016630  0.052340 -0.110447
  9H   1s        -0.051295 -0.092911  0.082019 -0.019869  0.097470 -0.141483
  9H   2s        -0.009416 -0.032538  0.036556 -0.016571  0.052268 -0.110377
 10H   1s         0.051311  0.092922  0.082031 -0.019874  0.097464  0.141485
 10H   2s         0.009440  0.032585  0.036570 -0.016646  0.052296  0.110439
 11O   1s        -0.061062 -0.000002 -0.039049 -0.000023  0.059709  0.039597
 11O   2s         0.142372  0.000002  0.092408  0.000053 -0.136236 -0.093059
 11O   1pz       -0.002954  0.041768 -0.006283  0.083696  0.020041  0.018459
 11O   1px        0.017799 -0.052591  0.037837 -0.105349 -0.120628 -0.111140
 11O   1py        0.023715  0.044687  0.050403  0.089609 -0.160635 -0.148012
 11O   3s         0.156541  0.000006  0.109511  0.000069 -0.222585 -0.118354
 11O   2pz       -0.002017  0.021762 -0.003792  0.048982  0.009997  0.010490
 11O   2px        0.012186 -0.027407  0.022786 -0.061660 -0.060158 -0.063089
 11O   2py        0.016225  0.023283  0.030344  0.052434 -0.080076 -0.084016
 11O   1dz2       0.002325  0.000759  0.002827  0.001228 -0.005986 -0.004787
 11O   1dxz       0.001333 -0.003192  0.000929 -0.005153 -0.002574 -0.000797
 11O   1dyz      -0.000128 -0.003044  0.000490 -0.004915 -0.000474 -0.001549
 11O   1dx2y2     0.000921  0.007082  0.001306  0.011433 -0.002600 -0.002417
 11O   1dxy      -0.002764  0.001602 -0.004332  0.002584  0.008326  0.008422
                     18        19        20        21        22        23   
                  -0.46175  -0.43909  -0.43543  -0.41663  -0.40573  -0.39844
                   2.00000   2.00000   2.00000   2.00000   2.00000   2.00000
                  --------  --------  --------  --------  --------  --------
  0O   1s        -0.000000  0.000029  0.048790 -0.033848  0.000002  0.000004
  0O   2s         0.000013 -0.000054 -0.113192  0.077612 -0.000019 -0.000017
  0O   1pz       -0.015583  0.201791 -0.031951  0.030232 -0.280027  0.114596
  0O   1px        0.019715  0.110995  0.191933 -0.182751 -0.153858 -0.144310
  0O   1py       -0.016721 -0.057968  0.255897 -0.243574  0.080671  0.122555
  0O   3s        -0.000075 -0.000176 -0.162533  0.100424  0.000077  0.000021
  0O   2pz       -0.010685  0.116566 -0.018173  0.017828 -0.174082  0.070914
  0O   2px        0.013487  0.064095  0.109104 -0.107717 -0.095639 -0.089295
  0O   2py       -0.011461 -0.033519  0.145435 -0.143562  0.050185  0.075841
  0O   1dz2       0.000391 -0.002562 -0.007497  0.006197  0.003306 -0.001355
  0O   1dxz      -0.001645  0.008104 -0.002253  0.000823 -0.010476  0.005694
  0O   1dyz      -0.001572  0.012305 -0.001499  0.002185 -0.015907  0.005438
  0O   1dx2y2     0.003660  0.008317 -0.003530  0.003190 -0.010756 -0.012641
  0O   1dxy       0.000832  0.003966  0.011786 -0.011182 -0.005120 -0.002866
  1C   1s         0.000006  0.000004  0.003502  0.006985 -0.000002 -0.000002
  1C   2s         0.000018 -0.000015 -0.008515 -0.013876  0.000011 -0.000001
  1C   1pz       -0.060491  0.214894  0.026881 -0.021867 -0.229980  0.120677
  1C   1px        0.076279  0.117973 -0.162853  0.131488 -0.126420 -0.151984
  1C   1py       -0.064784 -0.061952 -0.216893  0.175259  0.066186  0.129045
  1C   3s        -0.000229  0.000110 -0.037488  0.004317 -0.000004  0.000028
  1C   2pz        0.008204  0.114895 -0.001706  0.004917 -0.123345  0.028436
  1C   2px       -0.010352  0.063074  0.009965 -0.029804 -0.067598 -0.035782
  1C   2py        0.008542 -0.033075  0.013403 -0.039724  0.035515  0.030452
  1C   1dz2       0.000985  0.000851 -0.002008  0.005341 -0.002276  0.000402
  1C   1dxz      -0.004144 -0.002717  0.000113 -0.003211  0.007211 -0.001680
  1C   1dyz      -0.003966 -0.004135 -0.001058  0.005539  0.010956 -0.001602
  1C   1dx2y2     0.009209 -0.002800 -0.001136  0.003798  0.007407  0.003727
  1C   1dxy       0.002087 -0.001326  0.004155 -0.015152  0.003526  0.000844
  2C   1s         0.013183 -0.000003  0.000737  0.003967  0.000000  0.018815
  2C   2s        -0.027493  0.000007  0.000239 -0.013875  0.000023 -0.034189
  2C   1pz        0.131219  0.128464  0.067876  0.018875 -0.050164 -0.097099
  2C   1px       -0.230951  0.070611 -0.093400 -0.124363 -0.027543  0.130152
  2C   1py        0.014788 -0.036974  0.057814 -0.171713  0.014474 -0.088940
  2C   3s        -0.062157 -0.000108 -0.075421  0.019697 -0.000133 -0.101817
  2C   2pz        0.048847  0.068442  0.049129 -0.015795 -0.033483 -0.036281
  2C   2px       -0.069701  0.037419 -0.088787 -0.003346 -0.018487  0.019368
  2C   2py        0.036451 -0.019669  0.001373 -0.061178  0.009565 -0.089110
  2C   1dz2       0.000843 -0.005896 -0.000763  0.001430  0.003329 -0.001394
  2C   1dxz      -0.004246  0.003358 -0.001950 -0.005426  0.001235  0.009375
  2C   1dyz       0.001993 -0.000871 -0.004582  0.003552  0.006454  0.004176
  2C   1dx2y2     0.003753  0.002346  0.005592  0.004223  0.002111 -0.015630
  2C   1dxy      -0.004834 -0.002521  0.005973 -0.007869  0.003801 -0.000209
  3C   1s         0.013194 -0.000005 -0.000745  0.003971 -0.000002 -0.018811
  3C   2s        -0.027463  0.000024 -0.000221 -0.013866  0.000021  0.034194
  3C   1pz        0.103651  0.128429 -0.064780 -0.023261  0.050172  0.093881
  3C   1px       -0.064597  0.070664  0.073600  0.129940  0.027542 -0.110279
  3C   1py        0.236311 -0.037110 -0.084118  0.166990 -0.014465  0.115339
  3C   3s        -0.062707  0.000073  0.075414  0.019657 -0.000002  0.101757
  3C   2pz        0.045476  0.068203 -0.037929 -0.025528  0.033504  0.047368
  3C   2px       -0.048922  0.037529  0.020863  0.055337  0.018264 -0.085989
  3C   2py        0.064573 -0.019861 -0.091788  0.016954 -0.009760  0.000418
  3C   1dz2       0.000288 -0.005216  0.002202  0.000910 -0.005214 -0.001827
  3C   1dxz      -0.001879  0.001199 -0.004083 -0.003245  0.004735  0.004194
  3C   1dyz       0.004246 -0.004146 -0.001180  0.005632  0.002598  0.008783
  3C   1dx2y2    -0.001492  0.000128  0.007797 -0.000617  0.004006 -0.014489
  3C   1dxy      -0.006022 -0.003570 -0.002939 -0.008964 -0.000881 -0.006606
  4C   1s         0.000004 -0.000004 -0.003502  0.006985 -0.000002 -0.000005
  4C   2s        -0.000040  0.000014  0.008515 -0.013876  0.000011  0.000006
  4C   1pz       -0.060485  0.214895  0.026923  0.021885  0.229981 -0.120667
  4C   1px        0.076240  0.117970 -0.162905 -0.131512  0.126420  0.151937
  4C   1py       -0.064835 -0.061952 -0.216848 -0.175238 -0.066185 -0.129110
  4C   3s         0.000196 -0.000110  0.037488  0.004317 -0.000004  0.000032
  4C   2pz        0.008205  0.114896 -0.001708 -0.004934  0.123345 -0.028429
  4C   2px       -0.010361  0.063074  0.009967  0.029824  0.067599  0.035750
  4C   2py        0.008530 -0.033073  0.013401  0.039707 -0.035514 -0.030497
  4C   1dz2      -0.000985 -0.000855  0.002007  0.005341 -0.002281  0.000403
  4C   1dxz       0.004145  0.002719 -0.000111 -0.003212  0.007213 -0.001681
  4C   1dyz       0.003965  0.004133  0.001059  0.005539  0.010953 -0.001601
  4C   1dx2y2    -0.009209  0.002801  0.001134  0.003799  0.007408  0.003728
  4C   1dxy      -0.002085  0.001324 -0.004155 -0.015151  0.003524  0.000841
  5C   1s        -0.013181  0.000003 -0.000741  0.003971  0.000000  0.018823
  5C   2s         0.027486 -0.000007 -0.000230 -0.013883  0.000023 -0.034204
  5C   1pz        0.131237  0.128467  0.067852 -0.018886  0.050173  0.097126
  5C   1px       -0.230993  0.070614 -0.093372  0.124376  0.027546 -0.130195
  5C   1py        0.014778 -0.036975  0.057791  0.171698 -0.014476  0.088956
  5C   3s         0.062148  0.000109  0.075406  0.019662 -0.000133 -0.101868
  5C   2pz        0.048857  0.068443  0.049118  0.015788  0.033491  0.036283
  5C   2px       -0.069721  0.037419 -0.088773  0.003350  0.018491 -0.019368
  5C   2py        0.036449 -0.019669  0.001365  0.061165 -0.009567  0.089118
  5C   1dz2      -0.000843  0.005897  0.000764  0.001430  0.003329 -0.001393
  5C   1dxz       0.004245 -0.003358  0.001948 -0.005427  0.001235  0.009377
  5C   1dyz      -0.001993  0.000872  0.004581  0.003551  0.006455  0.004177
  5C   1dx2y2    -0.003752 -0.002345 -0.005588  0.004223  0.002112 -0.015633
  5C   1dxy       0.004833  0.002521 -0.005974 -0.007868  0.003801 -0.000210
  6C   1s        -0.013191  0.000005  0.000749  0.003974 -0.000002 -0.018820
  6C   2s         0.027456 -0.000024  0.000212 -0.013873  0.000022  0.034210
  6C   1pz        0.103664  0.128433 -0.064758  0.023247 -0.050180 -0.093906
  6C   1px       -0.064597  0.070663  0.073572 -0.129925 -0.027546  0.110303
  6C   1py        0.236356 -0.037112 -0.084093 -0.166999  0.014468 -0.115380
  6C   3s         0.062698 -0.000074 -0.075400  0.019622 -0.000001  0.101807
  6C   2pz        0.045483  0.068204 -0.037920  0.025520 -0.033511 -0.047371
  6C   2px       -0.048924  0.037528  0.020852 -0.055324 -0.018268  0.085996
  6C   2py        0.064594 -0.019861 -0.091775 -0.016954  0.009763 -0.000416
  6C   1dz2      -0.000288  0.005216 -0.002202  0.000910 -0.005215 -0.001828
  6C   1dxz       0.001879 -0.001200  0.004082 -0.003245  0.004736  0.004195
  6C   1dyz      -0.004246  0.004146  0.001178  0.005632  0.002599  0.008785
  6C   1dx2y2     0.001492 -0.000128 -0.007794 -0.000618  0.004007 -0.014492
  6C   1dxy       0.006021  0.003570  0.002942 -0.008964 -0.000881 -0.006606
  7H   1s         0.142970 -0.000001  0.071774  0.070975 -0.000014 -0.139176
  7H   2s         0.114891 -0.000109  0.033812  0.086779 -0.000018 -0.118706
  8H   1s         0.142950 -0.000064 -0.071812  0.070975  0.000001  0.139182
  8H   2s         0.114804 -0.000012 -0.033870  0.086814  0.000016  0.118713
  9H   1s        -0.142995  0.000003 -0.071741  0.070985 -0.000014 -0.139215
  9H   2s        -0.114900  0.000111 -0.033778  0.086795 -0.000018 -0.118739
 10H   1s        -0.142975  0.000063  0.071779  0.070984  0.000001  0.139220
 10H   2s        -0.114813  0.000011  0.033836  0.086830  0.000016  0.118746
 11O   1s        -0.000019 -0.000030 -0.048790 -0.033848  0.000002 -0.000003
 11O   2s         0.000032  0.000055  0.113192  0.077612 -0.000019 -0.000001
 11O   1pz       -0.015590  0.201792 -0.031994 -0.030325  0.280028 -0.114589
 11O   1px        0.019752  0.110996  0.191983  0.182861  0.153858  0.144287
 11O   1py       -0.016671 -0.057963  0.255855  0.243479 -0.080669 -0.122588
 11O   3s         0.000154  0.000177  0.162533  0.100424  0.000077  0.000064
 11O   2pz       -0.010688  0.116566 -0.018197 -0.017885  0.174082 -0.070909
 11O   2px        0.013505  0.064096  0.109133  0.107786  0.095639  0.089278
 11O   2py       -0.011436 -0.033516  0.145410  0.143504 -0.050183 -0.075866
 11O   1dz2      -0.000389  0.002565  0.007497  0.006196  0.003311 -0.001356
 11O   1dxz       0.001647 -0.008105  0.002256  0.000828 -0.010478  0.005698
 11O   1dyz       0.001571 -0.012304  0.001501  0.002190 -0.015905  0.005434
 11O   1dx2y2    -0.003660 -0.008318  0.003524  0.003180 -0.010757 -0.012642
 11O   1dxy      -0.000831 -0.003965 -0.011787 -0.011184 -0.005118 -0.002859
                     24        25        26        27        28        29   
                  -0.30174  -0.30044  -0.27508  -0.26681  -0.12639  -0.02301
                   2.00000   2.00000   2.00000   2.00000   0.00000   0.00000
                  --------  --------  --------  --------  --------  --------
  0O   1s         0.000001  0.000001 -0.000003  0.000001  0.000003 -0.000007
  0O   2s         0.000011 -0.000002  0.000012 -0.000003 -0.000016 -0.000006
  0O   1pz        0.270807 -0.001712 -0.222401  0.203153 -0.263385  0.000001
  0O   1px        0.148851 -0.000936  0.280089 -0.255865 -0.144743  0.000067
  0O   1py       -0.077974  0.000488 -0.237800  0.217237  0.075809 -0.000042
  0O   3s        -0.000069  0.000010 -0.000009 -0.000016  0.000010  0.000124
  0O   2pz        0.194130 -0.001220 -0.156336  0.147297 -0.225493 -0.000024
  0O   2px        0.106717 -0.000686  0.196918 -0.185557 -0.123961  0.000099
  0O   2py       -0.055931  0.000356 -0.167175  0.157518  0.064956  0.000035
  0O   1dz2      -0.002319 -0.001316  0.001358 -0.001109  0.000724  0.004376
  0O   1dxz       0.007321  0.000501 -0.005707  0.004659 -0.002301 -0.001800
  0O   1dyz       0.011107 -0.000670 -0.005446  0.004444 -0.003492  0.001974
  0O   1dx2y2     0.007518  0.000246  0.012663 -0.010336 -0.002367 -0.000973
  0O   1dxy       0.003576 -0.000753  0.002873 -0.002346 -0.001126  0.002412
  1C   1s         0.000003  0.000001  0.000004 -0.000002 -0.000005 -0.000002
  1C   2s         0.000009 -0.000019 -0.000014  0.000010 -0.000003  0.000007
  1C   1pz        0.040761 -0.000223  0.033569 -0.069216  0.192115 -0.000043
  1C   1px        0.022406 -0.000176 -0.042293  0.087195  0.105575 -0.000016
  1C   1py       -0.011755  0.000087  0.035902 -0.074039 -0.055289  0.000030
  1C   3s        -0.000258  0.000014 -0.000026  0.000043  0.000044 -0.000276
  1C   2pz        0.033181 -0.000284 -0.026390 -0.009452  0.138090  0.000104
  1C   2px        0.018029  0.000024  0.033166  0.011957  0.076061 -0.000089
  1C   2py       -0.009623 -0.000007 -0.028207 -0.010164 -0.039858  0.000033
  1C   1dz2       0.003913 -0.013150 -0.002799  0.003084 -0.003958  0.023120
  1C   1dxz      -0.012604  0.005457  0.011768 -0.012987  0.012513 -0.009471
  1C   1dyz      -0.019236 -0.005801  0.011245 -0.012412  0.019001  0.010430
  1C   1dx2y2    -0.012961  0.002996 -0.026129  0.028841  0.012849 -0.005131
  1C   1dxy      -0.006224 -0.007163 -0.005921  0.006538  0.006114  0.012670
  2C   1s        -0.000001 -0.000005 -0.016244  0.033921 -0.000005 -0.000001
  2C   2s        -0.000001  0.000026  0.033429 -0.068468 -0.000016 -0.000040
  2C   1pz       -0.179092 -0.250996 -0.034007  0.073561  0.161326  0.267680
  2C   1px       -0.098431 -0.137912 -0.024506 -0.072480  0.088653  0.147066
  2C   1py        0.051592  0.072274 -0.164832  0.117258 -0.046474 -0.077080
  2C   3s         0.000084  0.000024  0.112952 -0.256284  0.000270  0.000425
[...]
     33      -0.198784   0.087999   0.000115   0.311158  -0.117431   0.257233
     34       0.104163  -0.045904  -0.000096  -0.264081   0.108548   0.333688
     35      -0.361328   0.159740  -0.000017  -0.247224   0.095869  -0.045455
                 12         13         14         15         16         17    
      0       0.026769   0.131286  -0.112178   0.000029  -0.085595   0.043273
      1      -0.013959  -0.111635  -0.149447   0.000002  -0.113974  -0.022806
      2       0.048780  -0.104301   0.018655   0.000065   0.014150   0.078934
      3      -0.091309   0.042723  -0.093254  -0.000147  -0.072811  -0.204377
      4       0.047865  -0.036386  -0.124228   0.000087  -0.097381   0.106917
      5      -0.166210  -0.033967   0.015414  -0.000264   0.012369  -0.371760
      6       0.009087   0.226864   0.076841   0.033407  -0.249226   0.079174
      7      -0.004799   0.206768   0.156159  -0.017535   0.162695  -0.041505
      8       0.016521  -0.065059   0.002708   0.060798   0.183639   0.144558
      9       0.009075   0.139365   0.126104   0.033301  -0.204135  -0.079759
     10      -0.004801   0.281096   0.114292  -0.017491   0.222439   0.041887
     11       0.016491   0.004370  -0.036408   0.060591   0.176451  -0.144748
     12      -0.091310  -0.042814  -0.093282   0.000135   0.072882   0.204378
     13       0.047863   0.036264  -0.124207  -0.000084   0.097315  -0.106915
     14      -0.166210   0.033984   0.015437   0.000246  -0.012427   0.371760
     15       0.009085  -0.226805   0.076990  -0.033398   0.249214  -0.079171
     16      -0.004799  -0.206610   0.156257   0.017535  -0.162653   0.041503
     17       0.016518   0.065073   0.002658  -0.060784  -0.183619  -0.144555
     18       0.009073  -0.139233   0.126160  -0.033291   0.204098   0.079755
     19      -0.004801  -0.280999   0.114472   0.017490  -0.222429  -0.041885
     20       0.016488  -0.004416  -0.036381  -0.060579  -0.176429   0.144745
     21       0.223365   0.236024   0.115734  -0.231026  -0.280969   0.163045
     22      -0.117167   0.265955   0.416263   0.121071   0.051449  -0.085548
     23       0.406470  -0.053315   0.056531  -0.420420   0.168601   0.297235
     24       0.223411   0.191356   0.356050  -0.231178  -0.109000  -0.161710
     25      -0.117212   0.303824   0.211921   0.121203   0.279818   0.084876
     26       0.406485  -0.017967  -0.134295  -0.420617   0.140721  -0.293862
     27       0.223353  -0.235931   0.115862   0.231005   0.280944  -0.163081
     28      -0.117161  -0.265593   0.416407  -0.121052  -0.051474   0.085562
     29       0.406452   0.053367   0.056462   0.420386  -0.168590  -0.297304
     30       0.223399  -0.191048   0.356129   0.231167   0.109031   0.161745
     31      -0.117210  -0.303647   0.212115  -0.121191  -0.279774  -0.084897
     32       0.406469   0.017843  -0.134316   0.420581  -0.140727   0.293933
     33       0.026767  -0.131387  -0.112114  -0.000033   0.085578  -0.043273
     34      -0.013960   0.111501  -0.149504  -0.000004   0.113983   0.022805
     35       0.048780   0.104317   0.018604  -0.000067  -0.014138  -0.078934
                 18         19         20         21         22         23    
      0      -0.017736   0.037074  -0.000012  -0.001848  -0.009746  -0.013851
      1       0.009275   0.049437   0.000002   0.000961   0.008280  -0.018494
      2      -0.032281  -0.006180  -0.000013  -0.003360   0.007743   0.002290
      3       0.075554   0.012962   0.000043   0.003153   0.067620   0.002236
      4      -0.039575   0.017139  -0.000025  -0.001649  -0.057424   0.003145
      5       0.137472  -0.002045   0.000064   0.005768  -0.053696  -0.000332
      6      -0.044599  -0.192187   0.036370  -0.034854  -0.056281  -0.015719
      7       0.023365   0.075629  -0.019068   0.018275   0.008567  -0.028954
      8      -0.081285   0.127352   0.066140  -0.063439   0.033394   0.000294
      9      -0.044663   0.111785  -0.036406   0.034866  -0.020251   0.023058
     10       0.023447  -0.182682   0.019102  -0.018281   0.056446   0.022764
     11      -0.081141  -0.114131  -0.066204   0.063459   0.027386  -0.006110
     12       0.075554   0.012912   0.000036  -0.003153   0.067608  -0.002243
     13      -0.039574   0.017182  -0.000021   0.001649  -0.057442  -0.003140
     14       0.137472  -0.002003   0.000050  -0.005769  -0.053694   0.000337
     15      -0.044603  -0.192170   0.036401   0.034825  -0.056306   0.015715
     16       0.023367   0.075622  -0.019085  -0.018260   0.008562   0.028956
     17      -0.081292   0.127340   0.066198   0.063389   0.033405  -0.000290
     18      -0.044668   0.111775  -0.036437  -0.034837  -0.020252  -0.023060
     19       0.023450  -0.182666   0.019119   0.018267   0.056473  -0.022760
     20      -0.081149  -0.114120  -0.066262  -0.063408   0.027394   0.006112
     21       0.222656  -0.150299  -0.230425   0.230893  -0.136675  -0.089344
     22      -0.116865   0.362656   0.120777  -0.121064  -0.466778  -0.482525
     23       0.405080   0.187119  -0.419393   0.420178  -0.059380  -0.089901
     24       0.222194   0.365553   0.230552  -0.231020   0.397786   0.422223
     25      -0.116595  -0.076070  -0.120942   0.121138   0.244962   0.199279
     26       0.404636  -0.222297   0.419648  -0.420290  -0.148042  -0.174609
     27       0.222697  -0.150296  -0.230611  -0.230700  -0.136697   0.089310
     28      -0.116889   0.362616   0.120875   0.120960  -0.466848   0.482434
     29       0.405162   0.187104  -0.419738  -0.419831  -0.059385   0.089893
     30       0.222242   0.365516   0.230739   0.230827   0.397846  -0.422149
     31      -0.116622  -0.076076  -0.121041  -0.121036   0.245002  -0.199225
     32       0.404723  -0.222279   0.419986   0.419934  -0.148067   0.174584
     33      -0.017736   0.037095  -0.000010   0.001848  -0.009749   0.013859
     34       0.009275   0.049418   0.000001  -0.000960   0.008275   0.018487
     35      -0.032281  -0.006198  -0.000008   0.003360   0.007744  -0.002296
                 24         25         26         27         28         29    
      0      -0.020304   0.023949   0.025201   0.004395  -0.014314  -0.105961
      1       0.017214  -0.020349   0.033566  -0.003876   0.012159  -0.141222
      2       0.016114  -0.019027  -0.004188  -0.003531   0.011368   0.017577
      3       0.135896  -0.168529  -0.005921  -0.076703  -0.008338   0.094611
      4      -0.115406   0.143113  -0.007594   0.065160   0.007050   0.126209
      5      -0.107911   0.133825   0.001074   0.060907   0.006606  -0.015679
      6      -0.051723   0.043545   0.019468   0.053004  -0.198027   0.190247
      7       0.004779  -0.055166  -0.094392  -0.125322  -0.330232   0.305784
      8       0.029779  -0.039806  -0.037887  -0.065217   0.013688  -0.016451
      9       0.015856   0.060272  -0.090829  -0.126593   0.258952  -0.238295
     10      -0.052576  -0.032972  -0.000688   0.027296   0.278456  -0.264987
     11      -0.023840  -0.042617   0.049717   0.077423  -0.062073   0.054606
     12      -0.135873  -0.168499  -0.005680   0.076718  -0.008273  -0.094679
     13       0.115438   0.143154  -0.007799  -0.065137   0.007137  -0.126154
     14       0.107906   0.133819   0.000882  -0.060908   0.006595   0.015734
     15       0.051735   0.043584   0.019283  -0.053114  -0.198024  -0.190234
     16      -0.004784  -0.055165  -0.093951   0.125852  -0.330261  -0.305805
     17      -0.029787  -0.039827  -0.037658   0.065430   0.013677   0.016436
     18      -0.015863   0.060278  -0.090384   0.127103   0.258980   0.238318
     19       0.052587  -0.033013  -0.000782  -0.027293   0.278458   0.264977
     20       0.023847  -0.042632   0.049445  -0.077703  -0.062086  -0.054620
     21       0.018341  -0.011380   0.112661   0.147948  -0.149331   0.150948
     22       0.456651  -0.441201   0.470177   0.441631   0.237300  -0.218277
     23       0.121502  -0.120883   0.073533   0.045909   0.150415  -0.145863
     24       0.415407   0.401871   0.406283   0.372107  -0.250449   0.233562
     25       0.120390   0.109248   0.220886   0.251135   0.102502  -0.108320
     26      -0.193678  -0.189314  -0.159633  -0.132125   0.167135  -0.159537
     27      -0.018353  -0.011340   0.112109  -0.148539  -0.149321  -0.150943
     28      -0.456892  -0.441314   0.468510  -0.444089   0.237370   0.218263
     29      -0.121565  -0.120937   0.073357  -0.046294   0.150430   0.145856
     30      -0.415619   0.401994   0.404875  -0.374225  -0.250510  -0.233549
     31      -0.120453   0.109237   0.219943  -0.252289   0.102477   0.108318
     32       0.193776  -0.189383  -0.159129   0.132955   0.167160   0.159528
     33       0.020298   0.023942   0.025192  -0.004537  -0.014336   0.105984
     34      -0.017223  -0.020358   0.033574   0.003688   0.012130   0.141204
     35      -0.016113  -0.019025  -0.004181   0.003555   0.011372  -0.017596
                 30         31         32         33         34         35    
      0      -0.164284  -0.206195  -0.000279   0.000043  -0.000113   0.000712
      1      -0.218934  -0.274795  -0.000375   0.000003   0.000110   0.000947
      2       0.027258   0.034215   0.000045  -0.000023   0.000094  -0.000119
      3       0.276268   0.319268   0.000812  -0.000565   0.001235  -0.001873
      4       0.368134   0.425475   0.001146   0.000362  -0.001085  -0.002473
      5      -0.045854  -0.052975  -0.000116   0.000415  -0.000991   0.000317
      6      -0.089964  -0.026453   0.038941   0.034558  -0.040388  -0.039683
      7      -0.150092  -0.045181  -0.002820  -0.002226  -0.002052  -0.001507
      8       0.006209   0.001526  -0.022210  -0.019630   0.021602   0.021373
      9       0.117704  -0.035558  -0.011209  -0.009692  -0.007023  -0.007372
     10       0.126526  -0.037458   0.039866   0.035430   0.042272   0.041433
     11      -0.028233   0.008755   0.017650   0.015538   0.016043   0.015993
     12      -0.276399   0.319220   0.000874   0.000462   0.001268   0.001851
     13      -0.368232   0.425300   0.001094  -0.000498  -0.001041   0.002492
     14       0.045900  -0.053001  -0.000165  -0.000398  -0.000996  -0.000300
     15       0.089914  -0.026410   0.034496  -0.039009  -0.039655   0.040404
     16       0.150033  -0.045130  -0.002531   0.002549  -0.002025   0.001545
     17      -0.006198   0.001517  -0.019684   0.022169   0.021207  -0.021758
     18      -0.117640  -0.035602  -0.009957   0.010971  -0.006889   0.007499
     19      -0.126438  -0.037489   0.035297  -0.039971   0.041520  -0.042199
     20       0.028223   0.008770   0.015645  -0.017550   0.015753  -0.016284
     21      -0.023106   0.024802  -0.458511  -0.406304   0.438241   0.430216
     22       0.257744   0.205328   0.022629   0.019579  -0.018413  -0.018575
     23       0.086922   0.045503   0.258466   0.228904  -0.246119  -0.241758
     24      -0.241387   0.182706   0.122334   0.107950   0.113492   0.111911
     25      -0.033056   0.071107  -0.471652  -0.417958  -0.449626  -0.441404
     26       0.123107  -0.079920  -0.203170  -0.179791  -0.191971  -0.188730
     27       0.023055   0.024821  -0.406234   0.458717   0.430295  -0.438031
     28      -0.257744   0.205235   0.020092  -0.022153  -0.018054   0.018886
     29      -0.086895   0.045466   0.229005  -0.258442  -0.241646   0.246138
     30       0.241266   0.182785   0.108394  -0.121878   0.111450  -0.113953
     31       0.033066   0.071130  -0.417751   0.471705  -0.441635   0.449564
     32      -0.123036  -0.079956  -0.179975   0.202938  -0.188548   0.192206
     33       0.164382  -0.206185  -0.000283  -0.000009  -0.000125  -0.000710
     34       0.218986  -0.274675  -0.000373   0.000043   0.000093  -0.000949
     35      -0.027298   0.034246   0.000048   0.000018   0.000096   0.000117


-----------
IR SPECTRUM
-----------

 Mode    freq (cm**-1)   T**2         TX         TY         TZ
-------------------------------------------------------------------
   6:       101.46   12.922758  (  1.680438  -0.880913   3.053339)
   7:       244.25    0.000000  ( -0.000003  -0.000023   0.000001)
   8:       340.40    0.000023  ( -0.002882   0.003776   0.000961)
   9:       411.82   25.483068  ( -3.290398   2.795673   2.615447)
  10:       453.59    0.000001  ( -0.000531  -0.000793   0.000066)
  11:       454.45    0.000009  (  0.002027  -0.001690  -0.001590)
  12:       517.73    1.785353  (  0.622578  -0.336084   1.133489)
  13:       601.33    0.000000  ( -0.000087  -0.000101   0.000010)
  14:       755.30    0.653908  (  0.484603   0.642351  -0.080332)
  15:       765.64    0.000001  ( -0.000340   0.000193  -0.000614)
  16:       776.34    0.000002  (  0.000984  -0.000820  -0.000772)
  17:       803.51    0.000000  (  0.000016   0.000020   0.000005)
  18:       911.76   75.186228  (  4.052160  -2.125056   7.365485)
  19:       949.26   18.541502  ( -2.568984  -3.428851   0.429886)
  20:      1018.65    0.000141  (  0.003878  -0.010342  -0.004415)
  21:      1030.29    0.000000  ( -0.000002  -0.000010  -0.000043)
  22:      1088.98   48.721236  (  4.550694  -3.867800  -3.612829)
  23:      1174.50    0.000001  ( -0.000512   0.000428   0.000414)
  24:      1241.05    0.000002  (  0.000736   0.000981  -0.000122)
  25:      1327.28   79.910905  ( -5.829212   4.950001   4.629113)
  26:      1395.16    5.427848  (  1.392577   1.853401  -0.231259)
  27:      1405.29    0.000032  ( -0.003428  -0.004509   0.000579)
  28:      1657.67   16.094654  ( -2.611511   2.227889   2.076337)
  29:      1692.10    0.000002  ( -0.000942   0.000756   0.000747)
  30:      1757.50    0.000010  ( -0.002593  -0.001662   0.000982)
  31:      1759.15  329.908464  ( 10.849272  14.455486  -1.800188)
  32:      3202.55    3.486913  (  1.108553   1.491401  -0.183700)
  33:      3202.93    0.012716  ( -0.067124  -0.089914   0.011236)
  34:      3218.94    8.698164  ( -1.925162   1.633675   1.524146)
  35:      3221.32    0.000695  (  0.017121  -0.014715  -0.013604)

The first frequency considered to be a vibration is 6
The total number of vibrations considered is 30


--------------------------
THERMOCHEMISTRY AT 298.15K
--------------------------

Temperature         ... 298.15 K
Pressure            ... 1.00 atm
Total Mass          ... 108.10 AMU

Throughout the following assumptions are being made:
  (1) The electronic state is orbitally nondegenerate
  (2) There are no thermally accessible electronically excited states
  (3) Hindered rotations indicated by low frequency modes are not
      treated as such but are treated as vibrations and this may
      cause some error
  (4) All equations used are the standard statistical mechanics
      equations for an ideal gas
  (5) All vibrations are strictly harmonic

freq.     101.46  E(vib)   ...       0.46 
freq.     244.25  E(vib)   ...       0.31 
freq.     340.40  E(vib)   ...       0.23 
freq.     411.82  E(vib)   ...       0.19 
freq.     453.59  E(vib)   ...       0.16 
freq.     454.45  E(vib)   ...       0.16 
freq.     517.73  E(vib)   ...       0.13 
freq.     601.33  E(vib)   ...       0.10 
freq.     755.30  E(vib)   ...       0.06 
freq.     765.64  E(vib)   ...       0.06 
freq.     776.34  E(vib)   ...       0.05 
freq.     803.51  E(vib)   ...       0.05 
freq.     911.76  E(vib)   ...       0.03 
freq.     949.26  E(vib)   ...       0.03 
freq.    1018.65  E(vib)   ...       0.02 
freq.    1030.29  E(vib)   ...       0.02 
freq.    1088.98  E(vib)   ...       0.02 
freq.    1174.50  E(vib)   ...       0.01 
freq.    1241.05  E(vib)   ...       0.01 
freq.    1327.28  E(vib)   ...       0.01 
freq.    1395.16  E(vib)   ...       0.00 
freq.    1405.29  E(vib)   ...       0.00 
freq.    1657.67  E(vib)   ...       0.00 
freq.    1692.10  E(vib)   ...       0.00 
freq.    1757.50  E(vib)   ...       0.00 
freq.    1759.15  E(vib)   ...       0.00 
freq.    3202.55  E(vib)   ...       0.00 
freq.    3202.93  E(vib)   ...       0.00 
freq.    3218.94  E(vib)   ...       0.00 
freq.    3221.32  E(vib)   ...       0.00 

------------
INNER ENERGY
------------

The inner energy is: U= E(el) + E(ZPE) + E(vib) + E(rot) + E(trans)
    E(el)   - is the total energy from the electronic structure calculation
              = E(kin-el) + E(nuc-el) + E(el-el) + E(nuc-nuc)
    E(ZPE)  - the the zero temperature vibrational energy from the frequency calculation
    E(vib)  - the the finite temperature correction to E(ZPE) due to population
              of excited vibrational states
    E(rot)  - is the rotational thermal energy
    E(trans)- is the translational thermal energy

Summary of contributions to the inner energy U:
Electronic energy                ...   -381.23648643 Eh
Zero point energy                ...      0.08538622 Eh      53.58 kcal/mol
Thermal vibrational correction   ...      0.00338741 Eh       2.13 kcal/mol
Thermal rotational correction    ...      0.00141627 Eh       0.89 kcal/mol
Thermal translational correction ...      0.00141627 Eh       0.89 kcal/mol
-----------------------------------------------------------------------
Total thermal energy                   -381.14488025 Eh


Summary of corrections to the electronic energy:
(perhaps to be used in another calculation)
Total thermal correction                  0.00621995 Eh       3.90 kcal/mol
Non-thermal (ZPE) correction              0.08538622 Eh      53.58 kcal/mol
-----------------------------------------------------------------------
Total correction                          0.09160618 Eh      57.48 kcal/mol


--------
ENTHALPY
--------

The enthalpy is H = U + kB*T
                kB is Boltzmann's constant
Total free energy                 ...   -381.14488025 Eh 
Thermal Enthalpy correction       ...      0.00094421 Eh       0.59 kcal/mol
-----------------------------------------------------------------------
Total Enthalpy                    ...   -381.14393604 Eh


Note: Rotational entropy computed according to Herzberg 
Infrared and Raman Spectra, Chapter V,1, Van Nostrand Reinhold, 1945 
Point Group:  C1, Symmetry Number:   1  
Rotational constants in cm-1:     0.174427     0.054963     0.041794 

Vibrational entropy computed according to the QRRHO of S. Grimme
Chem.Eur.J. 2012 18 9955


-------
ENTROPY
-------

The entropy contributions are T*S = T*(S(el)+S(vib)+S(rot)+S(trans))
     S(el)   - electronic entropy
     S(vib)  - vibrational entropy
     S(rot)  - rotational entropy
     S(trans)- translational entropy
The entropies will be listed as mutliplied by the temperature to get
units of energy

Electronic entropy                ...      0.00000000 Eh      0.00 kcal/mol
Vibrational entropy               ...      0.00534457 Eh      3.35 kcal/mol
Rotational entropy                ...      0.01320367 Eh      8.29 kcal/mol
Translational entropy             ...      0.01898150 Eh     11.91 kcal/mol
-----------------------------------------------------------------------
Final entropy term                ...      0.03752973 Eh     23.55 kcal/mol


-------------------
GIBBS FREE ENTHALPY
-------------------

The Gibbs free enthalpy is G = H - T*S

Total enthalpy                    ...   -381.14393604 Eh 
Total entropy correction          ...     -0.03752973 Eh    -23.55 kcal/mol
-----------------------------------------------------------------------
Final Gibbs free enthalpy         ...   -381.18146578 Eh

For completeness - the Gibbs free enthalpy minus the electronic energy
G-E(el)                           ...      0.05502065 Eh     34.53 kcal/mol


Timings for individual modules:

Sum of individual times         ...      488.270 sec (=   8.138 min)
GTO integral calculation        ...        0.306 sec (=   0.005 min)   0.1 %
SCF iterations                  ...       25.859 sec (=   0.431 min)   5.3 %
Analytical frequency calculation...      462.105 sec (=   7.702 min)  94.6 %
                             ****ORCA TERMINATED NORMALLY****
TOTAL RUN TIME: 0 days 0 hours 8 minutes 8 seconds 592 msec
