16
	Energy:      18.5433223
C         -2.42858        1.12136        0.01529
C         -1.03862        1.26812        0.02686
C         -2.99648       -0.15308       -0.01402
C         -2.17474       -1.28155       -0.03177
C         -0.19754        0.14568        0.00933
C         -0.78262       -1.14100       -0.02032
O          1.14467        0.37025        0.02218
C          2.18493       -0.54095        0.00968
H          2.80523       -0.39107        0.91712
H          2.81644       -0.35351       -0.88293
H          1.86199       -1.59593       -0.01441
H         -3.06511        1.99669        0.02907
H         -0.61095        2.26281        0.04964
H         -4.07286       -0.26644       -0.02297
H         -2.61756       -2.26911       -0.05448
H         -0.19591       -2.04499       -0.03495
