
                                 *****************
                                 * O   R   C   A *
                                 *****************

           --- An Ab Initio, DFT and Semiempirical electronic structure package ---

                  #######################################################
                  #                        -***-                        #
                  #          Department of theory and spectroscopy      #
                  #               Directorship: Frank Neese             #
                  #        Max Planck Institute fuer Kohlenforschung    #
                  #                Kaiser Wilhelm Platz 1               #
                  #                 D-45470 Muelheim/Ruhr               #
                  #                      Germany                        #
                  #                                                     #
                  #                  All rights reserved                #
                  #                        -***-                        #
                  #######################################################


                         Program Version 4.1.0  - RELEASE  -


 With contributions from (in alphabetic order):
   Daniel Aravena         : Magnetic Properties
   Michael Atanasov       : Ab Initio Ligand Field Theory
   Alexander A. Auer      : GIAO ZORA
   Ute Becker             : Parallelization
   Giovanni Bistoni       : ED, Open-shell LED
   Martin Brehm           : Molecular dynamics
   Dmytro Bykov           : SCF Hessian
   Vijay G. Chilkuri      : MRCI spin determinant printing
   Dipayan Datta          : RHF DLPNO-CCSD density
   Achintya Kumar Dutta   : EOM-CC, STEOM-CC
   Dmitry Ganyushin       : Spin-Orbit,Spin-Spin,Magnetic field MRCI
   Miquel Garcia          : C-PCM Hessian
   Yang Guo               : DLPNO-NEVPT2, CIM, IAO-localization
   Andreas Hansen         : Spin unrestricted coupled pair/coupled cluster methods
   Benjamin Helmich-Paris : CASSCF linear response (MC-RPA)
   Lee Huntington         : MR-EOM, pCC
   Robert Izsak           : Overlap fitted RIJCOSX, COSX-SCS-MP3, EOM
   Christian Kollmar      : KDIIS, OOCD, Brueckner-CCSD(T), CCSD density
   Simone Kossmann        : Meta GGA functionals, TD-DFT gradient, OOMP2, MP2 Hessian
   Martin Krupicka        : AUTO-CI
   Lucas Lang             : DCDCAS
   Dagmar Lenk            : GEPOL surface, SMD
   Dimitrios Liakos       : Extrapolation schemes; parallel MDCI
   Dimitrios Manganas     : ROCIS; embedding schemes
   Dimitrios Pantazis     : SARC Basis sets
   Taras Petrenko         : DFT Hessian,TD-DFT gradient, ASA, ECA, R-Raman, ABS, FL, XAS/XES, NRVS
   Peter Pinski           : DLPNO-MP2, DLPNO-MP2 Gradient
   Christoph Reimann      : Effective Core Potentials
   Marius Retegan         : Local ZFS, SOC
   Christoph Riplinger    : Optimizer, TS searches, QM/MM, DLPNO-CCSD(T), (RO)-DLPNO pert. Triples
   Tobias Risthaus        : Range-separated hybrids, TD-DFT gradient, RPA, STAB
   Michael Roemelt        : Restricted open shell CIS
   Masaaki Saitow         : Open-shell DLPNO
   Barbara Sandhoefer     : DKH picture change effects
   Avijit Sen             : IP-ROCIS
   Kantharuban Sivalingam : CASSCF convergence, NEVPT2, FIC-MRCI
   Bernardo de Souza      : ESD, SOC TD-DFT
   Georgi Stoychev        : AutoAux, RI-MP2 NMR
   Willem Van den Heuvel  : Paramagnetic NMR
   Boris Wezisla          : Elementary symmetry handling
   Frank Wennmohs         : Technical directorship


 We gratefully acknowledge several colleagues who have allowed us to
 interface, adapt or use parts of their codes:
   Stefan Grimme, W. Hujo, H. Kruse,             : VdW corrections, initial TS optimization,
                  C. Bannwarth                     DFT functionals, gCP, sTDA/sTD-DF
   Ed Valeev                                     : LibInt (2-el integral package), F12 methods
   Garnet Chan, S. Sharma, J. Yang, R. Olivares  : DMRG
   Ulf Ekstrom                                   : XCFun DFT Library
   Mihaly Kallay                                 : mrcc  (arbitrary order and MRCC methods)
   Andreas Klamt, Michael Diedenhofen            : otool_cosmo (COSMO solvation model)
   Jiri Pittner, Ondrej Demel                    : Mk-CCSD
   Frank Weinhold                                : gennbo (NPA and NBO analysis)
   Christopher J. Cramer and Donald G. Truhlar   : smd solvation model
   Lars Goerigk                                  : TD-DFT with DH, B97 family of functionals
   V. Asgeirsson, H. Jonsson                     : NEB implementation
   FAccTs GmbH                                   : IRC, NEB, NEB-TS, Multilevel


 Your calculation uses the libint2 library for the computation of 2-el integrals
 For citations please refer to: http://libint.valeyev.net

 This ORCA versions uses:
   CBLAS   interface :  Fast vector & matrix operations
   LAPACKE interface :  Fast linear algebra routines
   SCALAPACK package :  Parallel linear algebra routines




***************************************
The coordinates will be read from file: /Users/lailaal-madhagi/Desktop/Testing_XAS_Analysis_code/Phenol/Phenol_geom.xyz
***************************************


----- Orbital basis set information -----
Your calculation utilizes the basis: 6-31G*
   H-He, Li-Ne : W. J. Hehre, R. Ditchfield and J.A. Pople, J. Chem. Phys. 56, 2257 (1972).
                 Note: He and Ne are unpublished basis sets taken from the Gaussian program.
                 Note: Li and B from J. D. Dill and J. A. Pople, J. Chem. Phys. 62, 2921 (1975).
   Na - Ar     : M. M. Francl, W. J. Pietro, W. J. Hehre, J. S. Binkley, M. S. Gordon, 
                 D. J. DeFrees and J. A. Pople, J. Chem. Phys. 77, 3654 (1982).
   K - Zn      : V. A. Rassolov, J. A. Pople, M. A. Ratner, and T. L. Windus, J. Chem. Phys. 109, 1223 (1998).

================================================================================
                                        WARNINGS
                       Please study these warnings very carefully!
================================================================================


WARNING: Geometry Optimization
  ===> : Switching off AutoStart
         For restart on a previous wavefunction, please use MOREAD

INFO   : the flag for use of LIBINT has been found!

================================================================================
                                       INPUT FILE
================================================================================
NAME = /Users/lailaal-madhagi/Desktop/Testing_XAS_Analysis_code/Phenol//Results_dir_Phenol_geom_element_O_2019-11-16_18-22-27//GTE1_Phenol_geom_2019-11-16_18-22-42//opt.inp
|  1> ! B3LYP 6-31G* TIGHTSCF Grid3 FinalGrid5 Opt 
|  2> !NormalPrint 
|  3> %output 
|  4> Print[P_Basis] 2 
|  5> Print[P_MOS] 1 
|  6> end 
|  7> *xyzfile 0 1 /Users/lailaal-madhagi/Desktop/Testing_XAS_Analysis_code/Phenol/Phenol_geom.xyz                           ****END OF INPUT****
================================================================================

                       *****************************
                       * Geometry Optimization Run *
                       *****************************

Geometry optimization settings:
Update method            Update   .... BFGS
Choice of coordinates    CoordSys .... Z-matrix Internals
Initial Hessian          InHess   .... Almoef's Model

Convergence Tolerances:
Energy Change            TolE     ....  5.0000e-06 Eh
Max. Gradient            TolMAXG  ....  3.0000e-04 Eh/bohr
RMS Gradient             TolRMSG  ....  1.0000e-04 Eh/bohr
Max. Displacement        TolMAXD  ....  4.0000e-03 bohr
RMS Displacement         TolRMSD  ....  2.0000e-03 bohr

------------------------------------------------------------------------------
                        ORCA OPTIMIZATION COORDINATE SETUP
------------------------------------------------------------------------------

The optimization will be done in new redundant internal coordinates
Making redundant internal coordinates   ...  (new redundants) done
Evaluating the initial hessian          ...  (Almloef) done
Evaluating the coordinates              ...  done
Calculating the B-matrix                .... done
Calculating the G-matrix                .... done
Diagonalizing the G-matrix              .... done
The first mode is                       ....   25
The number of degrees of freedom        ....   33

    -----------------------------------------------------------------
                    Redundant Internal Coordinates


    -----------------------------------------------------------------
         Definition                    Initial Value    Approx d2E/dq
    -----------------------------------------------------------------
      1. B(C   1,C   0)                  1.4005         0.601201   
      2. B(C   2,C   0)                  1.3989         0.604808   
      3. B(C   3,C   2)                  1.3983         0.605981   
      4. B(C   4,C   3)                  1.3983         0.606049   
      5. B(C   5,C   4)                  1.3988         0.604906   
      6. B(C   5,C   1)                  1.4041         0.593156   
      7. B(O   6,C   1)                  1.3483         0.652299   
      8. B(H   7,O   6)                  0.9679         0.505123   
      9. B(H   8,C   0)                  1.0828         0.369789   
     10. B(H   9,C   2)                  1.0824         0.370353   
     11. B(H  10,C   3)                  1.0823         0.370371   
     12. B(H  11,C   4)                  1.0824         0.370359   
     13. B(H  12,C   5)                  1.0827         0.369851   
     14. A(C   2,C   0,H   8)          119.7066         0.353013   
     15. A(C   1,C   0,H   8)          120.1327         0.352656   
     16. A(C   1,C   0,C   2)          120.1607         0.429751   
     17. A(C   0,C   1,O   6)          119.5278         0.432779   
     18. A(C   0,C   1,C   5)          119.6528         0.428254   
     19. A(C   5,C   1,O   6)          120.8194         0.431732   
     20. A(C   0,C   2,H   9)          119.9788         0.353104   
     21. A(C   0,C   2,C   3)          120.0509         0.430362   
     22. A(C   3,C   2,H   9)          119.9703         0.353220   
     23. A(C   2,C   3,H  10)          119.9959         0.353223   
     24. A(C   2,C   3,C   4)          120.0083         0.430521   
     25. A(C   4,C   3,H  10)          119.9958         0.353229   
     26. A(C   3,C   4,C   5)          120.0463         0.430383   
     27. A(C   5,C   4,H  11)          119.9835         0.353115   
     28. A(C   3,C   4,H  11)          119.9702         0.353228   
     29. A(C   1,C   5,C   4)          120.0810         0.428726   
     30. A(C   4,C   5,H  12)          119.5596         0.353033   
     31. A(C   1,C   5,H  12)          120.3594         0.351863   
     32. A(C   1,O   6,H   7)          122.1073         0.371509   
     33. D(O   6,C   1,C   0,C   2)   -179.9996         0.024922   
     34. D(O   6,C   1,C   0,H   8)      0.0000         0.024922   
     35. D(C   5,C   1,C   0,H   8)    179.9996         0.024922   
     36. D(C   5,C   1,C   0,C   2)     -0.0000         0.024922   
     37. D(H   9,C   2,C   0,C   1)    180.0000         0.025239   
     38. D(C   3,C   2,C   0,C   1)     -0.0003         0.025239   
     39. D(C   3,C   2,C   0,H   8)   -179.9999         0.025239   
     40. D(H   9,C   2,C   0,H   8)      0.0004         0.025239   
     41. D(H  10,C   3,C   2,H   9)     -0.0006         0.025342   
     42. D(H  10,C   3,C   2,C   0)    179.9996         0.025342   
     43. D(C   4,C   3,C   2,H   9)    180.0000         0.025342   
     44. D(C   4,C   3,C   2,C   0)      0.0002         0.025342   
     45. D(H  11,C   4,C   3,C   2)    179.9998         0.025348   
     46. D(C   5,C   4,C   3,H  10)   -179.9993         0.025348   
     47. D(C   5,C   4,C   3,C   2)      0.0001         0.025348   
     48. D(H  11,C   4,C   3,H  10)      0.0004         0.025348   
     49. D(H  12,C   5,C   4,H  11)      0.0007         0.025248   
     50. D(C   1,C   5,C   4,H  11)    179.9999         0.025248   
     51. D(C   1,C   5,C   4,C   3)     -0.0004         0.025248   
     52. D(H  12,C   5,C   1,O   6)     -0.0009         0.024225   
     53. D(H  12,C   5,C   1,C   0)    179.9995         0.024225   
     54. D(H  12,C   5,C   4,C   3)   -179.9996         0.025248   
     55. D(C   4,C   5,C   1,O   6)    179.9999         0.024225   
     56. D(C   4,C   5,C   1,C   0)      0.0003         0.024225   
     57. D(H   7,O   6,C   1,C   5)     -0.0002         0.031464   
     58. D(H   7,O   6,C   1,C   0)    179.9994         0.031464   
    -----------------------------------------------------------------

Number of atoms                         .... 13
Number of degrees of freedom            .... 58

         *************************************************************
         *                GEOMETRY OPTIMIZATION CYCLE   1            *
         *************************************************************
---------------------------------
CARTESIAN COORDINATES (ANGSTROEM)
---------------------------------
  C     -3.022320    0.998920    0.002280
  C     -1.913700    1.854630    0.010300
  C     -2.839660   -0.387950   -0.001030
  C     -1.548240   -0.924160    0.003660
  C     -0.438080   -0.074040    0.011670
  C     -0.618180    1.313120    0.015000
  O     -2.104510    3.189330    0.013420
  H     -1.365730    3.814600    0.018940
  H     -4.024790    1.408110   -0.001380
  H     -3.698550   -1.046560   -0.007230
  H     -1.407940   -1.997370    0.001100
  H      0.561250   -0.489750    0.015300
  H      0.247000    1.964060    0.021200

----------------------------
CARTESIAN COORDINATES (A.U.)
----------------------------
  NO LB      ZA    FRAG     MASS         X           Y           Z
   0 C     6.0000    0    12.011   -5.711357    1.887685    0.004309
   1 C     6.0000    0    12.011   -3.616369    3.504743    0.019464
   2 C     6.0000    0    12.011   -5.366180   -0.733119   -0.001946
   3 C     6.0000    0    12.011   -2.925750   -1.746409    0.006916
   4 C     6.0000    0    12.011   -0.827851   -0.139915    0.022053
   5 C     6.0000    0    12.011   -1.168191    2.481437    0.028346
   6 O     8.0000    0    15.999   -3.976948    6.026960    0.025360
   7 H     1.0000    0     1.008   -2.580856    7.208549    0.035791
   8 H     1.0000    0     1.008   -7.605751    2.660942   -0.002608
   9 H     1.0000    0     1.008   -6.989247   -1.977712   -0.013663
  10 H     1.0000    0     1.008   -2.660621   -3.774482    0.002079
  11 H     1.0000    0     1.008    1.060609   -0.925493    0.028913
  12 H     1.0000    0     1.008    0.466762    3.711536    0.040062

--------------------------------
INTERNAL COORDINATES (ANGSTROEM)
--------------------------------
 C      0   0   0     0.000000000000     0.00000000     0.00000000
 C      1   0   0     1.400479285423     0.00000000     0.00000000
 C      1   2   0     1.398850967258   120.16066553     0.00000000
 C      3   1   2     1.398323559338   120.05093993     0.00000000
 C      4   3   1     1.398293030842   120.00827355     0.00000000
 C      5   4   3     1.398806621553   120.04630154     0.00000000
 O      2   1   3     1.348273815106   119.52777818   180.00039231
 H      7   2   1     0.967878572808   122.10734733   179.99941309
 H      1   2   3     1.082772345694   120.13270222   179.99962302
 H      3   1   2     1.082357429041   119.97875500   179.99998536
 H      4   3   1     1.082344837702   119.99589146   179.99960109
 H      5   4   3     1.082353190922   119.97020968   179.99980847
 H      6   5   4     1.082726999756   119.55963212   180.00044193

---------------------------
INTERNAL COORDINATES (A.U.)
---------------------------
 C      0   0   0     0.000000000000     0.00000000     0.00000000
 C      1   0   0     2.646522305680     0.00000000     0.00000000
 C      1   2   0     2.643445230289   120.16066553     0.00000000
 C      3   1   2     2.642448573759   120.05093993     0.00000000
 C      4   3   1     2.642390883261   120.00827355     0.00000000
 C      5   4   3     2.643361429050   120.04630154     0.00000000
 O      2   1   3     2.547868264087   119.52777818   180.00039231
 H      7   2   1     1.829025433497   122.10734733   179.99941309
 H      1   2   3     2.046143198745   120.13270222   179.99962302
 H      3   1   2     2.045359119902   119.97875500   179.99998536
 H      4   3   1     2.045335325720   119.99589146   179.99960109
 H      5   4   3     2.045351111019   119.97020968   179.99980847
 H      6   5   4     2.046057507341   119.55963212   180.00044193

---------------------
BASIS SET INFORMATION
---------------------
There are 3 groups of distinct atoms

 Group   1 Type C   : 10s4p1d contracted to 3s2p1d pattern {631/31/1}
 Group   2 Type O   : 10s4p1d contracted to 3s2p1d pattern {631/31/1}
 Group   3 Type H   : 4s contracted to 2s pattern {31}

Atom   0C    basis set group =>   1
Atom   1C    basis set group =>   1
Atom   2C    basis set group =>   1
Atom   3C    basis set group =>   1
Atom   4C    basis set group =>   1
Atom   5C    basis set group =>   1
Atom   6O    basis set group =>   2
Atom   7H    basis set group =>   3
Atom   8H    basis set group =>   3
Atom   9H    basis set group =>   3
Atom  10H    basis set group =>   3
Atom  11H    basis set group =>   3
Atom  12H    basis set group =>   3

-------------------------
BASIS SET IN INPUT FORMAT
-------------------------

 # Basis set for element : H 
 NewGTO H 
 S 3 
   1      18.7311370000      0.0334945995
   2       2.8253937000      0.2347269467
   3       0.6401217000      0.8137573184
 S 1 
   1       0.1612778000      1.0000000000
  end;

 # Basis set for element : C 
 NewGTO C 
 S 6 
   1    3047.5249000000      0.0018347002
   2     457.3695100000      0.0140373012
   3     103.9486900000      0.0688426061
   4      29.2101550000      0.2321844206
   5       9.2866630000      0.4679413416
   6       3.1639270000      0.3623120322
 S 3 
   1       7.8682724000     -0.1193324086
   2       1.8812885000     -0.1608542116
   3       0.5442493000      1.1434564826
 P 3 
   1       7.8682724000      0.0689990956
   2       1.8812885000      0.3164239798
   3       0.5442493000      0.7443082524
 S 1 
   1       0.1687144000      1.0000000000
 P 1 
   1       0.1687144000      1.0000000000
 D 1 
   1       0.8000000000      1.0000000000
  end;

 # Basis set for element : O 
 NewGTO O 
 S 6 
   1    5484.6717000000      0.0018310998
   2     825.2349500000      0.0139500985
   3     188.0469600000      0.0684450927
   4      52.9645000000      0.2327142753
   5      16.8975700000      0.4701929501
   6       5.7996353000      0.3585208619
 S 3 
   1      15.5396160000     -0.1107775038
   2       3.5999336000     -0.1480263051
   3       1.0137618000      1.1307670390
 P 3 
   1      15.5396160000      0.0708742995
   2       3.5999336000      0.3397527978
   3       1.0137618000      0.7271585953
 S 1 
   1       0.2700058000      1.0000000000
 P 1 
   1       0.2700058000      1.0000000000
 D 1 
   1       0.8000000000      1.0000000000
  end;

------------------------------------------------------------------------------
                           ORCA GTO INTEGRAL CALCULATION
------------------------------------------------------------------------------

                         BASIS SET STATISTICS AND STARTUP INFO

 # of primitive gaussian shells          ...  129
 # of primitive gaussian functions       ...  213
 # of contracted shells                  ...   54
 # of contracted basis functions         ...  110
 Highest angular momentum                ...    2
 Maximum contraction depth               ...    6
 Integral package used                   ... LIBINT
 Integral threshhold            Thresh   ...  2.500e-11
 Primitive cut-off              TCut     ...  2.500e-12


------------------------------ INTEGRAL EVALUATION ----------------------------


 * One electron integrals 
 Pre-screening matrix                    ... done
 Shell pair data                         ... done (   0.002 sec)

-------------------------------------------------------------------------------
                                 ORCA SCF
-------------------------------------------------------------------------------

------------
SCF SETTINGS
------------
Hamiltonian:
 Density Functional     Method          .... DFT(GTOs)
 Exchange Functional    Exchange        .... B88
   X-Alpha parameter    XAlpha          ....  0.666667
   Becke's b parameter  XBeta           ....  0.004200
 Correlation Functional Correlation     .... LYP
 LDA part of GGA corr.  LDAOpt          .... VWN-5
 Gradients option       PostSCFGGA      .... off
 Hybrid DFT is turned on
   Fraction HF Exchange ScalHFX         ....  0.200000
   Scaling of DF-GGA-X  ScalDFX         ....  0.720000
   Scaling of DF-GGA-C  ScalDFC         ....  0.810000
   Scaling of DF-LDA-C  ScalLDAC        ....  1.000000
   Perturbative correction              ....  0.000000
   Density functional embedding theory  .... OFF
   NL short-range parameter             ....  4.800000


General Settings:
 Integral files         IntName         .... /Users/lailaal-madhagi/Desktop/Testing_XAS_Analysis_code/Phenol//Results_dir_Phenol_geom_element_O_2019-11-16_18-22-27//GTE1_Phenol_geom_2019-11-16_18-22-42//opt
 Hartree-Fock type      HFTyp           .... RHF
 Total Charge           Charge          ....    0
 Multiplicity           Mult            ....    1
 Number of Electrons    NEL             ....   50
 Basis Dimension        Dim             ....  110
 Nuclear Repulsion      ENuc            ....    270.5936405742 Eh

Convergence Acceleration:
 DIIS                   CNVDIIS         .... on
   Start iteration      DIISMaxIt       ....    12
   Startup error        DIISStart       ....  0.200000
   # of expansion vecs  DIISMaxEq       ....     5
   Bias factor          DIISBfac        ....   1.050
   Max. coefficient     DIISMaxC        ....  10.000
 Newton-Raphson         CNVNR           .... off
 SOSCF                  CNVSOSCF        .... on
   Start iteration      SOSCFMaxIt      ....   150
   Startup grad/error   SOSCFStart      ....  0.003300
 Level Shifting         CNVShift        .... on
   Level shift para.    LevelShift      ....    0.2500
   Turn off err/grad.   ShiftErr        ....    0.0010
 Zerner damping         CNVZerner       .... off
 Static damping         CNVDamp         .... on
   Fraction old density DampFac         ....    0.7000
   Max. Damping (<1)    DampMax         ....    0.9800
   Min. Damping (>=0)   DampMin         ....    0.0000
   Turn off err/grad.   DampErr         ....    0.1000
 Fernandez-Rico         CNVRico         .... off

SCF Procedure:
 Maximum # iterations   MaxIter         ....   125
 SCF integral mode      SCFMode         .... Direct
   Integral package                     .... LIBINT
 Reset frequency        DirectResetFreq ....    20
 Integral Threshold     Thresh          ....  2.500e-11 Eh
 Primitive CutOff       TCut            ....  2.500e-12 Eh

Convergence Tolerance:
 Convergence Check Mode ConvCheckMode   .... Total+1el-Energy
 Convergence forced     ConvForced      .... 0
 Energy Change          TolE            ....  1.000e-08 Eh
 1-El. energy change                    ....  1.000e-05 Eh
 Orbital Gradient       TolG            ....  1.000e-05
 Orbital Rotation angle TolX            ....  1.000e-05
 DIIS Error             TolErr          ....  5.000e-07


Diagonalization of the overlap matrix:
Smallest eigenvalue                        ... 5.267e-04
Time for diagonalization                   ...    0.002 sec
Threshold for overlap eigenvalues          ... 1.000e-08
Number of eigenvalues below threshold      ... 0
Time for construction of square roots      ...    0.001 sec
Total time needed                          ...    0.003 sec

-------------------
DFT GRID GENERATION
-------------------

General Integration Accuracy     IntAcc      ...  4.340
Radial Grid Type                 RadialGrid  ... Gauss-Chebyshev
Angular Grid (max. acc.)         AngularGrid ... Lebedev-194
Angular grid pruning method      GridPruning ... 3 (G Style)
Weight generation scheme         WeightScheme... Becke
Basis function cutoff            BFCut       ...    1.0000e-11
Integration weight cutoff        WCut        ...    1.0000e-14
Grids for H and He will be reduced by one unit

# of grid points (after initial pruning)     ...  32182 (   0.0 sec)
# of grid points (after weights+screening)   ...  29936 (   0.0 sec)
nearest neighbour list constructed           ...    0.0 sec
Grid point re-assignment to atoms done       ...    0.0 sec
Grid point division into batches done        ...    0.0 sec
Reduced shell lists constructed in    0.2 sec

Total number of grid points                  ...    29936
Total number of batches                      ...      474
Average number of points per batch           ...       63
Average number of grid points per atom       ...     2303
Average number of shells per batch           ...    39.49 (73.14%)
Average number of basis functions per batch  ...    82.97 (75.43%)
Average number of large shells per batch     ...    31.54 (79.87%)
Average number of large basis fcns per batch ...    66.60 (80.27%)
Maximum spatial batch extension              ...  16.92, 18.97, 23.28 au
Average spatial batch extension              ...   3.15,  3.09,  3.96 au

Time for grid setup =    0.228 sec

------------------------------
INITIAL GUESS: MODEL POTENTIAL
------------------------------
Loading Hartree-Fock densities                     ... done
Calculating cut-offs                               ... done
Setting up the integral package                    ... done
Initializing the effective Hamiltonian             ... done
Starting the Coulomb interaction                   ... done (   0.0 sec)
Reading the grid                                   ... done
Mapping shells                                     ... done
Starting the XC term evaluation                    ... done (   0.2 sec)
  promolecular density results
     # of electrons  =     49.996569330
     EX              =    -40.824578085
     EC              =     -1.680233670
     EX+EC           =    -42.504811755
Transforming the Hamiltonian                       ... done (   0.0 sec)
Diagonalizing the Hamiltonian                      ... done (   0.0 sec)
Back transforming the eigenvectors                 ... done (   0.0 sec)
Now organizing SCF variables                       ... done
                      ------------------
                      INITIAL GUESS DONE (   0.6 sec)
                      ------------------
--------------
SCF ITERATIONS
--------------
               ***  Starting incremental Fock matrix formation  ***

                         ----------------------------
                         !        ITERATION     0   !
                         ----------------------------
   Total Energy        :    -307.083805558393 Eh
   Energy Change       :    -307.083805558393 Eh
   MAX-DP              :       0.067321470468
   RMS-DP              :       0.002809778690
   Actual Damping      :       0.7000
   Actual Level Shift  :       0.2500 Eh
   Int. Num. El.       :    49.99959571 (UP=   24.99979786 DN=   24.99979786)
   Exchange            :   -33.47381684
   Correlation         :    -2.00964440


                         ----------------------------
                         !        ITERATION     1   !
                         ----------------------------
   Total Energy        :    -307.167362777385 Eh
   Energy Change       :      -0.083557218992 Eh
   MAX-DP              :       0.040871892944
   RMS-DP              :       0.002034002513
   Actual Damping      :       0.7000
   Actual Level Shift  :       0.2500 Eh
   Int. Num. El.       :    49.99953008 (UP=   24.99976504 DN=   24.99976504)
   Exchange            :   -33.23697954
   Correlation         :    -1.99991418

                               ***Turning on DIIS***

                         ----------------------------
                         !        ITERATION     2   !
                         ----------------------------
   Total Energy        :    -307.203304185365 Eh
   Energy Change       :      -0.035941407980 Eh
   MAX-DP              :       0.063336219017
   RMS-DP              :       0.003419603946
   Actual Damping      :       0.0000
   Actual Level Shift  :       0.2500 Eh
   Int. Num. El.       :    49.99948651 (UP=   24.99974325 DN=   24.99974325)
   Exchange            :   -33.08094742
   Correlation         :    -1.99313302
   DIIS-Error          :       0.034849514922


                         ----------------------------
                         !        ITERATION     3   !
                         ----------------------------
   Total Energy        :    -307.255326576300 Eh
   Energy Change       :      -0.052022390935 Eh
   MAX-DP              :       0.026531973340
   RMS-DP              :       0.001391716498
   Actual Damping      :       0.0000
   Actual Level Shift  :       0.2500 Eh
   Int. Num. El.       :    49.99942239 (UP=   24.99971120 DN=   24.99971120)
   Exchange            :   -32.84410512
   Correlation         :    -1.98232262
   DIIS-Error          :       0.049141004027
   DIIS coefficients:
      0.56805   0.43195


                         ----------------------------
                         !        ITERATION     4   !
                         ----------------------------
   Total Energy        :    -307.268206528389 Eh
   Energy Change       :      -0.012879952090 Eh
   MAX-DP              :       0.011473734887
   RMS-DP              :       0.000450732210
   Actual Damping      :       0.0000
   Actual Level Shift  :       0.2500 Eh
   Int. Num. El.       :    49.99945160 (UP=   24.99972580 DN=   24.99972580)
   Exchange            :   -32.93920255
   Correlation         :    -1.98679392
   DIIS-Error          :       0.008731530095
   DIIS coefficients:
      0.17143  -0.02155   0.85012


                         ----------------------------
                         !        ITERATION     5   !
                         ----------------------------
   Total Energy        :    -307.268867030992 Eh
   Energy Change       :      -0.000660502603 Eh
   MAX-DP              :       0.002990740904
   RMS-DP              :       0.000143556858
   Actual Damping      :       0.0000
   Actual Level Shift  :       0.2500 Eh
   Int. Num. El.       :    49.99945965 (UP=   24.99972982 DN=   24.99972982)
   Exchange            :   -32.95925806
   Correlation         :    -1.98785852
   DIIS-Error          :       0.004874972101
   DIIS coefficients:
      0.05894  -0.02791   0.26973   0.69924

                      *** Initiating the SOSCF procedure ***
                           *** Shutting down DIIS ***
                      *** Re-Reading the Fockian *** 
                      *** Removing any level shift *** 

                         ----------------------------
                         !        ITERATION     6   !
                         ----------------------------
   Total Energy        :    -307.268916476131 Eh
   Energy Change       :      -0.000049445138 Eh
   MAX-DP              :       0.001244301824
   RMS-DP              :       0.000057042536
   Orbital gradient    :       0.000214300106
   Orbital Rotation    :       0.000214300106
   Actual Damping      :       0.0000
   Int. Num. El.       :    49.99946105 (UP=   24.99973053 DN=   24.99973053)
   Exchange            :   -32.96544157
   Correlation         :    -1.98809058

               *** Restarting incremental Fock matrix formation ***

                         ----------------------------
                         !        ITERATION     7   !
                         ----------------------------
   Total Energy        :    -307.268918171952 Eh
   Energy Change       :      -0.000001695821 Eh
   MAX-DP              :       0.000814765388
   RMS-DP              :       0.000030336249
   Orbital gradient    :       0.000238285350
   Orbital Rotation    :       0.001013230564
   Actual Damping      :       0.0000
   Int. Num. El.       :    49.99946114 (UP=   24.99973057 DN=   24.99973057)
   Exchange            :   -32.96554086
   Correlation         :    -1.98810640


                         ----------------------------
                         !        ITERATION     8   !
                         ----------------------------
   Total Energy        :    -307.268916792421 Eh
   Energy Change       :       0.000001379531 Eh
   MAX-DP              :       0.000557755003
   RMS-DP              :       0.000019315433
   Orbital gradient    :       0.000473625498
   Orbital Rotation    :       0.000691887585
   Actual Damping      :       0.0000
   Int. Num. El.       :    49.99946136 (UP=   24.99973068 DN=   24.99973068)
   Exchange            :   -32.96569798
   Correlation         :    -1.98810635


                         ----------------------------
                         !        ITERATION     9   !
                         ----------------------------
   Total Energy        :    -307.268918730122 Eh
   Energy Change       :      -0.000001937701 Eh
   MAX-DP              :       0.000104425310
   RMS-DP              :       0.000002767811
   Orbital gradient    :       0.000021991025
   Orbital Rotation    :       0.000079383924
   Actual Damping      :       0.0000
   Int. Num. El.       :    49.99946118 (UP=   24.99973059 DN=   24.99973059)
   Exchange            :   -32.96552962
   Correlation         :    -1.98810355


                         ----------------------------
                         !        ITERATION    10   !
                         ----------------------------
   Total Energy        :    -307.268918721630 Eh
   Energy Change       :       0.000000008492 Eh
   MAX-DP              :       0.000063118686
   RMS-DP              :       0.000001648150
   Orbital gradient    :       0.000030830195
   Orbital Rotation    :       0.000047136925
   Actual Damping      :       0.0000
   Int. Num. El.       :    49.99946122 (UP=   24.99973061 DN=   24.99973061)
   Exchange            :   -32.96558032
   Correlation         :    -1.98810629


                         ----------------------------
                         !        ITERATION    11   !
                         ----------------------------
   Total Energy        :    -307.268918737498 Eh
   Energy Change       :      -0.000000015868 Eh
   MAX-DP              :       0.000010672084
   RMS-DP              :       0.000000310199
   Orbital gradient    :       0.000002816854
   Orbital Rotation    :       0.000003373464
   Actual Damping      :       0.0000
   Int. Num. El.       :    49.99946120 (UP=   24.99973060 DN=   24.99973060)
   Exchange            :   -32.96556648
   Correlation         :    -1.98810529


                         ----------------------------
                         !        ITERATION    12   !
                         ----------------------------
   Total Energy        :    -307.268918736712 Eh
   Energy Change       :       0.000000000786 Eh
   MAX-DP              :       0.000006031306
   RMS-DP              :       0.000000176002
   Orbital gradient    :       0.000003889314
   Orbital Rotation    :       0.000002525565
   Actual Damping      :       0.0000
   Int. Num. El.       :    49.99946120 (UP=   24.99973060 DN=   24.99973060)
   Exchange            :   -32.96554686
   Correlation         :    -1.98810452

                  ***Gradient check signals convergence***
              ***Rediagonalizing the Fockian in SOSCF/NRSCF***

               *****************************************************
               *                     SUCCESS                       *
               *           SCF CONVERGED AFTER  13 CYCLES          *
               *****************************************************

Setting up the final grid:

General Integration Accuracy     IntAcc      ...  5.010
Radial Grid Type                 RadialGrid  ... Gauss-Chebyshev
Angular Grid (max. acc.)         AngularGrid ... Lebedev-434
Angular grid pruning method      GridPruning ... 3 (G Style)
Weight generation scheme         WeightScheme... Becke
Basis function cutoff            BFCut       ...    1.0000e-11
Integration weight cutoff        WCut        ...    1.0000e-14
Grids for H and He will be reduced by one unit

# of grid points (after initial pruning)     ... 115182 (   0.0 sec)
# of grid points (after weights+screening)   ... 106370 (   0.1 sec)
nearest neighbour list constructed           ...    0.0 sec
Grid point re-assignment to atoms done       ...    0.0 sec
Grid point division into batches done        ...    0.6 sec
Reduced shell lists constructed in    1.0 sec

Total number of grid points                  ...   106370
Total number of batches                      ...     1670
Average number of points per batch           ...       63
Average number of grid points per atom       ...     8182
Average number of shells per batch           ...    36.44 (67.48%)
Average number of basis functions per batch  ...    76.41 (69.47%)
Average number of large shells per batch     ...    28.72 (78.80%)
Average number of large basis fcns per batch ...    60.35 (78.99%)
Maximum spatial batch extension              ...  15.39, 16.34, 22.90 au
Average spatial batch extension              ...   2.12,  2.09,  2.35 au

Final grid set up in    1.2 sec
Final integration                            ... done (   0.7 sec)
Change in XC energy                          ...    -0.000092180
Integrated number of electrons               ...    49.999984616
Previous integrated no of electrons          ...    49.999461199

----------------
TOTAL SCF ENERGY
----------------

Total Energy       :         -307.26901092 Eh           -8361.21486 eV

Components:
Nuclear Repulsion  :          270.59364057 Eh            7363.22730 eV
Electronic Energy  :         -577.86265149 Eh          -15724.44216 eV
One Electron Energy:         -951.83750494 Eh          -25900.81528 eV
Two Electron Energy:          373.97485345 Eh           10176.37312 eV

Virial components:
Potential Energy   :         -612.75177289 Eh          -16673.82342 eV
Kinetic Energy     :          305.48276197 Eh            8312.60856 eV
Virial Ratio       :            2.00584730


DFT components:
N(Alpha)           :       24.999992307825 electrons
N(Beta)            :       24.999992307825 electrons
N(Total)           :       49.999984615649 electrons
E(X)               :      -32.965659021893 Eh       
E(C)               :       -1.988095243625 Eh       
E(XC)              :      -34.953754265518 Eh       
DFET-embed. en.    :        0.000000000000 Eh       

---------------
SCF CONVERGENCE
---------------

  Last Energy change         ...   -7.8808e-10  Tolerance :   1.0000e-08
  Last MAX-Density change    ...    1.0655e-06  Tolerance :   1.0000e-07
  Last RMS-Density change    ...    5.0414e-08  Tolerance :   5.0000e-09
  Last Orbital Gradient      ...    2.6385e-07  Tolerance :   1.0000e-05
  Last Orbital Rotation      ...    8.9971e-07  Tolerance :   1.0000e-05

             **** THE GBW FILE WAS UPDATED (/Users/lailaal-madhagi/Desktop/Testing_XAS_Analysis_code/Phenol//Results_dir_Phenol_geom_element_O_2019-11-16_18-22-27//GTE1_Phenol_geom_2019-11-16_18-22-42//opt.gbw) ****
             **** DENSITY FILE WAS UPDATED (/Users/lailaal-madhagi/Desktop/Testing_XAS_Analysis_code/Phenol//Results_dir_Phenol_geom_element_O_2019-11-16_18-22-27//GTE1_Phenol_geom_2019-11-16_18-22-42//opt.scfp.tmp) ****
             **** ENERGY FILE WAS UPDATED (/Users/lailaal-madhagi/Desktop/Testing_XAS_Analysis_code/Phenol//Results_dir_Phenol_geom_element_O_2019-11-16_18-22-27//GTE1_Phenol_geom_2019-11-16_18-22-42//opt.en.tmp) ****
----------------
ORBITAL ENERGIES
----------------

  NO   OCC          E(Eh)            E(eV) 
   0   2.0000     -19.162280      -521.4321 
   1   2.0000     -10.241470      -278.6846 
   2   2.0000     -10.177555      -276.9453 
   3   2.0000     -10.177149      -276.9343 
   4   2.0000     -10.173595      -276.8376 
   5   2.0000     -10.171283      -276.7747 
   6   2.0000     -10.167852      -276.6813 
   7   2.0000      -1.052181       -28.6313 
   8   2.0000      -0.837098       -22.7786 
   9   2.0000      -0.737765       -20.0756 
  10   2.0000      -0.729542       -19.8519 
  11   2.0000      -0.620176       -16.8758 
  12   2.0000      -0.597309       -16.2536 
  13   2.0000      -0.544013       -14.8033 
  14   2.0000      -0.488526       -13.2935 
  15   2.0000      -0.455413       -12.3924 
  16   2.0000      -0.433251       -11.7893 
  17   2.0000      -0.414253       -11.2724 
  18   2.0000      -0.399780       -10.8786 
  19   2.0000      -0.368598       -10.0301 
  20   2.0000      -0.351505        -9.5649 
  21   2.0000      -0.324748        -8.8369 
  22   2.0000      -0.324615        -8.8332 
  23   2.0000      -0.242006        -6.5853 
  24   2.0000      -0.211684        -5.7602 
  25   0.0000       0.006524         0.1775 
  26   0.0000       0.023517         0.6399 
  27   0.0000       0.069412         1.8888 
  28   0.0000       0.100456         2.7336 
  29   0.0000       0.150964         4.1079 
  30   0.0000       0.162280         4.4159 
  31   0.0000       0.174831         4.7574 
  32   0.0000       0.193631         5.2690 
  33   0.0000       0.195330         5.3152 
  34   0.0000       0.258909         7.0453 
  35   0.0000       0.300973         8.1899 
  36   0.0000       0.312272         8.4973 
  37   0.0000       0.349584         9.5127 
  38   0.0000       0.357196         9.7198 
  39   0.0000       0.490097        13.3362 
  40   0.0000       0.512349        13.9417 
  41   0.0000       0.530864        14.4455 
  42   0.0000       0.559103        15.2140 
  43   0.0000       0.569336        15.4924 
  44   0.0000       0.604554        16.4507 
  45   0.0000       0.606578        16.5058 
  46   0.0000       0.610760        16.6196 
  47   0.0000       0.613801        16.7024 
  48   0.0000       0.627361        17.0714 
  49   0.0000       0.630057        17.1447 
  50   0.0000       0.648682        17.6515 
  51   0.0000       0.670521        18.2458 
  52   0.0000       0.680885        18.5278 
  53   0.0000       0.763811        20.7843 
  54   0.0000       0.777938        21.1688 
  55   0.0000       0.847316        23.0566 
  56   0.0000       0.847849        23.0711 
  57   0.0000       0.862206        23.4618 
  58   0.0000       0.877615        23.8811 
  59   0.0000       0.896983        24.4082 
  60   0.0000       0.939405        25.5625 
  61   0.0000       0.950531        25.8653 
  62   0.0000       0.960181        26.1278 
  63   0.0000       0.985270        26.8106 
  64   0.0000       0.994754        27.0686 
  65   0.0000       1.044843        28.4316 
  66   0.0000       1.107624        30.1400 
  67   0.0000       1.123645        30.5759 
  68   0.0000       1.184589        32.2343 
  69   0.0000       1.207036        32.8451 
  70   0.0000       1.256349        34.1870 
  71   0.0000       1.354353        36.8538 
  72   0.0000       1.363026        37.0898 
  73   0.0000       1.400234        38.1023 
  74   0.0000       1.449254        39.4362 
  75   0.0000       1.463716        39.8297 
  76   0.0000       1.473426        40.0940 
  77   0.0000       1.503244        40.9053 
  78   0.0000       1.518783        41.3282 
  79   0.0000       1.723873        46.9090 
  80   0.0000       1.745965        47.5101 
  81   0.0000       1.777860        48.3780 
  82   0.0000       1.812517        49.3211 
  83   0.0000       1.866702        50.7956 
  84   0.0000       1.919614        52.2353 
  85   0.0000       1.927258        52.4434 
  86   0.0000       1.982799        53.9547 
  87   0.0000       1.983318        53.9688 
  88   0.0000       1.993084        54.2346 
  89   0.0000       2.077800        56.5398 
  90   0.0000       2.093102        56.9562 
  91   0.0000       2.150256        58.5115 
  92   0.0000       2.153142        58.5900 
  93   0.0000       2.226755        60.5931 
  94   0.0000       2.252056        61.2815 
  95   0.0000       2.311657        62.9034 
  96   0.0000       2.318698        63.0950 
  97   0.0000       2.415553        65.7305 
  98   0.0000       2.511613        68.3445 
  99   0.0000       2.531394        68.8827 
 100   0.0000       2.588216        70.4289 
 101   0.0000       2.659574        72.3707 
 102   0.0000       2.670975        72.6809 
 103   0.0000       2.721868        74.0658 
 104   0.0000       2.734972        74.4224 
 105   0.0000       2.744823        74.6904 
 106   0.0000       2.855002        77.6886 
 107   0.0000       2.954449        80.3947 
 108   0.0000       3.135618        85.3245 
 109   0.0000       3.417225        92.9874 
------------------
MOLECULAR ORBITALS
------------------
                      0         1         2         3         4         5   
                 -19.16228 -10.24147 -10.17755 -10.17715 -10.17360 -10.17128
                   2.00000   2.00000   2.00000   2.00000   2.00000   2.00000
                  --------  --------  --------  --------  --------  --------
  0C   1s         0.000086  0.002844 -0.001047  0.036018  0.000259  0.994474
  0C   2s         0.000752 -0.002207 -0.000577 -0.000841  0.000089  0.036620
  0C   1pz       -0.000000 -0.000007 -0.000001  0.000003  0.000001  0.000004
  0C   1px        0.000035 -0.000980 -0.000166 -0.000178  0.000219  0.000924
  0C   1py       -0.000108 -0.000583  0.000059  0.001306  0.000030 -0.000307
  0C   3s        -0.010963  0.018242  0.003883  0.012507  0.004267 -0.033504
  0C   2pz       -0.000027  0.000042  0.000008  0.000010  0.000006 -0.000027
  0C   2px       -0.008196  0.010929  0.002507  0.004397  0.002026 -0.006965
  0C   2py        0.004433 -0.003905 -0.001359 -0.003792 -0.001392  0.002315
  0C   1dz2       0.000193  0.000475 -0.000087  0.000582  0.000079 -0.000637
  0C   1dxz      -0.000003 -0.000007  0.000001  0.000001 -0.000000  0.000005
  0C   1dyz       0.000001 -0.000008  0.000001 -0.000005 -0.000001  0.000006
  0C   1dx2y2    -0.000326 -0.000040 -0.000009  0.001117  0.000055 -0.000332
  0C   1dxy       0.000162 -0.001061  0.000006  0.000221  0.000016  0.000311
  1C   1s        -0.000171  0.995163 -0.000112 -0.000058  0.003067 -0.003048
  1C   2s        -0.001433  0.037585 -0.000161 -0.000122  0.002225 -0.002274
  1C   1pz       -0.000000  0.000003 -0.000000  0.000001  0.000004  0.000008
  1C   1px        0.000075 -0.000227 -0.000178  0.000122  0.001215  0.001079
  1C   1py       -0.000145  0.001334  0.000146  0.000170 -0.000478  0.000799
  1C   3s         0.000683 -0.030728 -0.005205 -0.005365 -0.013311  0.013448
  1C   2pz       -0.000058  0.000043  0.000001  0.000010 -0.000007 -0.000031
  1C   2px        0.000265 -0.003871 -0.000961  0.000748 -0.004223 -0.002762
  1C   2py       -0.019522  0.020469  0.001740  0.002085  0.004552 -0.005662
  1C   1dz2       0.000130 -0.001352  0.000033  0.000016 -0.000641  0.000654
  1C   1dxz      -0.000002  0.000006  0.000000  0.000000  0.000008 -0.000011
  1C   1dyz      -0.000001  0.000008  0.000000 -0.000001 -0.000003 -0.000008
  1C   1dx2y2    -0.000076 -0.000957  0.000014  0.000088  0.000908 -0.000418
  1C   1dxy      -0.000027 -0.000320  0.000143 -0.000093 -0.000734 -0.001093
  2C   1s        -0.000025  0.000003  0.008961  0.994183 -0.002351 -0.036130
  2C   2s        -0.000055 -0.000003  0.000271  0.036311  0.000439 -0.003448
  2C   1pz        0.000001 -0.000002 -0.000001  0.000005  0.000001 -0.000004
  2C   1px        0.000072 -0.000121 -0.000269  0.000621  0.000090  0.000086
  2C   1py        0.000285 -0.000391  0.000014  0.000505  0.000109 -0.001332
  2C   3s         0.007826 -0.010274 -0.005240 -0.031886 -0.004506  0.014104
  2C   2pz        0.000019 -0.000027 -0.000015 -0.000040 -0.000017  0.000034
  2C   2px        0.002313 -0.003210 -0.002070 -0.005693 -0.002268  0.003649
  2C   2py        0.002544 -0.003573 -0.001661 -0.004138 -0.001986  0.005426
  2C   1dz2       0.000006 -0.000057 -0.000046 -0.000571  0.000095  0.000633
  2C   1dxz      -0.000000  0.000001  0.000000  0.000003 -0.000001  0.000001
  2C   1dyz       0.000000  0.000000  0.000001  0.000001 -0.000000 -0.000005
  2C   1dx2y2    -0.000024  0.000072 -0.000084 -0.000091 -0.000004  0.001088
  2C   1dxy       0.000026 -0.000001  0.000017 -0.000384  0.000020  0.000410
  3C   1s         0.000052 -0.000239  0.022070  0.022638  0.002062 -0.002449
  3C   2s         0.000441 -0.000823 -0.001324 -0.001267 -0.000019 -0.000030
  3C   1pz        0.000000 -0.000001 -0.000007  0.000004  0.000001  0.000000
  3C   1px        0.000001  0.000033 -0.001002  0.001197  0.000062  0.000130
  3C   1py        0.000132 -0.000225 -0.000826 -0.000522  0.000173 -0.000163
  3C   3s        -0.004408  0.007522  0.012372  0.012237  0.005837 -0.005721
  3C   2pz       -0.000006  0.000013  0.000026  0.000000  0.000009 -0.000005
  3C   2px        0.000736 -0.000462  0.001636 -0.003197  0.000017  0.000726
  3C   2py       -0.003136  0.005176  0.005963  0.005287  0.003042 -0.002882
  3C   1dz2       0.000090 -0.000161  0.000599  0.000589  0.000086 -0.000075
  3C   1dxz      -0.000001  0.000002 -0.000010 -0.000007 -0.000001  0.000001
  3C   1dyz      -0.000000  0.000001 -0.000007  0.000003 -0.000000  0.000001
  3C   1dx2y2    -0.000052  0.000064 -0.000399 -0.000867 -0.000053  0.000026
  3C   1dxy      -0.000001  0.000022 -0.001062  0.000742  0.000006  0.000045
  4C   1s        -0.000018 -0.000002  0.993413 -0.009263  0.053641  0.001296
  4C   2s        -0.000008 -0.000007  0.036250 -0.000385  0.004080 -0.000478
  4C   1pz       -0.000000 -0.000000 -0.000003  0.000002  0.000003  0.000000
  4C   1px       -0.000175  0.000207 -0.000716  0.000271 -0.000271  0.000122
  4C   1py        0.000223 -0.000358  0.000310  0.000081  0.001316 -0.000083
  4C   3s         0.007744 -0.010085 -0.031725 -0.004778 -0.014490  0.004455
  4C   2pz       -0.000003  0.000015  0.000024  0.000008  0.000011 -0.000009
  4C   2px       -0.002087  0.004420  0.006475  0.002327  0.004946 -0.002730
  4C   2py        0.002369 -0.002174 -0.002509 -0.001102 -0.004289  0.001279
  4C   1dz2       0.000018 -0.000058 -0.000561 -0.000034 -0.000642 -0.000095
  4C   1dxz      -0.000000  0.000001  0.000004 -0.000000 -0.000001  0.000001
  4C   1dyz      -0.000000  0.000000  0.000005  0.000000  0.000006  0.000001
  4C   1dx2y2    -0.000003  0.000057 -0.000250 -0.000061 -0.001149 -0.000005
  4C   1dxy      -0.000033  0.000039  0.000290 -0.000063 -0.000177  0.000020
  5C   1s         0.000058  0.002866  0.053479 -0.002903 -0.993683  0.000406
  5C   2s         0.000596 -0.002218 -0.000203 -0.000602 -0.036607 -0.000071
  5C   1pz       -0.000000  0.000004  0.000003  0.000001  0.000005  0.000001
  5C   1px       -0.000025  0.001097 -0.000168  0.000145  0.000683  0.000219
  5C   1py       -0.000070 -0.000295  0.001302  0.000076  0.000502  0.000030
  5C   3s        -0.008109  0.019230  0.011840  0.003685  0.033554 -0.004336
  5C   2pz        0.000047 -0.000069 -0.000030 -0.000016 -0.000041  0.000014
  5C   2px        0.004915 -0.010583 -0.003088 -0.001972 -0.005985  0.001708
  5C   2py        0.007621 -0.005775 -0.004809 -0.002002 -0.003903  0.001783
  5C   1dz2       0.000138  0.000463  0.000570 -0.000095  0.000641 -0.000080
  5C   1dxz      -0.000003 -0.000004  0.000002  0.000001 -0.000003  0.000000
  5C   1dyz      -0.000002  0.000004 -0.000005  0.000001 -0.000002  0.000001
  5C   1dx2y2    -0.000206 -0.000561  0.001075 -0.000023  0.000163 -0.000059
  5C   1dxy      -0.000368  0.000871  0.000357 -0.000012  0.000423 -0.000011
  6O   1s        -0.995186  0.000206 -0.000011 -0.000009  0.000004 -0.000004
  6O   2s        -0.030685  0.002137 -0.000164 -0.000138  0.000215 -0.000213
  6O   1pz       -0.000004  0.000000 -0.000000  0.000000 -0.000000  0.000000
  6O   1px       -0.001348 -0.000188 -0.000023  0.000040  0.000014  0.000001
  6O   1py        0.001019  0.000360  0.000036  0.000040 -0.000081  0.000097
  6O   3s         0.025872 -0.010968  0.000383  0.000301 -0.000519  0.000519
  6O   2pz       -0.000006  0.000020 -0.000000 -0.000003  0.000001  0.000001
  6O   2px        0.002711 -0.000181  0.000232 -0.000260  0.000283  0.000234
  6O   2py       -0.006475  0.006833 -0.000404 -0.000475 -0.000043  0.000002
  6O   1dz2      -0.000381  0.001321 -0.000059 -0.000033  0.000103 -0.000103
  6O   1dxz       0.000000  0.000001  0.000000 -0.000000 -0.000002  0.000001
  6O   1dyz       0.000003 -0.000010  0.000000  0.000000 -0.000001  0.000000
  6O   1dx2y2    -0.000556  0.002086 -0.000055 -0.000076 -0.000094  0.000115
  6O   1dxy      -0.000121  0.000617 -0.000024 -0.000009 -0.000103  0.000010
  7H   1s        -0.000562 -0.000025 -0.000077  0.000060  0.000088 -0.000074
  7H   2s        -0.001351 -0.001380  0.000152  0.000092 -0.000062  0.000211
  8H   1s        -0.000352  0.000177  0.000096 -0.000212  0.000075 -0.001323
  8H   2s        -0.002932  0.003194  0.000841  0.001233  0.000293  0.002788
  9H   1s         0.000024 -0.000064 -0.000070 -0.001385 -0.000081 -0.000068
  9H   2s         0.000445 -0.000609 -0.000339  0.002746 -0.000863  0.001164
 10H   1s        -0.000117  0.000168 -0.000166 -0.000163  0.000048 -0.000049
 10H   2s        -0.000891  0.001465  0.001291  0.001282  0.000455 -0.000438
 11H   1s        -0.000026 -0.000090 -0.001385 -0.000044  0.000047  0.000086
 11H   2s         0.000254 -0.000699  0.002773 -0.000399 -0.001090  0.000869
 12H   1s        -0.000436  0.000112 -0.000231  0.000110  0.001324 -0.000067
 12H   2s        -0.002648  0.003492  0.001261  0.000808 -0.002892 -0.000333
                      6         7         8         9        10        11   
                 -10.16785  -1.05218  -0.83710  -0.73777  -0.72954  -0.62018
                   2.00000   2.00000   2.00000   2.00000   2.00000   2.00000
                  --------  --------  --------  --------  --------  --------
  0C   1s         0.001678 -0.015508  0.092012  0.123492 -0.037515 -0.015019
  0C   2s         0.000127  0.030448 -0.173770 -0.240861  0.073826  0.027865
  0C   1pz       -0.000000  0.000122 -0.000190  0.000033  0.000538 -0.000648
  0C   1px       -0.000123  0.014265 -0.055675 -0.011242  0.050375 -0.038549
  0C   1py        0.000153  0.017352  0.027450  0.029433  0.096250 -0.151521
  0C   3s        -0.006234 -0.007990 -0.110806 -0.181282  0.056267  0.023658
  0C   2pz       -0.000010  0.000017 -0.000008  0.000045  0.000049 -0.000184
  0C   2px       -0.002987 -0.016075 -0.003995  0.010341  0.000655 -0.006546
  0C   2py        0.001649  0.031401  0.003605 -0.002266  0.014813 -0.049900
  0C   1dz2      -0.000064 -0.002355  0.008767  0.009412 -0.002562 -0.000785
  0C   1dxz       0.000001  0.000023 -0.000074 -0.000064  0.000077 -0.000023
  0C   1dyz       0.000001  0.000034 -0.000041 -0.000051  0.000024 -0.000016
  0C   1dx2y2     0.000008 -0.001504 -0.000381  0.002409  0.007093 -0.002519
  0C   1dxy       0.000058  0.003550  0.000704  0.001219  0.006643 -0.005670
  1C   1s         0.000075 -0.082818  0.078400  0.028650 -0.114750  0.055673
  1C   2s        -0.000653  0.154430 -0.153313 -0.058584  0.234030 -0.119772
  1C   1pz        0.000000  0.000306  0.000242  0.000715 -0.000033  0.000395
  1C   1px       -0.000012 -0.010554 -0.008108  0.133608  0.023813  0.157022
  1C   1py        0.000100  0.117508  0.092825  0.020004 -0.049226 -0.123134
  1C   3s         0.005142  0.041433 -0.093333 -0.045507  0.163190 -0.084091
  1C   2pz       -0.000009 -0.000116  0.000051  0.000083 -0.000003 -0.000021
  1C   2px        0.000588  0.015617 -0.005920  0.013452  0.009410  0.013015
  1C   2py       -0.003839 -0.063185  0.026755  0.005888 -0.016217 -0.028022
  1C   1dz2      -0.000066 -0.011519  0.006059  0.002055 -0.007180  0.004747
  1C   1dxz       0.000001  0.000007 -0.000081 -0.000033  0.000086  0.000028
  1C   1dyz       0.000000  0.000101 -0.000017 -0.000055  0.000002 -0.000022
  1C   1dx2y2     0.000049 -0.017113 -0.005707  0.001706  0.006992  0.009804
  1C   1dxy       0.000017 -0.002341 -0.000490 -0.008071 -0.002967  0.006721
  2C   1s        -0.023078 -0.002860  0.094929  0.091185  0.088180 -0.070962
  2C   2s        -0.002979  0.005869 -0.180395 -0.178750 -0.171687  0.142542
  2C   1pz       -0.000005  0.000023 -0.000344 -0.000049 -0.000113 -0.000210
  2C   1px       -0.001244  0.001843 -0.047716  0.032333 -0.059403 -0.074424
  2C   1py        0.000458  0.004520 -0.036628 -0.068622  0.058494  0.051115
  2C   3s         0.014462  0.029501 -0.113928 -0.130952 -0.134080  0.101565
  2C   2pz        0.000037  0.000021 -0.000039  0.000048  0.000019 -0.000172
  2C   2px        0.006311 -0.002247 -0.005795  0.013928 -0.003345 -0.032113
  2C   2py        0.002054  0.010610 -0.003335 -0.006247  0.011890 -0.005264
  2C   1dz2       0.000632 -0.000313  0.009186  0.006973  0.006708 -0.003624
  2C   1dxz      -0.000006  0.000001 -0.000079 -0.000031 -0.000084  0.000027
  2C   1dyz       0.000003  0.000003 -0.000049 -0.000063 -0.000004  0.000052
  2C   1dx2y2    -0.000736 -0.000393 -0.000069  0.006567 -0.006928 -0.003504
  2C   1dxy       0.000900  0.000099 -0.000181 -0.001304  0.002149  0.004543
  3C   1s         0.994630 -0.001548  0.094420 -0.025647  0.123427  0.073490
  3C   2s         0.036581  0.004271 -0.178011  0.049760 -0.240365 -0.148365
  3C   1pz        0.000002  0.000006 -0.000145  0.000556  0.000093 -0.000420
  3C   1px       -0.000112 -0.000423  0.007707  0.102255  0.028914 -0.101741
  3C   1py        0.000893  0.002724 -0.060022  0.018368 -0.015718  0.025788
  3C   3s        -0.033417 -0.002895 -0.113052  0.037655 -0.178221 -0.112346
  3C   2pz       -0.000018 -0.000024 -0.000018  0.000095  0.000054 -0.000025
  3C   2px        0.000969  0.000849  0.001119  0.019386  0.003512 -0.022447
  3C   2py       -0.007575 -0.009187 -0.008027  0.000231  0.012068  0.028209
  3C   1dz2      -0.000644 -0.000054  0.009212 -0.001981  0.009277  0.003795
  3C   1dxz       0.000008 -0.000000 -0.000077  0.000034 -0.000079 -0.000028
  3C   1dyz       0.000003  0.000000 -0.000049  0.000062 -0.000034 -0.000051
  3C   1dx2y2     0.000451 -0.000137  0.000149 -0.002224 -0.001304  0.003405
  3C   1dxy       0.000119 -0.000070  0.000042  0.009145  0.002085 -0.004257
  4C   1s        -0.022106 -0.003129  0.095288 -0.119791  0.035349  0.035550
  4C   2s        -0.002941  0.005865 -0.180890  0.233657 -0.068425 -0.073573
  4C   1pz        0.000008 -0.000000  0.000200  0.000112  0.000523  0.000619
  4C   1px        0.001085 -0.002805  0.055274 -0.003713  0.045751  0.036485
  4C   1py        0.000764  0.004456 -0.023147  0.042947  0.098793  0.145180
  4C   3s         0.014388  0.032873 -0.115905  0.178639 -0.054743 -0.045274
  4C   2pz       -0.000032  0.000021  0.000026  0.000083  0.000079  0.000168
  4C   2px       -0.006644 -0.003239  0.007024  0.011848  0.005577  0.001435
  4C   2py        0.000300  0.012176 -0.002279  0.007876  0.016707  0.052785
  4C   1dz2       0.000632 -0.000500  0.009203 -0.009278  0.002765  0.001586
  4C   1dxz      -0.000010  0.000001 -0.000079  0.000059 -0.000076 -0.000058
  4C   1dyz      -0.000008  0.000003 -0.000047  0.000048 -0.000028 -0.000012
  4C   1dx2y2    -0.000191 -0.000551 -0.000213 -0.002844 -0.006596 -0.006327
  4C   1dxy      -0.001148 -0.000315  0.000094 -0.001900 -0.006791 -0.004596
  5C   1s         0.000967 -0.017089  0.091434 -0.100814 -0.086657 -0.084762
  5C   2s         0.000099  0.034936 -0.172352  0.195605  0.169117  0.168371
  5C   1pz        0.000001 -0.000049  0.000344 -0.000034 -0.000143  0.000214
  5C   1px        0.000078 -0.019201  0.044187  0.031331 -0.059871  0.030408
  5C   1py        0.000183  0.014855  0.042123 -0.061610  0.049570  0.021467
  5C   3s        -0.006235 -0.020315 -0.107971  0.151004  0.124690  0.137178
  5C   2pz        0.000019  0.000156  0.000014  0.000044  0.000062  0.000181
  5C   2px        0.002532  0.011258  0.000485  0.006452  0.003566  0.012141
  5C   2py        0.002266  0.033187  0.003449  0.004471  0.015173  0.040611
  5C   1dz2      -0.000063 -0.002369  0.008661 -0.007836 -0.006210 -0.004599
  5C   1dxz       0.000001  0.000015 -0.000074  0.000040  0.000079  0.000066
  5C   1dyz       0.000000 -0.000008 -0.000051  0.000066  0.000005  0.000041
  5C   1dx2y2     0.000036  0.001114  0.000352 -0.006097  0.006480  0.002509
  5C   1dxy      -0.000044 -0.003557 -0.000864  0.001225 -0.001619  0.004889
  6O   1s        -0.000013 -0.204535 -0.037919 -0.005692  0.044087 -0.004097
  6O   2s        -0.000208  0.443686  0.087869  0.012749 -0.101701  0.005756
  6O   1pz        0.000000  0.000276  0.000266  0.000363 -0.000660  0.001570
  6O   1px        0.000010  0.090317  0.026486  0.044136 -0.047635  0.147331
  6O   1py        0.000017 -0.054541  0.045027  0.048365 -0.140394  0.279219
  6O   3s         0.001299  0.476978  0.087518  0.017183 -0.122489  0.022990
  6O   2pz       -0.000001  0.000107  0.000144  0.000167 -0.000319  0.000770
  6O   2px        0.000002  0.045550  0.012902  0.021385 -0.023277  0.078398
  6O   2py       -0.000375 -0.038766  0.026396  0.020365 -0.067252  0.127011
  6O   1dz2       0.000003 -0.014406 -0.001063 -0.000833  0.000955 -0.003557
  6O   1dxz      -0.000000  0.000124  0.000040  0.000027 -0.000071  0.000123
  6O   1dyz       0.000000  0.000128  0.000021 -0.000005 -0.000040  0.000035
  6O   1dx2y2    -0.000006 -0.004509  0.003165  0.003830 -0.006033  0.012239
  6O   1dxy       0.000001  0.007927  0.005045  0.000391 -0.010801  0.010910
  7H   1s        -0.000029  0.118312  0.043984  0.033104 -0.088300  0.154247
  7H   2s         0.000147  0.000465  0.003654  0.009322 -0.020563  0.065197
  8H   1s        -0.000090  0.004234 -0.033949 -0.073310  0.021151  0.003035
  8H   2s        -0.000529 -0.008172 -0.002386 -0.012147  0.000794  0.003637
  9H   1s        -0.000107  0.000064 -0.036707 -0.054670 -0.054691  0.067430
  9H   2s         0.001188 -0.001607 -0.004814 -0.010353 -0.012274  0.021539
 10H   1s        -0.001363 -0.000261 -0.035980  0.014982 -0.074851 -0.073693
 10H   2s         0.002646 -0.003660 -0.005308  0.002723 -0.014678 -0.023283
 11H   1s        -0.000106  0.000257 -0.037026  0.072120 -0.022039 -0.037768
 11H   2s         0.001193 -0.000733 -0.005136  0.014455 -0.005349 -0.011409
 12H   1s        -0.000082  0.005539 -0.034517  0.063335  0.051608  0.085351
 12H   2s        -0.000555 -0.005547 -0.001636  0.015096  0.005986  0.033927
                     12        13        14        15        16        17   
                  -0.59731  -0.54401  -0.48853  -0.45541  -0.43325  -0.41425
                   2.00000   2.00000   2.00000   2.00000   2.00000   2.00000
                  --------  --------  --------  --------  --------  --------
  0C   1s         0.099645 -0.014463  0.051715  0.008347  0.024204 -0.016108
  0C   2s        -0.201050  0.026492 -0.104127 -0.013641 -0.048421  0.035072
  0C   1pz        0.000166  0.000953  0.000354 -0.000860  0.001352  0.000760
  0C   1px        0.053055  0.155710  0.144142 -0.053608  0.198209  0.237818
  0C   1py       -0.030556  0.063029 -0.115837 -0.197193  0.125833 -0.132356
  0C   3s        -0.157931  0.024100 -0.152641 -0.052083 -0.043749  0.078684
  0C   2pz        0.000113  0.000246  0.000195 -0.000475  0.000330  0.000394
  0C   2px        0.043126  0.044120  0.046445 -0.040684  0.051448  0.087422
  0C   2py       -0.032467  0.009210 -0.010755 -0.091094  0.025247 -0.010934
  0C   1dz2       0.004837  0.000088  0.002797  0.000974  0.001696  0.001849
  0C   1dxz      -0.000048  0.000044 -0.000060 -0.000025  0.000036 -0.000059
  0C   1dyz       0.000002 -0.000021  0.000023  0.000008  0.000068  0.000026
  0C   1dx2y2    -0.003667  0.008466 -0.008899 -0.003612  0.000406 -0.009713
  0C   1dxy       0.003388  0.001124  0.002170  0.000381  0.015885  0.001355
  1C   1s        -0.051180 -0.036228  0.005216 -0.030585 -0.057182 -0.003401
  1C   2s         0.110168  0.075665 -0.016400  0.066599  0.124361  0.008042
  1C   1pz        0.001119 -0.000592 -0.000065  0.001415 -0.000892 -0.000496
  1C   1px        0.178268  0.033389 -0.041408  0.237346 -0.068246 -0.099028
  1C   1py        0.081102 -0.249084  0.045259  0.083413 -0.184959 -0.002464
  1C   3s         0.059210  0.051625  0.010111  0.059436  0.183805 -0.005306
  1C   2pz        0.000197 -0.000141 -0.000067  0.000108 -0.000122  0.000152
  1C   2px        0.026676  0.002035  0.005890  0.029020  0.001111  0.032859
  1C   2py        0.022198 -0.049272 -0.031644 -0.011128 -0.042127 -0.002743
  1C   1dz2      -0.002624  0.003606 -0.001892 -0.001266  0.002399  0.000131
  1C   1dxz      -0.000013  0.000050 -0.000099 -0.000018  0.000016  0.000018
  1C   1dyz      -0.000018  0.000004  0.000009  0.000045 -0.000012  0.000078
  1C   1dx2y2    -0.002199  0.009756 -0.016854 -0.007670  0.005271 -0.004388
  1C   1dxy      -0.007967  0.010649 -0.010716  0.002988  0.003464  0.013451
  2C   1s        -0.049668  0.061645 -0.048435 -0.016573 -0.018251 -0.022900
  2C   2s         0.101913 -0.128602  0.097662  0.033857  0.035116  0.050069
  2C   1pz       -0.000103  0.000933  0.000470 -0.000438 -0.001271  0.001463
  2C   1px        0.075084  0.151698  0.073358 -0.174433 -0.133956  0.186423
  2C   1py       -0.155010  0.062579  0.036542  0.136944 -0.203215  0.181960
  2C   3s         0.071994 -0.114639  0.114619  0.041368  0.051011  0.091906
  2C   2pz       -0.000133  0.000430  0.000147 -0.000102 -0.000345  0.000453
  2C   2px        0.008492  0.071008  0.011975 -0.041777 -0.020341  0.068821
  2C   2py       -0.057856  0.028418  0.029232  0.033678 -0.081721  0.039660
  2C   1dz2      -0.002276  0.002987 -0.001077 -0.000835 -0.002401  0.001838
  2C   1dxz       0.000060 -0.000039  0.000055  0.000013  0.000053 -0.000065
  2C   1dyz      -0.000010 -0.000031  0.000037  0.000039  0.000083 -0.000009
  2C   1dx2y2     0.007990 -0.000530  0.004003 -0.002237 -0.001599 -0.007309
  2C   1dxy       0.000535 -0.003523  0.008826  0.005677  0.013358 -0.004289
  3C   1s        -0.055690 -0.042107  0.048685  0.027500  0.040380  0.002028
  3C   2s         0.112927  0.085291 -0.099721 -0.055189 -0.082009 -0.003478
  3C   1pz       -0.000916  0.000332  0.000338  0.001165 -0.000863 -0.000398
  3C   1px       -0.152799  0.044203 -0.089569  0.201312 -0.070040 -0.088669
  3C   1py       -0.055551  0.038127  0.256514  0.059408 -0.172001  0.012308
  3C   3s         0.085867  0.046611 -0.107207 -0.071688 -0.142103 -0.007680
  3C   2pz       -0.000263  0.000060  0.000093  0.000433 -0.000334  0.000103
  3C   2px       -0.032960  0.016178 -0.036715  0.078004 -0.028098  0.017318
  3C   2py       -0.033469 -0.006896  0.089835  0.016991 -0.064683  0.005399
  3C   1dz2      -0.002620 -0.001182  0.003077  0.001009 -0.000128  0.000311
  3C   1dxz      -0.000005 -0.000027  0.000017  0.000033  0.000025 -0.000016
  3C   1dyz      -0.000020  0.000026 -0.000033  0.000002 -0.000015 -0.000074
  3C   1dx2y2    -0.000897 -0.007312  0.007952  0.005511  0.004972  0.004742
  3C   1dxy      -0.007425 -0.000479  0.001404  0.004831 -0.000019 -0.011920
  4C   1s         0.097082  0.034766 -0.035744 -0.033498 -0.017231  0.016575
  4C   2s        -0.197642 -0.073185  0.072787  0.067676  0.033110 -0.038076
  4C   1pz       -0.000314 -0.000971  0.000044 -0.000636  0.001248  0.000658
  4C   1px       -0.068022 -0.161518 -0.075257  0.011382  0.245792  0.225030
  4C   1py        0.006019 -0.059478  0.136010 -0.228087  0.014613 -0.145571
  4C   3s        -0.139395 -0.066327  0.072578  0.106799  0.041597 -0.055615
  4C   2pz       -0.000159 -0.000361 -0.000004 -0.000112  0.000187  0.000310
  4C   2px       -0.046418 -0.064700 -0.025714  0.010369  0.053846  0.072986
  4C   2py        0.022322 -0.013894  0.040889 -0.053983 -0.026042 -0.015241
  4C   1dz2       0.004578  0.001789 -0.000177 -0.001715 -0.002375 -0.002214
  4C   1dxz      -0.000041 -0.000002  0.000006  0.000039 -0.000008  0.000069
  4C   1dyz       0.000008 -0.000001 -0.000041 -0.000042 -0.000065 -0.000025
  4C   1dx2y2    -0.003306  0.001101  0.004500  0.008261  0.003030  0.010719
  4C   1dxy       0.004560  0.002465 -0.005780 -0.005312 -0.014009 -0.000762
  5C   1s        -0.039105  0.023518  0.022894  0.040001  0.020837  0.025518
  5C   2s         0.078701 -0.050815 -0.044526 -0.082644 -0.038937 -0.054133
  5C   1pz        0.000078 -0.000928 -0.000925 -0.000668 -0.000804  0.001475
  5C   1px       -0.083899 -0.198209 -0.059818 -0.207458 -0.117702  0.184104
  5C   1py        0.161133  0.014003 -0.208541  0.114249 -0.075944  0.189855
  5C   3s         0.067525 -0.041708 -0.087358 -0.084852 -0.061253 -0.117949
  5C   2pz        0.000125 -0.000346 -0.000230 -0.000158 -0.000182  0.000505
  5C   2px       -0.017544 -0.068033 -0.004780 -0.082789  0.001193  0.072335
  5C   2py        0.069922 -0.005098 -0.069071  0.081229 -0.062463  0.050917
  5C   1dz2      -0.001954  0.001588  0.002150  0.001470  0.002143 -0.001730
  5C   1dxz       0.000050  0.000021 -0.000067 -0.000046 -0.000027  0.000067
  5C   1dyz      -0.000014 -0.000029 -0.000008 -0.000073 -0.000088  0.000011
  5C   1dx2y2     0.007190  0.006957 -0.007522  0.000933  0.005679  0.007492
  5C   1dxy      -0.000548  0.000042 -0.003939 -0.012670 -0.012184  0.005163
  6O   1s         0.021450  0.011662 -0.025353  0.026670  0.006575  0.005082
  6O   2s        -0.049061 -0.032422  0.059502 -0.063307 -0.016141 -0.011907
  6O   1pz       -0.000383  0.001327 -0.000836  0.000617  0.000406  0.000082
  6O   1px        0.019589  0.113858 -0.107175  0.197544  0.006662  0.029647
  6O   1py       -0.157437  0.253088 -0.102964 -0.114911  0.121655 -0.019203
  6O   3s        -0.069183 -0.029740  0.108564 -0.080564 -0.034860 -0.016837
  6O   2pz       -0.000161  0.000661 -0.000471  0.000440  0.000196  0.000013
  6O   2px        0.016424  0.062009 -0.063441  0.137020 -0.003855  0.015489
  6O   2py       -0.079271  0.117347 -0.053527 -0.075207  0.069621 -0.019458
  6O   1dz2      -0.000501 -0.003953  0.003792 -0.004818 -0.000955 -0.000762
  6O   1dxz      -0.000045  0.000099 -0.000072  0.000034  0.000027  0.000008
  6O   1dyz      -0.000065  0.000058 -0.000011 -0.000075  0.000050  0.000005
  6O   1dx2y2    -0.000989  0.006271 -0.006645  0.008228 -0.001279  0.000263
  6O   1dxy      -0.014466  0.011431 -0.002275 -0.015387  0.008355  0.000301
  7H   1s        -0.065177  0.130737 -0.071566  0.012951  0.048758  0.007631
  7H   2s        -0.027900  0.067311 -0.048266  0.000565  0.030316  0.012879
  8H   1s        -0.106657 -0.044218 -0.144709 -0.023770 -0.109100 -0.150248
  8H   2s        -0.035156 -0.028397 -0.088971 -0.024560 -0.087748 -0.137442
  9H   1s         0.055951 -0.131198  0.006657  0.050024  0.159573 -0.135775
  9H   2s         0.018781 -0.062790 -0.002385  0.036922  0.130722 -0.128862
 10H   1s         0.060455  0.022723 -0.189161 -0.048415  0.050609 -0.017282
 10H   2s         0.020526  0.005343 -0.122707 -0.033341  0.050993 -0.016052
 11H   1s        -0.108196 -0.091782 -0.027988  0.092835  0.154001  0.147109
 11H   2s        -0.038573 -0.045576 -0.024803  0.064774  0.128668  0.139296
 12H   1s         0.044469 -0.092859 -0.120371 -0.103049 -0.109786  0.139950
 12H   2s         0.012575 -0.048509 -0.090226 -0.077932 -0.093019  0.138416
                     18        19        20        21        22        23   
                  -0.39978  -0.36860  -0.35151  -0.32475  -0.32462  -0.24201
                   2.00000   2.00000   2.00000   2.00000   2.00000   2.00000
                  --------  --------  --------  --------  --------  --------
  0C   1s         0.000000  0.004126 -0.018467 -0.000021  0.014793 -0.000000
  0C   2s        -0.000002 -0.001723  0.038748  0.000052 -0.036247 -0.000002
  0C   1pz       -0.152351 -0.000090 -0.000797  0.139010 -0.000852 -0.293359
  0C   1px        0.000746  0.116252 -0.046954 -0.000400 -0.194182  0.001437
  0C   1py        0.000469 -0.216418 -0.187317 -0.000373 -0.033060  0.000891
  0C   3s         0.000010 -0.066373  0.064312  0.000064 -0.042783  0.000003
  0C   2pz       -0.081877 -0.000150 -0.000389  0.086254 -0.000117 -0.211015
  0C   2px        0.000401  0.022070 -0.030710 -0.000371 -0.024065  0.001013
  0C   2py        0.000260 -0.084467 -0.078551 -0.000204 -0.039957  0.000629
  0C   1dz2      -0.000091  0.002681 -0.000014 -0.000014 -0.002067  0.000044
  0C   1dxz      -0.008631 -0.000037 -0.000036  0.003776  0.000028 -0.000983
  0C   1dyz      -0.003414  0.000045 -0.000026 -0.009354 -0.000109  0.009965
  0C   1dx2y2     0.000032 -0.007476 -0.002986 -0.000062  0.010416  0.000035
  0C   1dxy       0.000043  0.007505 -0.007048  0.000056 -0.015234 -0.000046
  1C   1s        -0.000001  0.015780  0.011666 -0.000009  0.006199  0.000000
  1C   2s         0.000002 -0.038833 -0.029886  0.000021 -0.014813  0.000004
  1C   1pz       -0.311116 -0.000152  0.000684 -0.008421  0.001139  0.001434
  1C   1px        0.001519  0.021866  0.079392 -0.000353  0.273470 -0.000008
  1C   1py        0.000941 -0.083942  0.098120  0.000113 -0.061213 -0.000005
  1C   3s         0.000004  0.019558  0.005202 -0.000034  0.003488 -0.000016
  1C   2pz       -0.160375 -0.000183  0.000158 -0.012763  0.000376  0.000183
  1C   2px        0.000801 -0.040344  0.054401 -0.000002  0.037859 -0.000026
  1C   2py        0.000493  0.005926 -0.035813 -0.000052  0.069409  0.000002
  1C   1dz2      -0.000047 -0.000100 -0.003161 -0.000090  0.001113  0.000184
  1C   1dxz       0.001188 -0.000044 -0.000067  0.002959 -0.000001  0.020202
  1C   1dyz      -0.010794 -0.000056  0.000050 -0.021709 -0.000169  0.002426
  1C   1dx2y2    -0.000039 -0.001509 -0.016971 -0.000098  0.012727 -0.000092
  1C   1dxy       0.000049 -0.012363 -0.003648  0.000125 -0.019061 -0.000072
  2C   1s        -0.000000  0.002211  0.006778  0.000012 -0.008105 -0.000000
  2C   2s        -0.000001 -0.008540 -0.007295 -0.000027  0.018915 -0.000000
  2C   1pz       -0.091505 -0.000464  0.000962  0.232460  0.001146 -0.295834
  2C   1px        0.000445 -0.213285  0.076384 -0.001390  0.177460  0.001444
  2C   1py        0.000270  0.191499  0.193216 -0.000679 -0.017984  0.000894
  2C   3s         0.000005 -0.002275 -0.058591 -0.000006 -0.001141  0.000018
  2C   2pz       -0.044945 -0.000079  0.000141  0.145971  0.000394 -0.210636
  2C   2px        0.000222 -0.063522  0.006135 -0.000803  0.048473  0.001065
  2C   2py        0.000139  0.076689  0.036705 -0.000425 -0.017102  0.000637
  2C   1dz2      -0.000045 -0.001194  0.002749  0.000085  0.001510 -0.000033
  2C   1dxz      -0.002527 -0.000022 -0.000133  0.008786 -0.000028  0.002232
  2C   1dyz      -0.004534  0.000066 -0.000055  0.002400 -0.000079 -0.009871
  2C   1dx2y2    -0.000001 -0.010243 -0.012539 -0.000039  0.002652 -0.000040
  2C   1dxy       0.000030  0.005867 -0.016075 -0.000019 -0.013528  0.000042
  3C   1s         0.000000  0.005302  0.003844  0.000002 -0.001543  0.000001
  3C   2s        -0.000001 -0.016096 -0.015518 -0.000007  0.004094  0.000004
  3C   1pz       -0.073388  0.000608 -0.001424  0.262410 -0.000404 -0.009009
  3C   1px        0.000358  0.225198 -0.123921 -0.001023 -0.180130  0.000045
  3C   1py        0.000224 -0.162745 -0.271273 -0.000838  0.033401  0.000030
  3C   3s        -0.000008 -0.009560  0.016098  0.000025  0.000630 -0.000032
  3C   2pz       -0.041856  0.000275 -0.000416  0.158238 -0.000106 -0.006365
  3C   2px        0.000201  0.075232 -0.048820 -0.000667 -0.074520  0.000049
  3C   2py        0.000126 -0.030298 -0.058758 -0.000482  0.010190 -0.000002
  3C   1dz2      -0.000019 -0.002211 -0.003347  0.000038  0.000758  0.000166
  3C   1dxz       0.000463 -0.000043 -0.000098 -0.001114  0.000009  0.018147
  3C   1dyz      -0.004297  0.000058  0.000021  0.009291 -0.000050  0.002225
  3C   1dx2y2    -0.000015 -0.013352 -0.018912  0.000022  0.008031 -0.000082
  3C   1dxy       0.000020  0.001256 -0.011085 -0.000032 -0.007208 -0.000065
  4C   1s        -0.000001  0.016353  0.007384 -0.000017  0.011977 -0.000000
  4C   2s         0.000002 -0.028421 -0.015842  0.000042 -0.028925 -0.000004
  4C   1pz       -0.093251 -0.000529  0.001486  0.235881  0.000958  0.286707
  4C   1px        0.000456 -0.094656  0.135151 -0.001412  0.176370 -0.001405
  4C   1py        0.000285 -0.021021  0.270648 -0.000604 -0.080214 -0.000872
  4C   3s         0.000005 -0.121546 -0.020036  0.000072 -0.061435  0.000025
  4C   2pz       -0.043018 -0.000259  0.000547  0.149252  0.000283  0.202799
  4C   2px        0.000200 -0.015254  0.047005 -0.000771  0.042469 -0.000988
  4C   2py        0.000129 -0.060507  0.103039 -0.000393 -0.046328 -0.000605
  4C   1dz2       0.000011  0.002044 -0.000338 -0.000072 -0.002127  0.000058
  4C   1dxz       0.003543 -0.000053 -0.000072 -0.009077  0.000025  0.000244
  4C   1dyz      -0.003677  0.000047 -0.000011  0.000237 -0.000093  0.010716
  4C   1dx2y2    -0.000028 -0.010640 -0.009891  0.000027  0.012528  0.000031
  4C   1dxy       0.000007  0.005247 -0.008794  0.000046 -0.013640 -0.000053
  5C   1s         0.000001 -0.029021 -0.008420  0.000024 -0.017458 -0.000001
  5C   2s        -0.000002  0.055111  0.025578 -0.000052  0.034850  0.000002
  5C   1pz       -0.154755  0.000043 -0.001043  0.143970 -0.000521  0.299866
  5C   1px        0.000754 -0.007054 -0.062366 -0.000376 -0.226560 -0.001464
  5C   1py        0.000464  0.026638 -0.243925 -0.000613  0.125550 -0.000906
  5C   3s        -0.000008  0.163490 -0.027283 -0.000150  0.125633  0.000012
  5C   2pz       -0.090753 -0.000211 -0.000063  0.088385 -0.000281  0.221534
  5C   2px        0.000456 -0.010663  0.027526 -0.000320 -0.092154 -0.001109
  5C   2py        0.000274 -0.051902 -0.065447 -0.000293  0.014460 -0.000660
  5C   1dz2       0.000070 -0.001339  0.002845 -0.000062  0.000664 -0.000031
  5C   1dxz       0.009023  0.000046 -0.000101 -0.000950 -0.000014  0.001982
  5C   1dyz      -0.001365  0.000034 -0.000067 -0.009912 -0.000094 -0.008979
  5C   1dx2y2    -0.000048  0.002616 -0.006588 -0.000034  0.005851 -0.000036
  5C   1dxy      -0.000021  0.007062 -0.014802  0.000069 -0.011872  0.000038
  6O   1s         0.000001 -0.047751  0.001649  0.000049 -0.034379  0.000000
  6O   2s         0.000002  0.113698 -0.003204 -0.000113  0.081103 -0.000000
  6O   1pz       -0.423214 -0.001467  0.000267 -0.348976 -0.001694 -0.005908
  6O   1px        0.002075 -0.352788  0.137526  0.002169 -0.323958  0.000029
  6O   1py        0.001289  0.086999 -0.131145  0.000877  0.130121  0.000018
  6O   3s        -0.000013  0.171351  0.025241 -0.000165  0.110726 -0.000002
  6O   2pz       -0.288226 -0.000862  0.000184 -0.262104 -0.001093 -0.003539
  6O   2px        0.001409 -0.230431  0.096093  0.001603 -0.224969  0.000019
  6O   2py        0.000874  0.087209 -0.091831  0.000613  0.125944  0.000009
  6O   1dz2      -0.000087  0.009797 -0.001935 -0.000112  0.008444  0.000019
  6O   1dxz      -0.018594 -0.000124  0.000013 -0.014547 -0.000131  0.002003
  6O   1dyz       0.013263  0.000018 -0.000047  0.004485 -0.000003  0.000333
  6O   1dx2y2     0.000132 -0.012353  0.004832  0.000097 -0.008824 -0.000009
  6O   1dxy      -0.000009  0.006499 -0.008646  0.000019  0.001617 -0.000008
  7H   1s         0.000003 -0.100823 -0.001182  0.000131 -0.091648  0.000000
  7H   2s         0.000008 -0.070409 -0.022765  0.000121 -0.078376  0.000003
  8H   1s         0.000001 -0.131625  0.003374 -0.000172  0.119925 -0.000001
  8H   2s        -0.000002 -0.106672 -0.012500 -0.000240  0.172708 -0.000013
  9H   1s         0.000004  0.034055 -0.142549  0.000135 -0.093707  0.000003
  9H   2s         0.000005  0.039683 -0.152207  0.000149 -0.108384  0.000009
 10H   1s        -0.000002  0.127289  0.181865  0.000059 -0.043161 -0.000002
 10H   2s        -0.000001  0.135110  0.197579  0.000065 -0.046971 -0.000008
 11H   1s         0.000000 -0.078788  0.005225 -0.000202  0.139353 -0.000001
 11H   2s         0.000005 -0.079471  0.009132 -0.000245  0.162994 -0.000008
[...]
 4 C  dyz             0.0       0.0       8.1       0.0       0.0      26.0
 4 C  dx2y2           0.5       0.1       0.0       0.0       5.9       0.0
 4 C  dxy             1.6       1.3       0.0       0.0       1.5       0.0
 5 C  s               0.1       0.6       0.0       0.0       3.7       0.0
 5 C  pz              0.0       0.0       1.0       0.2       0.0       0.3
 5 C  px              0.5       1.2       0.0       0.0       1.1       0.0
 5 C  py              0.8       0.6       0.0       0.0       1.7       0.0
 5 C  dz2             1.3       4.3       0.0       0.0       5.4       0.0
 5 C  dxz             0.0       0.0       5.6       1.0       0.0       2.3
 5 C  dyz             0.0       0.0      14.4       1.6       0.0      18.7
 5 C  dx2y2           7.3       0.1       0.0       0.0       1.7       0.0
 5 C  dxy             1.1       1.3       0.0       0.0       0.6       0.0
 6 O  s               0.6       3.9       0.0       0.0       0.6       0.0
 6 O  pz              0.0       0.0       0.0       0.3       0.0       0.0
 6 O  px              0.5       0.3       0.0       0.0       1.3       0.0
 6 O  dz2             0.7       0.1       0.0       0.0       2.5       0.0
 6 O  dxz             0.0       0.0       0.3       0.4       0.0       0.0
 6 O  dyz             0.0       0.0       0.0       6.3       0.0       0.0
 6 O  dx2y2           2.0       1.1       0.0       0.0       4.8       0.0
 6 O  dxy             3.4       1.5       0.0       0.0      10.8       0.0
 7 H  s               0.1       1.0       0.0       0.0       0.1       0.0
 8 H  s               0.3       0.0       0.0       0.0       0.3       0.0
 9 H  s               0.4       0.1       0.0       0.0       0.3       0.0
10 H  s               0.0       0.1       0.0       0.0       0.0       0.0
11 H  s               0.4       0.0       0.0       0.0       0.3       0.0
12 H  s               0.4       0.1       0.0       0.0       0.2       0.0

                     96        97        98        99       100       101   
                   2.31494   2.40935   2.49891   2.53848   2.57350   2.65326
                   0.00000   0.00000   0.00000   0.00000   0.00000   0.00000
                  --------  --------  --------  --------  --------  --------
 0 C  s               0.0       1.4       0.0       0.9       4.5       0.5
 0 C  pz              0.6       0.0       0.3       0.0       0.0       0.0
 0 C  px              0.0       0.1       0.0       0.2       0.4       0.3
 0 C  py              0.0       0.0       0.0       0.1       0.2       0.8
 0 C  dz2             0.0       2.6       0.0       3.4      13.5       0.1
 0 C  dxz             6.2       0.0       7.4       0.0       0.0       0.0
 0 C  dyz             1.9       0.0       0.0       0.0       0.0       0.0
 0 C  dx2y2           0.0       0.3       0.0       6.9       0.0       3.0
 0 C  dxy             0.0       0.4       0.0       0.0       2.8       4.1
 1 C  s               0.0       1.2       0.0       4.2       0.1       3.1
 1 C  px              0.0       0.4       0.0       0.2       0.2       0.2
 1 C  py              0.0       0.9       0.0       2.9       0.0       1.2
 1 C  dz2             0.0       0.2       0.0      10.9       0.1       4.2
 1 C  dxz            29.2       0.0       1.2       0.0       0.0       0.0
 1 C  dyz             0.8       0.0      46.0       0.0       0.0       0.0
 1 C  dx2y2           0.0       0.2       0.0       3.8       0.0       5.1
 1 C  dxy             0.0       0.0       0.0       0.1       2.4       0.9
 2 C  s               0.0       0.0       0.0       0.6       3.8       2.9
 2 C  pz              0.2       0.0       0.1       0.0       0.0       0.0
 2 C  px              0.0       0.2       0.0       0.1       0.3       1.7
 2 C  py              0.0       0.3       0.0       0.0       0.6       0.4
 2 C  dz2             0.0       0.4       0.0       2.0      10.7       6.6
 2 C  dxz             5.7       0.0       1.6       0.0       0.0       0.0
 2 C  dyz             4.5       0.0       0.4       0.0       0.0       0.0
 2 C  dx2y2           0.0       0.1       0.0       2.6       0.0       0.4
 2 C  dxy             0.0       0.1       0.0       0.2       3.1       0.1
 3 C  s               0.0       0.6       0.0       2.5       0.0       6.2
 3 C  px              0.0       0.0       0.0       0.0       0.4       0.1
 3 C  py              0.0       0.3       0.0       0.3       0.0       1.0
 3 C  dz2             0.0       4.3       0.0       7.8       0.2      15.3
 3 C  dxz            28.3       0.0       0.3       0.0       0.0       0.0
 3 C  dyz             1.2       0.0       0.9       0.0       0.0       0.0
 3 C  dx2y2           0.0       0.7       0.0       5.8       0.1       3.9
 3 C  dxy             0.0       0.4       0.0       0.4       5.2       0.1
 4 C  s               0.0       0.2       0.0       0.7       5.0       1.4
 4 C  pz              0.6       0.0       0.1       0.0       0.0       0.0
 4 C  px              0.0       0.3       0.0       0.1       0.7       0.5
 4 C  py              0.0       0.4       0.0       0.0       0.3       0.9
 4 C  dz2             0.0       0.2       0.0       3.0      13.4       3.7
 4 C  dxz             5.8       0.0       1.2       0.0       0.0       0.0
 4 C  dyz             2.5       0.0       0.9       0.0       0.0       0.0
 4 C  dx2y2           0.0       0.0       0.0       2.5       0.2       0.1
 4 C  dxy             0.0       0.5       0.0       0.2       2.9       0.8
 5 C  s               0.0       2.4       0.0       1.1       4.4       0.2
 5 C  pz              0.3       0.0       0.3       0.0       0.0       0.0
 5 C  px              0.0       0.6       0.0       0.2       0.1       0.3
 5 C  py              0.0       0.1       0.0       0.0       0.7       0.5
 5 C  dz2             0.0       8.3       0.0       1.9      12.1       0.0
 5 C  dxz             6.5       0.0       6.6       0.0       0.0       0.0
 5 C  dyz             3.7       0.0       1.4       0.0       0.0       0.0
 5 C  dx2y2           0.0       1.4       0.0       4.4       0.8       1.6
 5 C  dxy             0.0       0.4       0.0       2.1       4.6       3.1
 6 O  s               0.0      14.9       0.0       1.0       0.1       9.6
 6 O  pz              0.0       0.0       1.3       0.0       0.0       0.0
 6 O  px              0.0       3.4       0.0       1.1       0.0       0.1
 6 O  py              0.0       0.1       0.0       3.2       0.0       2.5
 6 O  dz2             0.0      21.1       0.0       0.8       0.0       6.1
 6 O  dxz             2.1       0.0       1.1       0.0       0.0       0.0
 6 O  dyz             0.1       0.0      28.9       0.0       0.0       0.0
 6 O  dx2y2           0.0       3.4       0.0       9.9       0.3       4.8
 6 O  dxy             0.0      12.5       0.0       4.2       0.5       0.3
 7 H  s               0.0      14.1       0.0       3.5       0.0       0.2
 8 H  s               0.0       0.0       0.0       0.8       1.3       0.6
 9 H  s               0.0       0.1       0.0       0.3       1.2       0.1
10 H  s               0.0       0.0       0.0       1.8       0.0       0.0
11 H  s               0.0       0.0       0.0       0.4       1.3       0.0
12 H  s               0.0       0.2       0.0       0.7       1.5       0.3

                    102       103       104       105       106       107   
                   2.66126   2.72405   2.73046   2.74897   2.83885   2.95519
                   0.00000   0.00000   0.00000   0.00000   0.00000   0.00000
                  --------  --------  --------  --------  --------  --------
 0 C  s               0.0       2.8       2.5       1.1       0.4       1.4
 0 C  px              0.0       1.0       0.1       0.5       0.4       0.1
 0 C  py              0.0       0.3       2.4       1.3       0.0       0.2
 0 C  dz2             0.0       3.9       2.7       3.7       0.0       2.0
 0 C  dxz             2.1       0.0       0.0       0.0       0.0       0.0
 0 C  dyz            14.5       0.0       0.0       0.0       0.0       0.0
 0 C  dx2y2           0.0       0.5       9.0       0.3       3.7       1.0
 0 C  dxy             0.0      15.2       6.8       0.3       2.5       0.1
 1 C  s               0.0       0.1       2.5       4.0       0.0       7.5
 1 C  px              0.0       4.1       0.2       0.2       0.4       0.1
 1 C  py              0.0       0.3       0.1       1.6       0.0       2.8
 1 C  dz2             0.0       0.0       0.0       8.3       0.0       7.2
 1 C  dxz            16.3       0.0       0.0       0.0       0.0       0.0
 1 C  dx2y2           0.0       0.7       0.3       5.0       1.8      11.3
 1 C  dxy             0.0       4.3       0.5       0.5      11.2       0.9
 2 C  s               0.0       0.2       1.4       0.8       1.5       2.2
 2 C  px              0.0       0.4       0.4       0.0       1.5       0.3
 2 C  py              0.0       0.3       3.4       0.2       0.3       0.1
 2 C  dz2             0.0       1.4       1.6       1.5       0.7       2.6
 2 C  dxz             6.0       0.0       0.0       0.0       0.0       0.0
 2 C  dyz            10.9       0.0       0.0       0.0       0.0       0.0
 2 C  dx2y2           0.0       1.2      14.8       6.5       8.3       0.1
 2 C  dxy             0.0      10.0       1.9       6.3       6.4       0.3
 3 C  s               0.0       0.4       1.6       1.8       0.0       1.3
 3 C  px              0.0       0.8       0.0       0.0       6.3       0.1
 3 C  py              0.0       0.1       0.8       0.2       0.1       0.1
 3 C  dz2             0.0       0.4       0.0       2.6       0.0       1.6
 3 C  dxz            16.3       0.0       0.0       0.0       0.0       0.0
 3 C  dyz             0.3       0.0       0.0       0.0       0.0       0.0
 3 C  dx2y2           0.0       0.9       1.4      16.3       0.6       2.1
 3 C  dxy             0.0       9.2       0.0       1.4      19.0       0.0
 4 C  s               0.0       0.0       1.0       1.3       2.0       2.2
 4 C  px              0.0       0.4       0.0       0.1       1.5       0.1
 4 C  py              0.0       1.9       2.5       0.4       0.7       0.2
 4 C  dz2             0.0       0.4       0.6       2.6       1.2       2.9
 4 C  dxz             2.4       0.0       0.0       0.0       0.0       0.0
 4 C  dyz            13.9       0.0       0.0       0.0       0.0       0.0
 4 C  dx2y2           0.0      15.7       2.3       7.6       0.6       1.5
 4 C  dxy             0.0       0.9      12.7       0.1      14.6       0.1
 5 C  s               0.0       3.0       0.6       2.6       0.5       2.1
 5 C  px              0.0       0.5       0.3       1.0       0.6       0.0
 5 C  py              0.0       0.8       1.9       0.5       0.0       0.7
 5 C  dz2             0.0       3.0       0.4       5.5       0.1       3.0
 5 C  dxz             6.4       0.0       0.0       0.0       0.0       0.0
 5 C  dyz            10.0       0.0       0.0       0.0       0.0       0.0
 5 C  dx2y2           0.0       0.1      16.7       0.2       0.5       0.0
 5 C  dxy             0.0      12.5       3.4       1.3       4.3       0.8
 6 O  s               0.0       0.0       0.2       0.0       0.0       8.9
 6 O  px              0.0       0.0       0.0       0.5       0.3       0.1
 6 O  py              0.0       0.0       0.2       0.6       0.0       5.1
 6 O  dz2             0.0       0.1       0.0       0.9       0.0       4.3
 6 O  dxz             0.5       0.0       0.0       0.0       0.0       0.0
 6 O  dyz             0.2       0.0       0.0       0.0       0.0       0.0
 6 O  dx2y2           0.0       0.0       1.7       3.5       0.4      17.5
 6 O  dxy             0.0       0.1       0.3       1.6       6.4       3.9
 7 H  s               0.0       0.0       0.1       1.5       0.1       0.5
 8 H  s               0.0       0.4       0.1       0.1       0.4       0.1
 9 H  s               0.0       0.6       0.1       1.1       0.1       0.0
10 H  s               0.0       0.0       0.1       2.0       0.0       0.1
11 H  s               0.0       0.8       0.3       0.7       0.2       0.0
12 H  s               0.0       0.4       0.1       0.0       0.2       0.2

                    108       109   
                   3.10327   3.42068
                   0.00000   0.00000
                  --------  --------
 0 C  s               0.3       1.5
 0 C  px              0.7       0.1
 0 C  py              2.7       0.0
 0 C  dz2             0.0       1.0
 0 C  dx2y2           9.0       7.1
 0 C  dxy             5.1       6.3
 1 C  s               0.1       0.8
 1 C  px              1.6       0.0
 1 C  py              0.1       0.4
 1 C  dz2             0.1       0.7
 1 C  dx2y2           1.4      13.9
 1 C  dxy            27.6       1.0
 2 C  s               0.2       1.6
 2 C  px              0.6       0.1
 2 C  py              1.9       0.0
 2 C  dz2             0.1       1.1
 2 C  dx2y2           7.1       0.9
 2 C  dxy             0.1      12.3
 3 C  s               0.0       1.7
 3 C  px              1.4       0.0
 3 C  py              0.0       0.1
 3 C  dz2             0.0       1.1
 3 C  dx2y2           0.4      11.8
 3 C  dxy             5.5       0.9
 4 C  s               0.1       1.5
 4 C  px              0.2       0.1
 4 C  py              2.1       0.0
 4 C  dz2             0.0       1.0
 4 C  dx2y2           4.5       6.4
 4 C  dxy             2.2       6.3
 5 C  s               0.1       1.5
 5 C  px              1.7       0.1
 5 C  py              1.5       0.0
 5 C  dz2             0.0       1.0
 5 C  dx2y2          14.0       0.9
 5 C  dxy             0.0      11.9
 6 O  s               0.2       0.2
 6 O  px              0.5       0.0
 6 O  py              0.2       0.5
 6 O  dx2y2           1.5       1.0
 6 O  dxy             5.1       0.5
 7 H  s               0.0       0.2
 8 H  s               0.0       0.6
 9 H  s               0.0       0.5
10 H  s               0.0       0.5
11 H  s               0.0       0.5
12 H  s               0.0       0.5


                      *****************************
                      * MAYER POPULATION ANALYSIS *
                      *****************************

  NA   - Mulliken gross atomic population
  ZA   - Total nuclear charge
  QA   - Mulliken gross atomic charge
  VA   - Mayer's total valence
  BVA  - Mayer's bonded valence
  FA   - Mayer's free valence

  ATOM       NA         ZA         QA         VA         BVA        FA
  0 C      6.1634     6.0000    -0.1634     3.9201     3.9201    -0.0000
  1 C      5.6440     6.0000     0.3560     3.8831     3.8831     0.0000
  2 C      6.1289     6.0000    -0.1289     3.9636     3.9636    -0.0000
  3 C      6.1360     6.0000    -0.1360     3.9392     3.9392    -0.0000
  4 C      6.1274     6.0000    -0.1274     3.9721     3.9721     0.0000
  5 C      6.2070     6.0000    -0.2070     3.9030     3.9030     0.0000
  6 O      8.6381     8.0000    -0.6381     1.8681     1.8681     0.0000
  7 H      0.5903     1.0000     0.4097     0.8024     0.8024     0.0000
  8 H      0.8629     1.0000     0.1371     0.9388     0.9388     0.0000
  9 H      0.8710     1.0000     0.1290     0.9372     0.9372     0.0000
 10 H      0.8756     1.0000     0.1244     0.9387     0.9387    -0.0000
 11 H      0.8719     1.0000     0.1281     0.9377     0.9377     0.0000
 12 H      0.8835     1.0000     0.1165     0.9401     0.9401    -0.0000

  Mayer bond orders larger than 0.1
B(  0-C ,  1-C ) :   1.4020 B(  0-C ,  2-C ) :   1.4673 B(  0-C ,  8-H ) :   0.9208 
B(  1-C ,  5-C ) :   1.3883 B(  1-C ,  6-O ) :   0.9580 B(  2-C ,  3-C ) :   1.4390 
B(  2-C ,  9-H ) :   0.9300 B(  3-C ,  4-C ) :   1.4606 B(  3-C , 10-H ) :   0.9309 
B(  4-C ,  5-C ) :   1.4455 B(  4-C , 11-H ) :   0.9292 B(  5-C , 12-H ) :   0.9228 
B(  6-O ,  7-H ) :   0.7793 

-------
TIMINGS
-------

Total SCF time: 0 days 0 hours 0 min 8 sec 

Total time                  ....       8.856 sec
Sum of individual times     ....       8.603 sec  ( 97.1%)

Fock matrix formation       ....       7.185 sec  ( 81.1%)
  XC integration            ....       1.503 sec  ( 20.9% of F)
    Basis function eval.    ....       0.559 sec  ( 37.2% of XC)
    Density eval.           ....       0.363 sec  ( 24.2% of XC)
    XC-Functional eval.     ....       0.116 sec  (  7.8% of XC)
    XC-Potential eval.      ....       0.377 sec  ( 25.1% of XC)
Diagonalization             ....       0.002 sec  (  0.0%)
Density matrix formation    ....       0.001 sec  (  0.0%)
Population analysis         ....       0.030 sec  (  0.3%)
Initial guess               ....       0.003 sec  (  0.0%)
Orbital Transformation      ....       0.000 sec  (  0.0%)
Orbital Orthonormalization  ....       0.001 sec  (  0.0%)
DIIS solution               ....       0.001 sec  (  0.0%)
SOSCF solution              ....       0.004 sec  (  0.1%)
Grid generation             ....       1.377 sec  ( 15.5%)

-------------------------   --------------------
FINAL SINGLE POINT ENERGY      -307.274265150077
-------------------------   --------------------

                                *** OPTIMIZATION RUN DONE ***

                            ***************************************
                            *     ORCA property calculations      *
                            ***************************************

                                    ---------------------
                                    Active property flags
                                    ---------------------
   (+) Dipole Moment


------------------------------------------------------------------------------
                       ORCA ELECTRIC PROPERTIES CALCULATION
------------------------------------------------------------------------------

Dipole Moment Calculation                       ... on
Quadrupole Moment Calculation                   ... off
Polarizability Calculation                      ... off
GBWName                                         ... /Users/lailaal-madhagi/Desktop/Testing_XAS_Analysis_code/Phenol//Results_dir_Phenol_geom_element_O_2019-11-16_18-22-27//GTE1_Phenol_geom_2019-11-16_18-22-42//opt.gbw
Electron density file                           ... /Users/lailaal-madhagi/Desktop/Testing_XAS_Analysis_code/Phenol//Results_dir_Phenol_geom_element_O_2019-11-16_18-22-27//GTE1_Phenol_geom_2019-11-16_18-22-42//opt.scfp.tmp
The origin for moment calculation is the CENTER OF MASS  = (-3.393380,  1.781959  0.015341)

-------------
DIPOLE MOMENT
-------------
                                X             Y             Z
Electronic contribution:     -0.54486       1.98966       0.00338
Nuclear contribution   :      1.06974      -1.89739      -0.00056
                        -----------------------------------------
Total Dipole Moment    :      0.52488       0.09227       0.00283
                        -----------------------------------------
Magnitude (a.u.)       :      0.53294
Magnitude (Debye)      :      1.35462



--------------------
Rotational spectrum 
--------------------
 
Rotational constants in cm-1:     0.188073     0.087034     0.059499 
Rotational constants in MHz :  5638.278218  2609.210671  1783.749683 

 Dipole components along the rotational axes: 
x,y,z [a.u.] :    -0.020806     0.532533    -0.000022 
x,y,z [Debye]:    -0.052884     1.353590    -0.000056 

 

Timings for individual modules:

Sum of individual times         ...      162.014 sec (=   2.700 min)
GTO integral calculation        ...        3.381 sec (=   0.056 min)   2.1 %
SCF iterations                  ...      103.438 sec (=   1.724 min)  63.8 %
SCF Gradient evaluation         ...       53.388 sec (=   0.890 min)  33.0 %
Geometry relaxation             ...        1.808 sec (=   0.030 min)   1.1 %
                             ****ORCA TERMINATED NORMALLY****
TOTAL RUN TIME: 0 days 0 hours 2 minutes 42 seconds 962 msec
