
                                 *****************
                                 * O   R   C   A *
                                 *****************

           --- An Ab Initio, DFT and Semiempirical electronic structure package ---

                  #######################################################
                  #                        -***-                        #
                  #          Department of theory and spectroscopy      #
                  #               Directorship: Frank Neese             #
                  #        Max Planck Institute fuer Kohlenforschung    #
                  #                Kaiser Wilhelm Platz 1               #
                  #                 D-45470 Muelheim/Ruhr               #
                  #                      Germany                        #
                  #                                                     #
                  #                  All rights reserved                #
                  #                        -***-                        #
                  #######################################################


                         Program Version 4.1.0  - RELEASE  -


 With contributions from (in alphabetic order):
   Daniel Aravena         : Magnetic Properties
   Michael Atanasov       : Ab Initio Ligand Field Theory
   Alexander A. Auer      : GIAO ZORA
   Ute Becker             : Parallelization
   Giovanni Bistoni       : ED, Open-shell LED
   Martin Brehm           : Molecular dynamics
   Dmytro Bykov           : SCF Hessian
   Vijay G. Chilkuri      : MRCI spin determinant printing
   Dipayan Datta          : RHF DLPNO-CCSD density
   Achintya Kumar Dutta   : EOM-CC, STEOM-CC
   Dmitry Ganyushin       : Spin-Orbit,Spin-Spin,Magnetic field MRCI
   Miquel Garcia          : C-PCM Hessian
   Yang Guo               : DLPNO-NEVPT2, CIM, IAO-localization
   Andreas Hansen         : Spin unrestricted coupled pair/coupled cluster methods
   Benjamin Helmich-Paris : CASSCF linear response (MC-RPA)
   Lee Huntington         : MR-EOM, pCC
   Robert Izsak           : Overlap fitted RIJCOSX, COSX-SCS-MP3, EOM
   Christian Kollmar      : KDIIS, OOCD, Brueckner-CCSD(T), CCSD density
   Simone Kossmann        : Meta GGA functionals, TD-DFT gradient, OOMP2, MP2 Hessian
   Martin Krupicka        : AUTO-CI
   Lucas Lang             : DCDCAS
   Dagmar Lenk            : GEPOL surface, SMD
   Dimitrios Liakos       : Extrapolation schemes; parallel MDCI
   Dimitrios Manganas     : ROCIS; embedding schemes
   Dimitrios Pantazis     : SARC Basis sets
   Taras Petrenko         : DFT Hessian,TD-DFT gradient, ASA, ECA, R-Raman, ABS, FL, XAS/XES, NRVS
   Peter Pinski           : DLPNO-MP2, DLPNO-MP2 Gradient
   Christoph Reimann      : Effective Core Potentials
   Marius Retegan         : Local ZFS, SOC
   Christoph Riplinger    : Optimizer, TS searches, QM/MM, DLPNO-CCSD(T), (RO)-DLPNO pert. Triples
   Tobias Risthaus        : Range-separated hybrids, TD-DFT gradient, RPA, STAB
   Michael Roemelt        : Restricted open shell CIS
   Masaaki Saitow         : Open-shell DLPNO
   Barbara Sandhoefer     : DKH picture change effects
   Avijit Sen             : IP-ROCIS
   Kantharuban Sivalingam : CASSCF convergence, NEVPT2, FIC-MRCI
   Bernardo de Souza      : ESD, SOC TD-DFT
   Georgi Stoychev        : AutoAux, RI-MP2 NMR
   Willem Van den Heuvel  : Paramagnetic NMR
   Boris Wezisla          : Elementary symmetry handling
   Frank Wennmohs         : Technical directorship


 We gratefully acknowledge several colleagues who have allowed us to
 interface, adapt or use parts of their codes:
   Stefan Grimme, W. Hujo, H. Kruse,             : VdW corrections, initial TS optimization,
                  C. Bannwarth                     DFT functionals, gCP, sTDA/sTD-DF
   Ed Valeev                                     : LibInt (2-el integral package), F12 methods
   Garnet Chan, S. Sharma, J. Yang, R. Olivares  : DMRG
   Ulf Ekstrom                                   : XCFun DFT Library
   Mihaly Kallay                                 : mrcc  (arbitrary order and MRCC methods)
   Andreas Klamt, Michael Diedenhofen            : otool_cosmo (COSMO solvation model)
   Jiri Pittner, Ondrej Demel                    : Mk-CCSD
   Frank Weinhold                                : gennbo (NPA and NBO analysis)
   Christopher J. Cramer and Donald G. Truhlar   : smd solvation model
   Lars Goerigk                                  : TD-DFT with DH, B97 family of functionals
   V. Asgeirsson, H. Jonsson                     : NEB implementation
   FAccTs GmbH                                   : IRC, NEB, NEB-TS, Multilevel


 Your calculation uses the libint2 library for the computation of 2-el integrals
 For citations please refer to: http://libint.valeyev.net

 This ORCA versions uses:
   CBLAS   interface :  Fast vector & matrix operations
   LAPACKE interface :  Fast linear algebra routines
   SCALAPACK package :  Parallel linear algebra routines




***************************************
The coordinates will be read from file: /Users/lailaal-madhagi/Desktop/Testing_XAS_Analysis_code/Benzophenone//Results_dir_Benzophenone_geom_element_O_2019-11-06_07-18-00//GTE1_Benzophenone_geom_2019-11-06_07-18-09//opt.xyz
***************************************


----- Orbital basis set information -----
Your calculation utilizes the basis: 6-31G*
   H-He, Li-Ne : W. J. Hehre, R. Ditchfield and J.A. Pople, J. Chem. Phys. 56, 2257 (1972).
                 Note: He and Ne are unpublished basis sets taken from the Gaussian program.
                 Note: Li and B from J. D. Dill and J. A. Pople, J. Chem. Phys. 62, 2921 (1975).
   Na - Ar     : M. M. Francl, W. J. Pietro, W. J. Hehre, J. S. Binkley, M. S. Gordon, 
                 D. J. DeFrees and J. A. Pople, J. Chem. Phys. 77, 3654 (1982).
   K - Zn      : V. A. Rassolov, J. A. Pople, M. A. Ratner, and T. L. Windus, J. Chem. Phys. 109, 1223 (1998).

================================================================================
                                        WARNINGS
                       Please study these warnings very carefully!
================================================================================


INFO   : the flag for use of LIBINT has been found!

================================================================================
                                       INPUT FILE
================================================================================
NAME = /Users/lailaal-madhagi/Desktop/Testing_XAS_Analysis_code/Benzophenone//Results_dir_Benzophenone_geom_element_O_2019-11-06_07-18-00//GTE1_Benzophenone_geom_2019-11-06_07-18-09//freq.inp
|  1> ! B3LYP 6-31G* TIGHTSCF Grid3 FinalGrid5 Freq 
|  2> !NormalPrint 
|  3> %output 
|  4> Print[P_Basis] 2 
|  5> Print[P_MOS] 1 
|  6> end 
|  7> *xyzfile 0 1 /Users/lailaal-madhagi/Desktop/Testing_XAS_Analysis_code/Benzophenone//Results_dir_Benzophenone_geom_element_O_2019-11-06_07-18-00//GTE1_Benzophenone_geom_2019-11-06_07-18-09//opt.xyz                           ****END OF INPUT****
================================================================================

                       ****************************
                       * Single Point Calculation *
                       ****************************

---------------------------------
CARTESIAN COORDINATES (ANGSTROEM)
---------------------------------
  C     -2.264607    1.721516   -0.100134
  C     -1.721291    2.741428   -0.885119
  C     -0.339569    2.855711   -1.048817
  C     -1.413123    0.807605    0.526125
  C     -0.030097    0.914908    0.378123
  C      0.501894    1.940034   -0.408272
  H     -2.375227    3.452668   -1.383474
  H      0.083136    3.641042   -1.667245
  H     -1.824432    0.008874    1.138025
  H     -3.341179    1.638620    0.020463
  H      0.649247    0.216383    0.857094
  O      1.873398    1.940865   -0.577942
  C      2.580938    3.126237   -0.640733
  C      2.289033    4.225237    0.174016
  C      3.099025    5.360121    0.103390
  C      4.195418    5.401232   -0.761376
  C      4.481447    4.292820   -1.562654
  C      3.675564    3.155368   -1.508671
  H      1.443367    4.188312    0.853279
  H      4.821911    6.287652   -0.808749
  H      2.872458    6.213954    0.737044
  H      5.333133    4.312380   -2.237889
  H      3.879316    2.283934   -2.123434

----------------------------
CARTESIAN COORDINATES (A.U.)
----------------------------
  NO LB      ZA    FRAG     MASS         X           Y           Z
   0 C     6.0000    0    12.011   -4.279488    3.253193   -0.189226
   1 C     6.0000    0    12.011   -3.252769    5.180547   -1.672632
   2 C     6.0000    0    12.011   -0.641691    5.396511   -1.981977
   3 C     6.0000    0    12.011   -2.670416    1.526152    0.994232
   4 C     6.0000    0    12.011   -0.056876    1.728925    0.714549
   5 C     6.0000    0    12.011    0.948442    3.666133   -0.771523
   6 H     1.0000    0     1.008   -4.488528    6.524597   -2.614388
   7 H     1.0000    0     1.008    0.157104    6.880573   -3.150636
   8 H     1.0000    0     1.008   -3.447677    0.016769    2.150556
   9 H     1.0000    0     1.008   -6.313912    3.096544    0.038670
  10 H     1.0000    0     1.008    1.226899    0.408904    1.619672
  11 O     8.0000    0    15.999    3.540209    3.667704   -1.092151
  12 C     6.0000    0    12.011    4.877266    5.907731   -1.210809
  13 C     6.0000    0    12.011    4.325646    7.984542    0.328842
  14 C     6.0000    0    12.011    5.856309   10.129160    0.195378
  15 C     6.0000    0    12.011    7.928192   10.206849   -1.438793
  16 C     6.0000    0    12.011    8.468708    8.112255   -2.952987
  17 C     6.0000    0    12.011    6.945809    5.962782   -2.850975
  18 H     1.0000    0     1.008    2.727569    7.914762    1.612464
  19 H     1.0000    0     1.008    9.112092   11.881941   -1.528314
  20 H     1.0000    0     1.008    5.428159   11.742672    1.392811
  21 H     1.0000    0     1.008   10.078161    8.149218   -4.228998
  22 H     1.0000    0     1.008    7.330845    4.316010   -4.012709

--------------------------------
INTERNAL COORDINATES (ANGSTROEM)
--------------------------------
 C      0   0   0     0.000000000000     0.00000000     0.00000000
 C      1   0   0     1.397001423104     0.00000000     0.00000000
 C      2   1   0     1.396071649585   120.70178473     0.00000000
 C      1   2   3     1.397303712213   119.49524696     0.00000000
 C      4   1   2     1.395055405824   120.41541731     0.42113474
 C      5   4   1     1.397253464566   119.57736221   359.64844347
 H      2   1   3     1.087130596301   120.08494931   179.50253475
 H      3   2   1     1.085300832527   120.76568660   179.32178131
 H      4   1   2     1.086999887352   120.15344114   180.09956222
 H      1   2   3     1.086471863515   120.22822626   180.11786974
 H      5   4   1     1.085752237427   121.60157706   179.91319758
 O      6   5   4     1.381958902406   116.57704825   183.76758852
 C     12   6   5     1.381905099925   120.94564411   216.09660068
 C     13  12   6     1.398865937966   122.72438065    39.57873370
 C     14  13  12     1.396078392403   119.21682331   176.37196678
 C     15  14  13     1.396992842112   120.70284615   359.54347701
 C     16  15  14     1.397295126434   119.49099264     0.00000000
 C     17  16  15     1.395048413245   120.42030168     0.41598043
 H     14  13  12     1.085317151011   120.02592534   356.57665566
 H     16  15  14     1.086498088700   120.23458287   180.12382347
 H     15  14  13     1.087143717528   119.21246895   180.03639491
 H     17  16  15     1.087057785991   120.15286955   180.12707408
 H     18  17  16     1.085746791484   121.60719731   179.92660572

---------------------------
INTERNAL COORDINATES (A.U.)
---------------------------
 C      0   0   0     0.000000000000     0.00000000     0.00000000
 C      1   0   0     2.639950098365     0.00000000     0.00000000
 C      2   1   0     2.638193081047   120.70178473     0.00000000
 C      1   2   3     2.640521341994   119.49524696     0.00000000
 C      4   1   2     2.636272658654   120.41541731     0.42113474
 C      5   4   1     2.640426387703   119.57736221   359.64844347
 H      2   1   3     2.054379098815   120.08494931   179.50253475
 H      3   2   1     2.050921346393   120.76568660   179.32178131
 H      4   1   2     2.054132094698   120.15344114   180.09956222
 H      1   2   3     2.053134274254   120.22822626   180.11786974
 H      5   4   1     2.051774378030   121.60157706   179.91319758
 O      6   5   4     2.611523853882   116.57704825   183.76758852
 C     12   6   5     2.611422181928   120.94564411   216.09660068
 C     13  12   6     2.643473520826   122.72438065    39.57873370
 C     14  13  12     2.638205823127   119.21682331   176.37196678
 C     15  14  13     2.639933882639   120.70284615   359.54347701
 C     16  15  14     2.640505117223   119.49099264     0.00000000
 C     17  16  15     2.636259444595   120.42030168     0.41598043
 H     14  13  12     2.050952183859   120.02592534   356.57665566
 H     16  15  14     2.053183832673   120.23458287   180.12382347
 H     15  14  13     2.054403894341   119.21246895   180.03639491
 H     17  16  15     2.054241507269   120.15286955   180.12707408
 H     18  17  16     2.051764086688   121.60719731   179.92660572

---------------------
BASIS SET INFORMATION
---------------------
There are 3 groups of distinct atoms

 Group   1 Type C   : 10s4p1d contracted to 3s2p1d pattern {631/31/1}
 Group   2 Type H   : 4s contracted to 2s pattern {31}
 Group   3 Type O   : 10s4p1d contracted to 3s2p1d pattern {631/31/1}

Atom   0C    basis set group =>   1
Atom   1C    basis set group =>   1
Atom   2C    basis set group =>   1
Atom   3C    basis set group =>   1
Atom   4C    basis set group =>   1
Atom   5C    basis set group =>   1
Atom   6H    basis set group =>   2
Atom   7H    basis set group =>   2
Atom   8H    basis set group =>   2
Atom   9H    basis set group =>   2
Atom  10H    basis set group =>   2
Atom  11O    basis set group =>   3
Atom  12C    basis set group =>   1
Atom  13C    basis set group =>   1
Atom  14C    basis set group =>   1
Atom  15C    basis set group =>   1
Atom  16C    basis set group =>   1
Atom  17C    basis set group =>   1
Atom  18H    basis set group =>   2
Atom  19H    basis set group =>   2
Atom  20H    basis set group =>   2
Atom  21H    basis set group =>   2
Atom  22H    basis set group =>   2

-------------------------
BASIS SET IN INPUT FORMAT
-------------------------

 # Basis set for element : H 
 NewGTO H 
 S 3 
   1      18.7311370000      0.0334945995
   2       2.8253937000      0.2347269467
   3       0.6401217000      0.8137573184
 S 1 
   1       0.1612778000      1.0000000000
  end;

 # Basis set for element : C 
 NewGTO C 
 S 6 
   1    3047.5249000000      0.0018347002
   2     457.3695100000      0.0140373012
   3     103.9486900000      0.0688426061
   4      29.2101550000      0.2321844206
   5       9.2866630000      0.4679413416
   6       3.1639270000      0.3623120322
 S 3 
   1       7.8682724000     -0.1193324086
   2       1.8812885000     -0.1608542116
   3       0.5442493000      1.1434564826
 P 3 
   1       7.8682724000      0.0689990956
   2       1.8812885000      0.3164239798
   3       0.5442493000      0.7443082524
 S 1 
   1       0.1687144000      1.0000000000
 P 1 
   1       0.1687144000      1.0000000000
 D 1 
   1       0.8000000000      1.0000000000
  end;

 # Basis set for element : O 
 NewGTO O 
 S 6 
   1    5484.6717000000      0.0018310998
   2     825.2349500000      0.0139500985
   3     188.0469600000      0.0684450927
   4      52.9645000000      0.2327142753
   5      16.8975700000      0.4701929501
   6       5.7996353000      0.3585208619
 S 3 
   1      15.5396160000     -0.1107775038
   2       3.5999336000     -0.1480263051
   3       1.0137618000      1.1307670390
 P 3 
   1      15.5396160000      0.0708742995
   2       3.5999336000      0.3397527978
   3       1.0137618000      0.7271585953
 S 1 
   1       0.2700058000      1.0000000000
 P 1 
   1       0.2700058000      1.0000000000
 D 1 
   1       0.8000000000      1.0000000000
  end;

------------------------------------------------------------------------------
                           ORCA GTO INTEGRAL CALCULATION
------------------------------------------------------------------------------

                         BASIS SET STATISTICS AND STARTUP INFO

 # of primitive gaussian shells          ...  235
 # of primitive gaussian functions       ...  391
 # of contracted shells                  ...   98
 # of contracted basis functions         ...  202
 Highest angular momentum                ...    2
 Maximum contraction depth               ...    6
 Integral package used                   ... LIBINT
 Integral threshhold            Thresh   ...  2.500e-11
 Primitive cut-off              TCut     ...  2.500e-12


------------------------------ INTEGRAL EVALUATION ----------------------------


 * One electron integrals 
 Pre-screening matrix                    ... done
 Shell pair data                         ... done (   0.002 sec)

-------------------------------------------------------------------------------
                                 ORCA SCF
-------------------------------------------------------------------------------

------------
SCF SETTINGS
------------
Hamiltonian:
 Density Functional     Method          .... DFT(GTOs)
 Exchange Functional    Exchange        .... B88
   X-Alpha parameter    XAlpha          ....  0.666667
   Becke's b parameter  XBeta           ....  0.004200
 Correlation Functional Correlation     .... LYP
 LDA part of GGA corr.  LDAOpt          .... VWN-5
 Gradients option       PostSCFGGA      .... off
 Hybrid DFT is turned on
   Fraction HF Exchange ScalHFX         ....  0.200000
   Scaling of DF-GGA-X  ScalDFX         ....  0.720000
   Scaling of DF-GGA-C  ScalDFC         ....  0.810000
   Scaling of DF-LDA-C  ScalLDAC        ....  1.000000
   Perturbative correction              ....  0.000000
   Density functional embedding theory  .... OFF
   NL short-range parameter             ....  4.800000


General Settings:
 Integral files         IntName         .... /Users/lailaal-madhagi/Desktop/Testing_XAS_Analysis_code/Benzophenone//Results_dir_Benzophenone_geom_element_O_2019-11-06_07-18-00//GTE1_Benzophenone_geom_2019-11-06_07-18-09//freq
 Hartree-Fock type      HFTyp           .... RHF
 Total Charge           Charge          ....    0
 Multiplicity           Mult            ....    1
 Number of Electrons    NEL             ....   90
 Basis Dimension        Dim             ....  202
 Nuclear Repulsion      ENuc            ....    699.8510434989 Eh

Convergence Acceleration:
 DIIS                   CNVDIIS         .... on
   Start iteration      DIISMaxIt       ....    12
   Startup error        DIISStart       ....  0.200000
   # of expansion vecs  DIISMaxEq       ....     5
   Bias factor          DIISBfac        ....   1.050
   Max. coefficient     DIISMaxC        ....  10.000
 Newton-Raphson         CNVNR           .... off
 SOSCF                  CNVSOSCF        .... on
   Start iteration      SOSCFMaxIt      ....   150
   Startup grad/error   SOSCFStart      ....  0.003300
 Level Shifting         CNVShift        .... on
   Level shift para.    LevelShift      ....    0.2500
   Turn off err/grad.   ShiftErr        ....    0.0010
 Zerner damping         CNVZerner       .... off
 Static damping         CNVDamp         .... on
   Fraction old density DampFac         ....    0.7000
   Max. Damping (<1)    DampMax         ....    0.9800
   Min. Damping (>=0)   DampMin         ....    0.0000
   Turn off err/grad.   DampErr         ....    0.1000
 Fernandez-Rico         CNVRico         .... off

SCF Procedure:
 Maximum # iterations   MaxIter         ....   125
 SCF integral mode      SCFMode         .... Direct
   Integral package                     .... LIBINT
 Reset frequency        DirectResetFreq ....    20
 Integral Threshold     Thresh          ....  2.500e-11 Eh
 Primitive CutOff       TCut            ....  2.500e-12 Eh

Convergence Tolerance:
 Convergence Check Mode ConvCheckMode   .... Total+1el-Energy
 Convergence forced     ConvForced      .... 0
 Energy Change          TolE            ....  1.000e-08 Eh
 1-El. energy change                    ....  1.000e-05 Eh
 Orbital Gradient       TolG            ....  1.000e-05
 Orbital Rotation angle TolX            ....  1.000e-05
 DIIS Error             TolErr          ....  5.000e-07


Diagonalization of the overlap matrix:
Smallest eigenvalue                        ... 4.828e-04
Time for diagonalization                   ...    0.005 sec
Threshold for overlap eigenvalues          ... 1.000e-08
Number of eigenvalues below threshold      ... 0
Time for construction of square roots      ...    0.005 sec
Total time needed                          ...    0.010 sec

-------------------
DFT GRID GENERATION
-------------------

General Integration Accuracy     IntAcc      ...  4.340
Radial Grid Type                 RadialGrid  ... Gauss-Chebyshev
Angular Grid (max. acc.)         AngularGrid ... Lebedev-194
Angular grid pruning method      GridPruning ... 3 (G Style)
Weight generation scheme         WeightScheme... Becke
Basis function cutoff            BFCut       ...    1.0000e-11
Integration weight cutoff        WCut        ...    1.0000e-14
Grids for H and He will be reduced by one unit

# of grid points (after initial pruning)     ...  57946 (   0.0 sec)
# of grid points (after weights+screening)   ...  52642 (   0.2 sec)
nearest neighbour list constructed           ...    0.0 sec
Grid point re-assignment to atoms done       ...    0.0 sec
Grid point division into batches done        ...    0.1 sec
Reduced shell lists constructed in    0.5 sec

Total number of grid points                  ...    52642
Total number of batches                      ...      835
Average number of points per batch           ...       63
Average number of grid points per atom       ...     2289
Average number of shells per batch           ...    55.34 (56.47%)
Average number of basis functions per batch  ...   115.64 (57.25%)
Average number of large shells per batch     ...    39.37 (71.13%)
Average number of large basis fcns per batch ...    83.36 (72.09%)
Maximum spatial batch extension              ...  19.04, 19.01, 22.14 au
Average spatial batch extension              ...   2.92,  3.05,  3.23 au

Time for grid setup =    0.731 sec

------------------------------
INITIAL GUESS: MODEL POTENTIAL
------------------------------
Loading Hartree-Fock densities                     ... done
Calculating cut-offs                               ... done
Setting up the integral package                    ... done
Initializing the effective Hamiltonian             ... done
Starting the Coulomb interaction                   ... done (   0.2 sec)
Reading the grid                                   ... done
Mapping shells                                     ... done
Starting the XC term evaluation                    ... done (   0.5 sec)
  promolecular density results
     # of electrons  =     89.994549955
     EX              =    -72.856154643
     EC              =     -3.027624383
     EX+EC           =    -75.883779026
Transforming the Hamiltonian                       ... done (   0.0 sec)
Diagonalizing the Hamiltonian                      ... done (   0.0 sec)
Back transforming the eigenvectors                 ... done (   0.0 sec)
Now organizing SCF variables                       ... done
                      ------------------
                      INITIAL GUESS DONE (   1.6 sec)
                      ------------------
--------------
SCF ITERATIONS
--------------
               ***  Starting incremental Fock matrix formation  ***

                         ----------------------------
                         !        ITERATION     0   !
                         ----------------------------
   Total Energy        :    -537.892789039991 Eh
   Energy Change       :    -537.892789039991 Eh
   MAX-DP              :       0.044335933864
   RMS-DP              :       0.001850473705
   Actual Damping      :       0.7000
   Actual Level Shift  :       0.2500 Eh
   Int. Num. El.       :    89.99990432 (UP=   44.99995216 DN=   44.99995216)
   Exchange            :   -59.57175119
   Correlation         :    -3.60821636


                         ----------------------------
                         !        ITERATION     1   !
                         ----------------------------
   Total Energy        :    -538.016191925496 Eh
   Energy Change       :      -0.123402885505 Eh
   MAX-DP              :       0.030490266519
   RMS-DP              :       0.001369635615
   Actual Damping      :       0.7000
   Actual Level Shift  :       0.2500 Eh
   Int. Num. El.       :    89.99993014 (UP=   44.99996507 DN=   44.99996507)
   Exchange            :   -59.24026237
   Correlation         :    -3.59407963

                               ***Turning on DIIS***

                         ----------------------------
                         !        ITERATION     2   !
                         ----------------------------
   Total Energy        :    -538.070723586138 Eh
   Energy Change       :      -0.054531660642 Eh
   MAX-DP              :       0.052639192053
   RMS-DP              :       0.002402203268
   Actual Damping      :       0.0000
   Actual Level Shift  :       0.2500 Eh
   Int. Num. El.       :    89.99994412 (UP=   44.99997206 DN=   44.99997206)
   Exchange            :   -59.00702479
   Correlation         :    -3.58374901
   DIIS-Error          :       0.034020444545


                         ----------------------------
                         !        ITERATION     3   !
                         ----------------------------
   Total Energy        :    -538.149506451194 Eh
   Energy Change       :      -0.078782865056 Eh
   MAX-DP              :       0.023783510903
   RMS-DP              :       0.000933588270
   Actual Damping      :       0.0000
   Actual Level Shift  :       0.2500 Eh
   Int. Num. El.       :    89.99996065 (UP=   44.99998032 DN=   44.99998032)
   Exchange            :   -58.61589169
   Correlation         :    -3.56608544
   DIIS-Error          :       0.040443912963
   DIIS coefficients:
      0.55534   0.44466


                         ----------------------------
                         !        ITERATION     4   !
                         ----------------------------
   Total Energy        :    -538.168748395015 Eh
   Energy Change       :      -0.019241943820 Eh
   MAX-DP              :       0.009476293150
   RMS-DP              :       0.000330475417
   Actual Damping      :       0.0000
   Actual Level Shift  :       0.2500 Eh
   Int. Num. El.       :    89.99995144 (UP=   44.99997572 DN=   44.99997572)
   Exchange            :   -58.74937880
   Correlation         :    -3.57270695
   DIIS-Error          :       0.009722108249
   DIIS coefficients:
      0.18598   0.01118   0.80284

                      *** Initiating the SOSCF procedure ***
                           *** Shutting down DIIS ***
                      *** Re-Reading the Fockian *** 
                      *** Removing any level shift *** 

                         ----------------------------
                         !        ITERATION     5   !
                         ----------------------------
   Total Energy        :    -538.169812114902 Eh
   Energy Change       :      -0.001063719888 Eh
   MAX-DP              :       0.002905860197
   RMS-DP              :       0.000094265255
   Orbital gradient    :       0.000880620245
   Orbital Rotation    :       0.000880620245
   Actual Damping      :       0.0000
   Int. Num. El.       :    89.99995112 (UP=   44.99997556 DN=   44.99997556)
   Exchange            :   -58.79133082
   Correlation         :    -3.57464128

               *** Restarting incremental Fock matrix formation ***

                         ----------------------------
                         !        ITERATION     6   !
                         ----------------------------
   Total Energy        :    -538.169882204541 Eh
   Energy Change       :      -0.000070089638 Eh
   MAX-DP              :       0.001217293776
   RMS-DP              :       0.000043385221
   Orbital gradient    :       0.000193231385
   Orbital Rotation    :       0.000738869998
   Actual Damping      :       0.0000
   Int. Num. El.       :    89.99995151 (UP=   44.99997576 DN=   44.99997576)
   Exchange            :   -58.79694665
   Correlation         :    -3.57491618


                         ----------------------------
                         !        ITERATION     7   !
                         ----------------------------
   Total Energy        :    -538.169884023776 Eh
   Energy Change       :      -0.000001819235 Eh
   MAX-DP              :       0.000670334469
   RMS-DP              :       0.000013615164
   Orbital gradient    :       0.000183623365
   Orbital Rotation    :       0.000344181909
   Actual Damping      :       0.0000
   Int. Num. El.       :    89.99995184 (UP=   44.99997592 DN=   44.99997592)
   Exchange            :   -58.79898531
   Correlation         :    -3.57498935


                         ----------------------------
                         !        ITERATION     8   !
                         ----------------------------
   Total Energy        :    -538.169884927652 Eh
   Energy Change       :      -0.000000903876 Eh
   MAX-DP              :       0.000299309041
   RMS-DP              :       0.000011510512
   Orbital gradient    :       0.000106526060
   Orbital Rotation    :       0.000334135212
   Actual Damping      :       0.0000
   Int. Num. El.       :    89.99995203 (UP=   44.99997601 DN=   44.99997601)
   Exchange            :   -58.79810002
   Correlation         :    -3.57496255


                         ----------------------------
                         !        ITERATION     9   !
                         ----------------------------
   Total Energy        :    -538.169885106001 Eh
   Energy Change       :      -0.000000178350 Eh
   MAX-DP              :       0.000128113999
   RMS-DP              :       0.000003845164
   Orbital gradient    :       0.000076410681
   Orbital Rotation    :       0.000132624860
   Actual Damping      :       0.0000
   Int. Num. El.       :    89.99995194 (UP=   44.99997597 DN=   44.99997597)
   Exchange            :   -58.79777509
   Correlation         :    -3.57494435


                         ----------------------------
                         !        ITERATION    10   !
                         ----------------------------
   Total Energy        :    -538.169885199193 Eh
   Energy Change       :      -0.000000093191 Eh
   MAX-DP              :       0.000103292161
   RMS-DP              :       0.000003447911
   Orbital gradient    :       0.000026491607
   Orbital Rotation    :       0.000028884085
   Actual Damping      :       0.0000
   Int. Num. El.       :    89.99995188 (UP=   44.99997594 DN=   44.99997594)
   Exchange            :   -58.79804093
   Correlation         :    -3.57495666


                         ----------------------------
                         !        ITERATION    11   !
                         ----------------------------
   Total Energy        :    -538.169885230083 Eh
   Energy Change       :      -0.000000030890 Eh
   MAX-DP              :       0.000030166490
   RMS-DP              :       0.000001100714
   Orbital gradient    :       0.000014990552
   Orbital Rotation    :       0.000028470863
   Actual Damping      :       0.0000
   Int. Num. El.       :    89.99995192 (UP=   44.99997596 DN=   44.99997596)
   Exchange            :   -58.79810211
   Correlation         :    -3.57496063


                         ----------------------------
                         !        ITERATION    12   !
                         ----------------------------
   Total Energy        :    -538.169885235748 Eh
   Energy Change       :      -0.000000005665 Eh
   MAX-DP              :       0.000018575576
   RMS-DP              :       0.000000857253
   Orbital gradient    :       0.000010122840
   Orbital Rotation    :       0.000024062080
   Actual Damping      :       0.0000
   Int. Num. El.       :    89.99995193 (UP=   44.99997597 DN=   44.99997597)
   Exchange            :   -58.79800281
   Correlation         :    -3.57495482


                         ----------------------------
                         !        ITERATION    13   !
                         ----------------------------
   Total Energy        :    -538.169885238697 Eh
   Energy Change       :      -0.000000002949 Eh
   MAX-DP              :       0.000008168764
   RMS-DP              :       0.000000327857
   Orbital gradient    :       0.000003719359
   Orbital Rotation    :       0.000008067742
   Actual Damping      :       0.0000
   Int. Num. El.       :    89.99995192 (UP=   44.99997596 DN=   44.99997596)
   Exchange            :   -58.79800998
   Correlation         :    -3.57495566

                  ***Gradient check signals convergence***
              ***Rediagonalizing the Fockian in SOSCF/NRSCF***

               *****************************************************
               *                     SUCCESS                       *
               *           SCF CONVERGED AFTER  14 CYCLES          *
               *****************************************************

Setting up the final grid:

General Integration Accuracy     IntAcc      ...  5.010
Radial Grid Type                 RadialGrid  ... Gauss-Chebyshev
Angular Grid (max. acc.)         AngularGrid ... Lebedev-434
Angular grid pruning method      GridPruning ... 3 (G Style)
Weight generation scheme         WeightScheme... Becke
Basis function cutoff            BFCut       ...    1.0000e-11
Integration weight cutoff        WCut        ...    1.0000e-14
Grids for H and He will be reduced by one unit

# of grid points (after initial pruning)     ... 206138 (   0.1 sec)
# of grid points (after weights+screening)   ... 185273 (   0.7 sec)
nearest neighbour list constructed           ...    0.0 sec
Grid point re-assignment to atoms done       ...    0.0 sec
Grid point division into batches done        ...    1.0 sec
Reduced shell lists constructed in    2.4 sec

Total number of grid points                  ...   185273
Total number of batches                      ...     2904
Average number of points per batch           ...       63
Average number of grid points per atom       ...     8055
Average number of shells per batch           ...    50.75 (51.78%)
Average number of basis functions per batch  ...   105.76 (52.36%)
Average number of large shells per batch     ...    35.60 (70.16%)
Average number of large basis fcns per batch ...    75.10 (71.01%)
Maximum spatial batch extension              ...  19.39, 17.69, 22.63 au
Average spatial batch extension              ...   1.96,  2.02,  2.08 au

Final grid set up in    3.3 sec
Final integration                            ... done (   2.2 sec)
Change in XC energy                          ...    -0.000136708
Integrated number of electrons               ...    90.000000962
Previous integrated no of electrons          ...    89.999951920

----------------
TOTAL SCF ENERGY
----------------

Total Energy       :         -538.17002195 Eh          -14644.35080 eV

Components:
Nuclear Repulsion  :          699.85104350 Eh           19043.91507 eV
Electronic Energy  :        -1238.02106545 Eh          -33688.26587 eV
One Electron Energy:        -2116.04178169 Eh          -57580.42421 eV
Two Electron Energy:          878.02071625 Eh           23892.15834 eV

Virial components:
Potential Energy   :        -1073.13785865 Eh          -29201.56571 eV
Kinetic Energy     :          534.96783670 Eh           14557.21491 eV
Virial Ratio       :            2.00598575


DFT components:
N(Alpha)           :       45.000000481134 electrons
N(Beta)            :       45.000000481134 electrons
N(Total)           :       90.000000962269 electrons
E(X)               :      -58.798184735976 Eh       
E(C)               :       -3.574951600424 Eh       
E(XC)              :      -62.373136336400 Eh       
DFET-embed. en.    :        0.000000000000 Eh       

---------------
SCF CONVERGENCE
---------------

  Last Energy change         ...   -1.8737e-09  Tolerance :   1.0000e-08
  Last MAX-Density change    ...    3.2849e-06  Tolerance :   1.0000e-07
  Last RMS-Density change    ...    1.6137e-07  Tolerance :   5.0000e-09
  Last Orbital Gradient      ...    1.8111e-06  Tolerance :   1.0000e-05
  Last Orbital Rotation      ...    2.8580e-06  Tolerance :   1.0000e-05

             **** THE GBW FILE WAS UPDATED (/Users/lailaal-madhagi/Desktop/Testing_XAS_Analysis_code/Benzophenone//Results_dir_Benzophenone_geom_element_O_2019-11-06_07-18-00//GTE1_Benzophenone_geom_2019-11-06_07-18-09//freq.gbw) ****
             **** DENSITY FILE WAS UPDATED (/Users/lailaal-madhagi/Desktop/Testing_XAS_Analysis_code/Benzophenone//Results_dir_Benzophenone_geom_element_O_2019-11-06_07-18-00//GTE1_Benzophenone_geom_2019-11-06_07-18-09//freq.scfp.tmp) ****
             **** ENERGY FILE WAS UPDATED (/Users/lailaal-madhagi/Desktop/Testing_XAS_Analysis_code/Benzophenone//Results_dir_Benzophenone_geom_element_O_2019-11-06_07-18-00//GTE1_Benzophenone_geom_2019-11-06_07-18-09//freq.en.tmp) ****
----------------
ORBITAL ENERGIES
----------------

  NO   OCC          E(Eh)            E(eV) 
   0   2.0000     -19.177483      -521.8458 
   1   2.0000     -10.242164      -278.7035 
   2   2.0000     -10.242150      -278.7031 
   3   2.0000     -10.184000      -277.1207 
   4   2.0000     -10.183943      -277.1192 
   5   2.0000     -10.183411      -277.1047 
   6   2.0000     -10.183368      -277.1035 
   7   2.0000     -10.180743      -277.0321 
   8   2.0000     -10.180665      -277.0300 
   9   2.0000     -10.178632      -276.9747 
  10   2.0000     -10.178555      -276.9726 
  11   2.0000     -10.177787      -276.9517 
  12   2.0000     -10.177695      -276.9492 
  13   2.0000      -1.070659       -29.1341 
  14   2.0000      -0.854950       -23.2644 
  15   2.0000      -0.840872       -22.8813 
  16   2.0000      -0.758674       -20.6446 
  17   2.0000      -0.745599       -20.2888 
  18   2.0000      -0.741961       -20.1898 
  19   2.0000      -0.718234       -19.5441 
  20   2.0000      -0.629789       -17.1374 
  21   2.0000      -0.612423       -16.6649 
  22   2.0000      -0.601348       -16.3635 
  23   2.0000      -0.575160       -15.6509 
  24   2.0000      -0.540569       -14.7096 
  25   2.0000      -0.504428       -13.7262 
  26   2.0000      -0.483206       -13.1487 
  27   2.0000      -0.469324       -12.7709 
  28   2.0000      -0.460107       -12.5201 
  29   2.0000      -0.442418       -12.0388 
  30   2.0000      -0.436734       -11.8841 
  31   2.0000      -0.420776       -11.4499 
  32   2.0000      -0.420082       -11.4310 
  33   2.0000      -0.395984       -10.7753 
  34   2.0000      -0.389460       -10.5977 
  35   2.0000      -0.365196        -9.9375 
  36   2.0000      -0.357058        -9.7160 
  37   2.0000      -0.356998        -9.7144 
  38   2.0000      -0.348709        -9.4889 
  39   2.0000      -0.331665        -9.0251 
  40   2.0000      -0.321009        -8.7351 
  41   2.0000      -0.252150        -6.8613 
  42   2.0000      -0.246727        -6.7138 
  43   2.0000      -0.243961        -6.6385 
  44   2.0000      -0.212679        -5.7873 
  45   0.0000      -0.005001        -0.1361 
  46   0.0000       0.000742         0.0202 
  47   0.0000       0.007123         0.1938 
  48   0.0000       0.018556         0.5049 
  49   0.0000       0.092081         2.5056 
  50   0.0000       0.097962         2.6657 
  51   0.0000       0.145700         3.9647 
  52   0.0000       0.146325         3.9817 
  53   0.0000       0.152664         4.1542 
  54   0.0000       0.158738         4.3195 
  55   0.0000       0.160264         4.3610 
  56   0.0000       0.171238         4.6596 
  57   0.0000       0.176725         4.8089 
  58   0.0000       0.187858         5.1119 
  59   0.0000       0.189562         5.1583 
  60   0.0000       0.191635         5.2147 
  61   0.0000       0.196280         5.3411 
  62   0.0000       0.262773         7.1504 
  63   0.0000       0.284648         7.7457 
  64   0.0000       0.301582         8.2065 
  65   0.0000       0.304312         8.2807 
  66   0.0000       0.306593         8.3428 
  67   0.0000       0.337195         9.1756 
  68   0.0000       0.340751         9.2723 
  69   0.0000       0.360318         9.8047 
  70   0.0000       0.380224        10.3464 
  71   0.0000       0.465369        12.6633 
  72   0.0000       0.475077        12.9275 
  73   0.0000       0.501259        13.6400 
  74   0.0000       0.517438        14.0802 
  75   0.0000       0.526711        14.3325 
  76   0.0000       0.539138        14.6707 
  77   0.0000       0.553557        15.0631 
  78   0.0000       0.564853        15.3704 
  79   0.0000       0.565476        15.3874 
  80   0.0000       0.578826        15.7506 
  81   0.0000       0.581947        15.8356 
  82   0.0000       0.597829        16.2677 
  83   0.0000       0.598197        16.2778 
  84   0.0000       0.603667        16.4266 
  85   0.0000       0.606916        16.5150 
  86   0.0000       0.614288        16.7156 
  87   0.0000       0.615790        16.7565 
  88   0.0000       0.619800        16.8656 
  89   0.0000       0.621725        16.9180 
  90   0.0000       0.625485        17.0203 
  91   0.0000       0.629373        17.1261 
  92   0.0000       0.630696        17.1621 
  93   0.0000       0.645269        17.5587 
  94   0.0000       0.667348        18.1595 
  95   0.0000       0.669984        18.2312 
  96   0.0000       0.694605        18.9012 
  97   0.0000       0.703576        19.1453 
  98   0.0000       0.761986        20.7347 
  99   0.0000       0.787797        21.4370 
 100   0.0000       0.814643        22.1676 
 101   0.0000       0.840509        22.8714 
 102   0.0000       0.840573        22.8731 
 103   0.0000       0.842705        22.9312 
 104   0.0000       0.847556        23.0632 
 105   0.0000       0.851498        23.1704 
 106   0.0000       0.864316        23.5192 
 107   0.0000       0.870201        23.6794 
 108   0.0000       0.876072        23.8391 
 109   0.0000       0.909743        24.7554 
 110   0.0000       0.923506        25.1299 
 111   0.0000       0.925614        25.1872 
 112   0.0000       0.944324        25.6964 
 113   0.0000       0.950894        25.8751 
 114   0.0000       0.970255        26.4020 
 115   0.0000       0.989575        26.9277 
 116   0.0000       0.993958        27.0470 
 117   0.0000       1.021128        27.7863 
 118   0.0000       1.045760        28.4566 
 119   0.0000       1.086507        29.5654 
 120   0.0000       1.087240        29.5853 
 121   0.0000       1.111602        30.2482 
 122   0.0000       1.123679        30.5769 
 123   0.0000       1.158737        31.5308 
 124   0.0000       1.176208        32.0063 
 125   0.0000       1.180368        32.1194 
 126   0.0000       1.200702        32.6728 
 127   0.0000       1.201184        32.6859 
 128   0.0000       1.231030        33.4980 
 129   0.0000       1.288434        35.0601 
 130   0.0000       1.320646        35.9366 
 131   0.0000       1.324649        36.0455 
 132   0.0000       1.401775        38.1442 
 133   0.0000       1.403258        38.1846 
 134   0.0000       1.427856        38.8539 
 135   0.0000       1.440516        39.1984 
 136   0.0000       1.441081        39.2138 
 137   0.0000       1.458176        39.6790 
 138   0.0000       1.477168        40.1958 
 139   0.0000       1.485944        40.4346 
 140   0.0000       1.491186        40.5772 
 141   0.0000       1.495028        40.6818 
 142   0.0000       1.509014        41.0624 
 143   0.0000       1.514851        41.2212 
 144   0.0000       1.526423        41.5361 
 145   0.0000       1.691870        46.0381 
 146   0.0000       1.740926        47.3730 
 147   0.0000       1.771541        48.2061 
 148   0.0000       1.783273        48.5253 
 149   0.0000       1.821520        49.5661 
 150   0.0000       1.825888        49.6849 
 151   0.0000       1.854562        50.4652 
 152   0.0000       1.884671        51.2845 
 153   0.0000       1.902255        51.7630 
 154   0.0000       1.920892        52.2701 
 155   0.0000       1.937088        52.7109 
 156   0.0000       1.960001        53.3343 
 157   0.0000       1.962542        53.4035 
 158   0.0000       1.965423        53.4819 
 159   0.0000       1.975016        53.7429 
 160   0.0000       1.985226        54.0208 
 161   0.0000       2.017059        54.8870 
 162   0.0000       2.074992        56.4634 
 163   0.0000       2.076092        56.4933 
 164   0.0000       2.113058        57.4992 
 165   0.0000       2.134680        58.0876 
 166   0.0000       2.143873        58.3377 
 167   0.0000       2.154556        58.6285 
 168   0.0000       2.157398        58.7058 
 169   0.0000       2.157987        58.7218 
 170   0.0000       2.187409        59.5224 
 171   0.0000       2.242789        61.0294 
 172   0.0000       2.251848        61.2759 
 173   0.0000       2.275464        61.9185 
 174   0.0000       2.305252        62.7291 
 175   0.0000       2.307898        62.8011 
 176   0.0000       2.308263        62.8110 
 177   0.0000       2.323081        63.2142 
 178   0.0000       2.390681        65.0537 
 179   0.0000       2.439140        66.3724 
 180   0.0000       2.523025        68.6550 
 181   0.0000       2.572450        69.9999 
 182   0.0000       2.576678        70.1150 
 183   0.0000       2.608980        70.9939 
 184   0.0000       2.609730        71.0144 
 185   0.0000       2.640392        71.8487 
 186   0.0000       2.655810        72.2683 
 187   0.0000       2.677615        72.8616 
 188   0.0000       2.710977        73.7694 
 189   0.0000       2.728352        74.2422 
 190   0.0000       2.739332        74.5410 
 191   0.0000       2.739419        74.5434 
 192   0.0000       2.751728        74.8783 
 193   0.0000       2.757473        75.0347 
 194   0.0000       2.785580        75.7995 
 195   0.0000       2.855423        77.7000 
 196   0.0000       2.952311        80.3365 
 197   0.0000       2.993834        81.4664 
 198   0.0000       3.102581        84.4255 
 199   0.0000       3.269410        88.9652 
 200   0.0000       3.405022        92.6554 
 201   0.0000       3.442965        93.6878 
------------------
MOLECULAR ORBITALS
------------------
                      0         1         2         3         4         5   
                 -19.17748 -10.24216 -10.24215 -10.18400 -10.18394 -10.18341
                   2.00000   2.00000   2.00000   2.00000   2.00000   2.00000
                  --------  --------  --------  --------  --------  --------
  0C   1s         0.000035 -0.000231  0.000024  0.034985 -0.000131  0.037747
  0C   2s         0.000312 -0.000708  0.000071 -0.000853 -0.000033 -0.000711
  0C   1pz        0.000004 -0.000002  0.000068  0.000726 -0.000002 -0.000584
  0C   1px        0.000124 -0.000226  0.000050 -0.000542 -0.000005 -0.000803
  0C   1py       -0.000014 -0.000000 -0.000072 -0.000940  0.000007  0.000853
  0C   3s        -0.002445  0.005540 -0.000021  0.011607  0.000371  0.011531
  0C   2pz       -0.000079 -0.000570 -0.000258 -0.001973 -0.000049  0.000857
  0C   2px       -0.002370  0.003929 -0.000377  0.005106  0.000272  0.005707
  0C   2py        0.000271  0.000515  0.000326  0.002271  0.000029 -0.001580
  0C   1dz2       0.000020 -0.000041  0.000004 -0.000012 -0.000004  0.000202
  0C   1dxz      -0.000006 -0.000002  0.000006  0.000442 -0.000003 -0.000618
  0C   1dyz       0.000062 -0.000144  0.000017  0.000920 -0.000009  0.000646
  0C   1dx2y2     0.000006  0.000000 -0.000001  0.000518 -0.000002  0.000158
  0C   1dxy       0.000012 -0.000005 -0.000011 -0.000587  0.000002  0.000886
  1C   1s        -0.000028 -0.000009 -0.000058  0.992225 -0.002252 -0.011628
  1C   2s        -0.000122 -0.000086 -0.000218  0.036164 -0.000056 -0.000531
  1C   1pz        0.000045 -0.000056 -0.000008  0.000353  0.000004 -0.000181
  1C   1px        0.000218 -0.000386  0.000111  0.000510 -0.000015  0.000022
  1C   1py       -0.000081  0.000064  0.000047 -0.000521  0.000004  0.000247
  1C   3s         0.007231 -0.008206  0.002482 -0.031182 -0.000634 -0.004286
  1C   2pz        0.000123 -0.001498 -0.000021 -0.002990 -0.000142 -0.000948
  1C   2px        0.003233 -0.002516  0.001723 -0.003971 -0.000270 -0.001501
  1C   2py       -0.000377  0.002346 -0.000119  0.004380  0.000196  0.001389
  1C   1dz2      -0.000027  0.000000 -0.000072 -0.000260  0.000004 -0.000045
  1C   1dxz       0.000014  0.000019 -0.000024 -0.000270  0.000001  0.000024
  1C   1dyz       0.000014 -0.000100 -0.000007 -0.000425  0.000003  0.000020
  1C   1dx2y2     0.000052 -0.000038  0.000104  0.000238 -0.000006  0.000083
  1C   1dxy      -0.000012 -0.000007  0.000020  0.000293  0.000000 -0.000042
  2C   1s         0.000040  0.003399 -0.000288  0.066558 -0.000143 -0.003959
  2C   2s         0.000457 -0.002026  0.000507  0.000293 -0.000046 -0.000607
  2C   1pz        0.000040 -0.000517 -0.000024 -0.000137 -0.000018 -0.000098
  2C   1px       -0.000145 -0.000520 -0.000199  0.001324  0.000010  0.000037
  2C   1py        0.000005  0.000848  0.000002  0.000097  0.000019  0.000136
  2C   3s        -0.006839  0.017920 -0.006568  0.010941  0.000661  0.003108
  2C   2pz       -0.003016  0.006059 -0.000730  0.002369  0.000411  0.001292
  2C   2px        0.006612 -0.001862  0.000734 -0.003843 -0.000432 -0.001396
  2C   2py        0.003481 -0.007993  0.000570 -0.002929 -0.000526 -0.001655
  2C   1dz2      -0.000063  0.000247  0.000020  0.000596 -0.000013 -0.000054
  2C   1dxz       0.000155 -0.000607  0.000082  0.000213 -0.000002 -0.000008
  2C   1dyz       0.000191  0.000470 -0.000072 -0.000051 -0.000011 -0.000059
  2C   1dx2y2     0.000185  0.000017 -0.000246 -0.001081 -0.000008  0.000055
  2C   1dxy      -0.000171  0.000856 -0.000110 -0.000126  0.000011 -0.000004
  3C   1s        -0.000008 -0.000029  0.000048  0.010601 -0.000208  0.993281
  3C   2s         0.000040 -0.000162  0.000209  0.000270 -0.000000  0.036252
  3C   1pz       -0.000093  0.000136 -0.000017  0.000158  0.000004 -0.000449
  3C   1px        0.000172 -0.000276 -0.000075  0.000100 -0.000011  0.000350
  3C   1py        0.000110 -0.000173  0.000058 -0.000220 -0.000008  0.000605
  3C   3s         0.005506 -0.007542 -0.001377 -0.004782 -0.000558 -0.031466
  3C   2pz       -0.000865  0.001434  0.000503  0.001274  0.000125  0.003846
  3C   2px        0.001185 -0.001838 -0.001094 -0.000937 -0.000167 -0.002469
  3C   2py        0.001112 -0.001951 -0.000544 -0.001670 -0.000107 -0.005099
  3C   1dz2       0.000008 -0.000035  0.000047 -0.000036  0.000001 -0.000358
  3C   1dxz      -0.000004 -0.000005  0.000040 -0.000051  0.000002  0.000132
  3C   1dyz       0.000020 -0.000099  0.000021 -0.000010 -0.000001 -0.000323
  3C   1dx2y2    -0.000005 -0.000005 -0.000059  0.000067 -0.000003  0.000398
  3C   1dxy       0.000009 -0.000025 -0.000021  0.000056  0.000004 -0.000269
  4C   1s         0.000033  0.003304 -0.000375 -0.001096  0.000031  0.045726
  4C   2s         0.000383 -0.001956 -0.000051 -0.000553 -0.000014 -0.000499
  4C   1pz       -0.000007  0.000670 -0.000132  0.000086  0.000004 -0.000148
  4C   1px       -0.000048 -0.000410  0.000258  0.000104  0.000013  0.001331
  4C   1py        0.000020 -0.000922  0.000186 -0.000126  0.000018  0.000103
  4C   3s        -0.006382  0.013556  0.004348  0.003287  0.000591  0.012045
  4C   2pz        0.002074 -0.003710 -0.001034 -0.000960 -0.000242 -0.001697
  4C   2px        0.004858 -0.005127 -0.000739 -0.001722 -0.000494 -0.004617
  4C   2py       -0.003130  0.005895  0.000981  0.001414  0.000216  0.002620
  4C   1dz2       0.000010  0.000005 -0.000014 -0.000040  0.000006  0.000591
  4C   1dxz      -0.000164  0.000563 -0.000072 -0.000011  0.000003  0.000276
  4C   1dyz       0.000113  0.000748 -0.000114 -0.000059 -0.000016 -0.000029
  4C   1dx2y2     0.000062  0.000267  0.000043  0.000037 -0.000001 -0.001066
  4C   1dxy       0.000232 -0.000728  0.000114  0.000005 -0.000010 -0.000234
  5C   1s        -0.000092  0.990236 -0.098668 -0.000201  0.000015 -0.000098
  5C   2s        -0.001036  0.037457 -0.003903 -0.000227 -0.000082 -0.000182
  5C   1pz        0.000098 -0.000165  0.000127  0.000086 -0.000021 -0.000102
  5C   1px       -0.000327  0.001364 -0.000257  0.000231 -0.000041  0.000144
  5C   1py        0.000016  0.000177 -0.000259 -0.000106 -0.000054  0.000145
  5C   3s        -0.001834 -0.028929  0.000525 -0.004499  0.000048 -0.004992
  5C   2pz        0.002152 -0.000413 -0.002114  0.000277 -0.000036 -0.000822
  5C   2px       -0.013658  0.016553 -0.000980  0.001062  0.001302  0.001203
  5C   2py       -0.001995 -0.001912  0.004475 -0.000401  0.000175  0.001079
  5C   1dz2       0.000021 -0.000822 -0.000035  0.000045 -0.000038  0.000014
  5C   1dxz       0.000019 -0.000270  0.000096 -0.000070 -0.000013  0.000087
  5C   1dyz       0.000242 -0.000715  0.000107 -0.000021  0.000008  0.000004
  5C   1dx2y2    -0.000045  0.001035 -0.000069 -0.000068  0.000029 -0.000026
  5C   1dxy      -0.000146 -0.000115  0.000083  0.000125 -0.000010 -0.000091
  6H   1s        -0.000079 -0.000064  0.000005 -0.001344 -0.000003 -0.000035
  6H   2s         0.000143 -0.000384  0.000152  0.002814 -0.000091 -0.000313
  7H   1s        -0.000419  0.000049 -0.000173 -0.000237  0.000033  0.000109
  7H   2s        -0.001813  0.002630  0.001039  0.001145  0.000344  0.000735
  8H   1s        -0.000039 -0.000013 -0.000037 -0.000064  0.000001 -0.001356
  8H   2s         0.000056 -0.000159 -0.000316 -0.000229 -0.000024  0.002758
  9H   1s        -0.000121  0.000136 -0.000030 -0.000184  0.000011 -0.000184
  9H   2s        -0.000682  0.001170 -0.000132  0.001291  0.000075  0.001294
 10H   1s        -0.000266  0.000073  0.000114  0.000084  0.000028 -0.000221
 10H   2s        -0.001868  0.002340  0.000179  0.000721  0.000177  0.001200
 11O   1s        -0.995275  0.000216  0.000177 -0.000004 -0.000004 -0.000007
 11O   2s        -0.032033  0.002152  0.001765 -0.000075 -0.000074 -0.000117
 11O   1pz       -0.000135  0.000163 -0.000207  0.000005 -0.000009 -0.000037
 11O   1px        0.000844  0.000024  0.000021  0.000060 -0.000035  0.000061
 11O   1py       -0.001504 -0.000058 -0.000018  0.000004 -0.000048  0.000045
 11O   3s         0.032029 -0.009750 -0.008005 -0.000117 -0.000120  0.000230
 11O   2pz        0.000522 -0.001764  0.001592 -0.000001  0.000024  0.000285
 11O   2px       -0.003261  0.006397 -0.004320 -0.000748  0.000605 -0.000683
 11O   2py        0.005802 -0.000310 -0.005876 -0.000247  0.000508 -0.000439
 11O   1dz2      -0.000632  0.001312  0.001129 -0.000035 -0.000034 -0.000015
 11O   1dxz      -0.000065  0.000575  0.000063 -0.000006  0.000006 -0.000030
 11O   1dyz       0.000034 -0.000019  0.000205 -0.000001  0.000007  0.000005
 11O   1dx2y2     0.000165 -0.001809  0.001215  0.000090 -0.000068  0.000073
 11O   1dxy       0.000274 -0.000062 -0.001666 -0.000029  0.000067 -0.000007
 12C   1s        -0.000092  0.098612  0.990241  0.000014 -0.000199 -0.000010
 12C   2s        -0.001039  0.003562  0.037483 -0.000080 -0.000226  0.000063
 12C   1pz       -0.000070 -0.000122  0.000109  0.000016 -0.000115  0.000001
 12C   1px        0.000153  0.000172 -0.000902  0.000068 -0.000037  0.000005
 12C   1py        0.000297 -0.000115 -0.001087  0.000003 -0.000239 -0.000028
 12C   3s        -0.001825 -0.005202 -0.028446  0.000004 -0.004504 -0.000032
 12C   2pz       -0.001340  0.002501 -0.001639 -0.000041 -0.000409 -0.000180
 12C   2px        0.008688 -0.004490 -0.006290 -0.000835 -0.000234 -0.000149
 12C   2py        0.010841 -0.000185 -0.015374 -0.001032 -0.001071 -0.000624
 12C   1dz2      -0.000029 -0.000178 -0.000660 -0.000039  0.000038 -0.000022
 12C   1dxz       0.000208 -0.000013 -0.000690 -0.000001 -0.000059  0.000007
 12C   1dyz      -0.000084  0.000088  0.000318 -0.000005 -0.000076  0.000007
 12C   1dx2y2    -0.000109 -0.000003 -0.000605 -0.000023  0.000130 -0.000035
 12C   1dxy      -0.000140  0.000155  0.000970  0.000021 -0.000000  0.000022
 13C   1s         0.000040  0.000388  0.003384  0.000162  0.066133 -0.000184
 13C   2s         0.000455  0.000099 -0.002091 -0.000045  0.000277 -0.000041
 13C   1pz       -0.000028  0.000170  0.000640  0.000020  0.000046 -0.000003
 13C   1px        0.000070  0.000022 -0.000424 -0.000024 -0.000767  0.000008
 13C   1py        0.000133  0.000326  0.000758 -0.000006 -0.001091  0.000001
 13C   3s        -0.006850 -0.002951  0.018903  0.000722  0.010961  0.000423
 13C   2pz        0.002926 -0.000638 -0.006891 -0.000461 -0.002424 -0.000185
 13C   2px       -0.006224  0.000642  0.007379  0.000675  0.004342  0.000127
 13C   2py       -0.004236 -0.000767 -0.001597  0.000159  0.002072 -0.000121
 13C   1dz2      -0.000082  0.000059  0.000030 -0.000007  0.000627  0.000003
 13C   1dxz       0.000260 -0.000030  0.000110 -0.000013 -0.000020 -0.000007
 13C   1dyz       0.000074 -0.000068 -0.000920  0.000006  0.000086  0.000005
 13C   1dx2y2    -0.000212  0.000156  0.000631  0.000015  0.000402  0.000003
 13C   1dxy       0.000056 -0.000187  0.000378 -0.000005 -0.001012 -0.000006
 14C   1s        -0.000029 -0.000060  0.000003  0.002266  0.992258  0.000246
 14C   2s        -0.000124 -0.000234 -0.000039  0.000109  0.036166  0.000003
 14C   1pz       -0.000072  0.000024  0.000090 -0.000005 -0.000454 -0.000001
 14C   1px       -0.000049 -0.000066  0.000168  0.000005  0.000151  0.000003
 14C   1py       -0.000220 -0.000000  0.000360  0.000012 -0.000653  0.000007
 14C   3s         0.007256  0.000839 -0.008563 -0.000787 -0.031197 -0.000093
 14C   2pz       -0.000422  0.000265  0.001964  0.000210  0.003822  0.000041
 14C   2px       -0.001387 -0.000905 -0.000396 -0.000025 -0.001429 -0.000033
 14C   2py       -0.002933 -0.000891  0.003393  0.000341  0.005226  0.000009
 14C   1dz2      -0.000028 -0.000066  0.000039  0.000002 -0.000201 -0.000001
 14C   1dxz       0.000023 -0.000027 -0.000075  0.000001 -0.000491 -0.000002
 14C   1dyz       0.000013  0.000010  0.000065 -0.000002 -0.000000  0.000002
 14C   1dx2y2    -0.000032 -0.000029  0.000021  0.000003  0.000118 -0.000002
 14C   1dxy       0.000039  0.000098 -0.000042 -0.000004  0.000412  0.000001
 15C   1s         0.000035 -0.000022 -0.000231  0.000029  0.034794 -0.000165
 15C   2s         0.000312 -0.000070 -0.000709 -0.000037 -0.000860 -0.000010
 15C   1pz       -0.000015 -0.000075  0.000035 -0.000000 -0.000796 -0.000003
 15C   1px       -0.000053  0.000054  0.000110  0.000002  0.001032  0.000003
 15C   1py       -0.000112 -0.000032  0.000202  0.000008  0.000074  0.000000
 15C   3s        -0.002454  0.001072  0.005444  0.000435  0.011619  0.000041
 15C   2pz        0.000296  0.000386  0.000258  0.000040  0.001849  0.000024
 15C   2px        0.001023 -0.000546 -0.002402 -0.000188 -0.004470 -0.000037
 15C   2py        0.002145 -0.000171 -0.003179 -0.000243 -0.003430 -0.000011
 15C   1dz2       0.000004 -0.000001 -0.000009 -0.000003 -0.000150 -0.000001
 15C   1dxz       0.000052 -0.000007 -0.000127 -0.000005  0.001073 -0.000004
 15C   1dyz      -0.000042  0.000013  0.000078  0.000003  0.000003  0.000006
 15C   1dx2y2     0.000006 -0.000009 -0.000001 -0.000001 -0.000693 -0.000002
 15C   1dxy       0.000001 -0.000004  0.000021  0.000000  0.000051 -0.000002
 16C   1s        -0.000008  0.000042 -0.000038 -0.000127  0.010796 -0.003906
 16C   2s         0.000039  0.000174 -0.000200  0.000003  0.000277 -0.000155
 16C   1pz        0.000092  0.000003 -0.000139 -0.000005 -0.000192 -0.000004
 16C   1px       -0.000177  0.000047  0.000278  0.000013  0.000123  0.000010
 16C   1py       -0.000101  0.000122  0.000142  0.000005 -0.000177  0.000003
 16C   3s         0.005519 -0.002849 -0.007141 -0.000590 -0.004794  0.000012
 16C   2pz        0.000909 -0.000778 -0.001403 -0.000136 -0.001403  0.000007
 16C   2px       -0.001513  0.001487  0.002278  0.000183  0.001823 -0.000008
 16C   2py       -0.000550  0.000853  0.000596  0.000103  0.000105  0.000023
 16C   1dz2       0.000003  0.000044 -0.000022  0.000001 -0.000041 -0.000001
 16C   1dxz       0.000014  0.000017 -0.000095  0.000000 -0.000029 -0.000001
 16C   1dyz      -0.000016  0.000027  0.000052  0.000001 -0.000037 -0.000000
 16C   1dx2y2     0.000010  0.000009 -0.000022  0.000005  0.000012  0.000002
 16C   1dxy      -0.000003 -0.000065  0.000012 -0.000000  0.000087  0.000001
 17C   1s         0.000033  0.000283  0.003309  0.000026 -0.001084 -0.000159
 17C   2s         0.000383 -0.000440 -0.001908 -0.000018 -0.000552 -0.000009
 17C   1pz        0.000013 -0.000016 -0.000761 -0.000003 -0.000109 -0.000003
 17C   1px        0.000009 -0.000092  0.000988 -0.000022  0.000046 -0.000001
 17C   1py        0.000051 -0.000146 -0.000008 -0.000002 -0.000142  0.000008
 17C   3s        -0.006384  0.006985  0.012436  0.000621  0.003289  0.000004
 17C   2pz       -0.002818  0.002141  0.004488  0.000316  0.001261  0.000080
 17C   2px       -0.000036 -0.000784 -0.001933  0.000086 -0.000230  0.000037
 17C   2py       -0.005458  0.002344  0.006570  0.000512  0.002061  0.000169
 17C   1dz2      -0.000041 -0.000016 -0.000073  0.000010 -0.000027  0.000000
 17C   1dxz       0.000017  0.000063  0.000964 -0.000011 -0.000054 -0.000010
 17C   1dyz      -0.000228  0.000024  0.000205  0.000010  0.000028  0.000007
 17C   1dx2y2     0.000150 -0.000065 -0.000686 -0.000007 -0.000013 -0.000002
 17C   1dxy       0.000144  0.000064 -0.000227 -0.000003  0.000044 -0.000001
 18H   1s        -0.000420 -0.000161  0.000083  0.000032 -0.000236  0.000001
 18H   2s        -0.001817  0.001555  0.002376  0.000357  0.001143  0.000055
 19H   1s        -0.000122 -0.000003  0.000140  0.000011 -0.000183  0.000001
 19H   2s        -0.000684  0.000100  0.001176  0.000083  0.001291  0.000012
 20H   1s        -0.000079 -0.000007 -0.000064 -0.000009 -0.001343 -0.000002
 20H   2s         0.000147  0.000075 -0.000409 -0.000081  0.002814  0.000007
 21H   1s        -0.000039 -0.000039 -0.000005  0.000001 -0.000064  0.000006
 21H   2s         0.000059 -0.000344 -0.000093 -0.000027 -0.000229  0.000000
 22H   1s        -0.000266  0.000127  0.000050  0.000028  0.000085  0.000010
 22H   2s        -0.001868  0.000639  0.002264  0.000182  0.000721  0.000071
                      6         7         8         9        10        11   
                 -10.18337 -10.18074 -10.18067 -10.17863 -10.17856 -10.17779
                   2.00000   2.00000   2.00000   2.00000   2.00000   2.00000
                  --------  --------  --------  --------  --------  --------
  0C   1s         0.000129  0.004736  0.000101  0.011911  0.000433  0.993730
  0C   2s        -0.000016 -0.000015 -0.000002  0.000323  0.000062  0.036644
  0C   1pz       -0.000002 -0.000056 -0.000002  0.000036  0.000001 -0.000104
  0C   1px       -0.000008  0.000131  0.000002  0.000186  0.000005  0.000939
  0C   1py        0.000004  0.000066  0.000014 -0.000061 -0.000007  0.000075
  0C   3s         0.000129  0.006481 -0.000028  0.005891 -0.000674 -0.034328
  0C   2pz       -0.000016 -0.000638  0.000271 -0.000212  0.000035  0.000930
  0C   2px        0.000070  0.003491  0.000288  0.003189 -0.000480 -0.008121
  0C   2py        0.000017  0.000642 -0.000568  0.000036  0.000015 -0.000641
  0C   1dz2      -0.000001  0.000014  0.000010  0.000019  0.000004 -0.000165
  0C   1dxz      -0.000003 -0.000010  0.000001  0.000008  0.000002  0.000051
  0C   1dyz      -0.000001  0.000094 -0.000000  0.000079  0.000010 -0.000758
  0C   1dx2y2    -0.000001  0.000020  0.000011  0.000018 -0.000001 -0.000189
  0C   1dxy       0.000004  0.000020 -0.000015 -0.000009  0.000001 -0.000118
  1C   1s         0.000122  0.066634  0.001238 -0.001877 -0.000031 -0.034955
  1C   2s        -0.000002  0.004593  0.000186  0.000435 -0.000060 -0.003437
  1C   1pz        0.000000 -0.000086 -0.000043  0.000045 -0.000003 -0.000762
  1C   1px       -0.000007  0.001344 -0.000009  0.000101  0.000019  0.000467
  1C   1py        0.000003  0.000045 -0.000029 -0.000068  0.000002  0.000989
  1C   3s        -0.000125 -0.016016 -0.001561 -0.004743  0.001202  0.015525
  1C   2pz       -0.000044 -0.002263  0.000727 -0.001447  0.000174  0.003917
  1C   2px       -0.000004 -0.005872 -0.001221 -0.001931  0.000569  0.002187
  1C   2py        0.000048  0.003282 -0.000413  0.002091 -0.000310 -0.005428
  1C   1dz2      -0.000002 -0.000621  0.000029  0.000042 -0.000011  0.000045
  1C   1dxz      -0.000000 -0.000350  0.000037  0.000020 -0.000002  0.000556
  1C   1dyz      -0.000002 -0.000023  0.000013  0.000089 -0.000007  0.000886
  1C   1dx2y2     0.000003  0.001101 -0.000029 -0.000017  0.000015  0.000376
  1C   1dxy      -0.000002  0.000271  0.000006 -0.000017 -0.000005 -0.000720
  2C   1s        -0.000225 -0.992744 -0.017870 -0.000318  0.000594  0.002587
  2C   2s        -0.000045 -0.036876 -0.000627 -0.000002  0.000042  0.000256
  2C   1pz        0.000001 -0.000676  0.000108  0.000119  0.000025 -0.000067
  2C   1px       -0.000004  0.000315  0.000145  0.000022 -0.000050  0.000129
  2C   1py       -0.000006  0.000663  0.000066 -0.000165 -0.000042  0.000093
  2C   3s         0.000445  0.035322  0.000209  0.004905 -0.000743 -0.007128
  2C   2pz        0.000168  0.005077 -0.001316  0.001663 -0.000478 -0.002270
  2C   2px        0.000039 -0.002786 -0.002288 -0.001246  0.000928  0.001810
  2C   2py       -0.000205 -0.006220  0.001197 -0.002115  0.000675  0.002844
  2C   1dz2       0.000001  0.000415 -0.000027  0.000053  0.000021 -0.000039
  2C   1dxz       0.000001 -0.000124 -0.000062  0.000014  0.000009  0.000032
  2C   1dyz      -0.000008  0.000330  0.000115  0.000017  0.000008 -0.000037
  2C   1dx2y2    -0.000007 -0.000535  0.000105 -0.000081 -0.000003  0.000035
  2C   1dxy      -0.000001  0.000263  0.000070 -0.000007 -0.000015 -0.000054
  3C   1s         0.003906 -0.003255 -0.000235  0.045459  0.000209 -0.038804
  3C   2s         0.000130  0.000404  0.000044  0.003810 -0.000021 -0.003595
  3C   1pz        0.000001 -0.000054 -0.000019 -0.000192 -0.000005  0.000621
  3C   1px       -0.000004  0.000061  0.000035  0.001344  0.000016  0.000758
  3C   1py       -0.000003  0.000067  0.000012  0.000167  0.000004 -0.000898
  3C   3s        -0.000234 -0.005624  0.000236 -0.014801  0.000811  0.015788
  3C   2pz        0.000026  0.001831  0.000224  0.003138 -0.000241 -0.004197
  3C   2px       -0.000036 -0.001662  0.000555 -0.004532  0.000176  0.000549
  3C   2py       -0.000019 -0.002319 -0.000288 -0.003937  0.000289  0.005659
  3C   1dz2      -0.000004  0.000051  0.000000 -0.000646 -0.000009  0.000292
  3C   1dxz       0.000000 -0.000004 -0.000013 -0.000184 -0.000002 -0.000644
  3C   1dyz      -0.000004  0.000072  0.000018  0.000025 -0.000004  0.000600
  3C   1dx2y2     0.000003 -0.000035  0.000006  0.001154  0.000011 -0.000029
  3C   1dxy       0.000001  0.000029  0.000008  0.000097 -0.000003  0.000948
  4C   1s         0.000201  0.000097 -0.000649 -0.994017 -0.004484  0.010254
  4C   2s        -0.000012  0.000020 -0.000048 -0.036713 -0.000115  0.000530
  4C   1pz        0.000003 -0.000122 -0.000013  0.000475  0.000010  0.000035
  4C   1px        0.000005 -0.000005 -0.000047  0.000596 -0.000010  0.000137
  4C   1py        0.000005  0.000185 -0.000023 -0.000640 -0.000011 -0.000065
  4C   3s         0.000094  0.005252  0.000168  0.034223 -0.000963 -0.007314
  4C   2pz       -0.000070 -0.001311 -0.000089 -0.003737  0.000350  0.001670
  4C   2px       -0.000207 -0.002918  0.001247 -0.004416  0.000454  0.002885
  4C   2py        0.000083  0.001717  0.000052  0.005306 -0.000398 -0.002433
  4C   1dz2       0.000002  0.000072  0.000005  0.000345 -0.000005 -0.000029
  4C   1dxz       0.000003  0.000025 -0.000017  0.000302 -0.000002 -0.000042
  4C   1dyz      -0.000012  0.000008  0.000005  0.000438  0.000018 -0.000059
  4C   1dx2y2    -0.000010 -0.000066  0.000005 -0.000361 -0.000007  0.000013
  4C   1dxy      -0.000005 -0.000035  0.000017 -0.000319  0.000006  0.000050
  5C   1s        -0.000011  0.003584  0.000049  0.003497  0.000015  0.000046
  5C   2s         0.000061  0.002109 -0.000073  0.002284  0.000052 -0.000653
  5C   1pz       -0.000006 -0.000697 -0.000011  0.000766  0.000025 -0.000012
  5C   1px        0.000023 -0.000790  0.000031 -0.000528  0.000041  0.000123
  5C   1py       -0.000018  0.000749  0.000037 -0.001003  0.000023  0.000035
  5C   3s        -0.000064 -0.013354  0.001194 -0.014275  0.000157  0.005902
  5C   2pz        0.000101  0.001737 -0.000834 -0.002571  0.000238  0.000446
  5C   2px        0.000630  0.007731 -0.001889  0.005324 -0.001301 -0.004581
  5C   2py       -0.000210 -0.002327  0.001543  0.003128 -0.000577 -0.000261
  5C   1dz2      -0.000022 -0.000263 -0.000000 -0.000002  0.000008 -0.000010
  5C   1dxz       0.000001  0.000614  0.000053 -0.000426  0.000016  0.000016
  5C   1dyz       0.000004 -0.000746 -0.000054 -0.000968 -0.000011 -0.000073
  5C   1dx2y2     0.000036 -0.000075 -0.000050 -0.000540  0.000001 -0.000024
  5C   1dxy      -0.000023 -0.000897 -0.000069  0.000559 -0.000010  0.000002
  6H   1s        -0.000003  0.000034  0.000051 -0.000095  0.000006 -0.000083
  6H   2s         0.000005 -0.001101  0.000064 -0.000893  0.000159  0.001195
  7H   1s         0.000002  0.001280  0.000364  0.000071 -0.000049 -0.000103
  7H   2s         0.000061 -0.002351 -0.001453  0.000566 -0.000505 -0.000763
  8H   1s        -0.000004 -0.000073 -0.000018  0.000059  0.000007 -0.000081
  8H   2s         0.000022 -0.000876 -0.000091 -0.001144  0.000083  0.001191
  9H   1s        -0.000000  0.000066  0.000025  0.000041 -0.000019 -0.001351
  9H   2s         0.000022  0.000631  0.000058  0.000548 -0.000121  0.002481
 10H   1s         0.000009  0.000134 -0.000065  0.001322 -0.000019 -0.000123
 10H   2s         0.000080  0.000662 -0.000317 -0.002620 -0.000213 -0.000716
 11O   1s        -0.000007  0.000009  0.000009 -0.000005 -0.000005 -0.000010
 11O   2s        -0.000118  0.000264  0.000270  0.000087  0.000089 -0.000160
 11O   1pz        0.000038 -0.000005  0.000011  0.000003  0.000001  0.000003
 11O   1px       -0.000067 -0.000140  0.000094 -0.000087  0.000064  0.000028
 11O   1py       -0.000033 -0.000029  0.000102 -0.000022  0.000063  0.000019
 11O   3s         0.000229 -0.001026 -0.001052  0.000129  0.000125  0.001093
 11O   2pz       -0.000286 -0.000411  0.000385  0.000121 -0.000107  0.000050
 11O   2px        0.000706  0.001035 -0.000927  0.000144 -0.000209 -0.000580
 11O   2py        0.000388  0.000532 -0.000635  0.000153 -0.000025 -0.000195
 11O   1dz2      -0.000020  0.000001 -0.000017 -0.000001 -0.000027  0.000009
 11O   1dxz      -0.000002  0.000056  0.000121  0.000009  0.000114 -0.000007
 11O   1dyz      -0.000023  0.000111 -0.000007  0.000121 -0.000052  0.000002
 11O   1dx2y2    -0.000042 -0.000015  0.000030  0.000057 -0.000019  0.000025
 11O   1dxy       0.000061  0.000020 -0.000020  0.000008  0.000036 -0.000018
 12C   1s        -0.000097 -0.000080  0.003579 -0.000016  0.003493 -0.000002
 12C   2s        -0.000180 -0.000152  0.002110  0.000028  0.002285  0.000004
 12C   1pz        0.000108 -0.000016  0.000844 -0.000017 -0.000846 -0.000009
 12C   1px       -0.000191 -0.000041 -0.000177 -0.000053  0.001075  0.000015
 12C   1py       -0.000062 -0.000043  0.000963 -0.000020  0.000035  0.000021
 12C   3s        -0.004996  0.001718 -0.013322  0.000310 -0.014278 -0.000181
 12C   2pz        0.000859  0.001254 -0.002557 -0.000235  0.002533  0.000132
 12C   2px       -0.001495 -0.000175 -0.002197  0.001213 -0.005256 -0.000529
 12C   2py       -0.000581  0.002566 -0.007429  0.000884 -0.003240 -0.000598
 12C   1dz2       0.000026  0.000019  0.000006  0.000012  0.000150 -0.000014
 12C   1dxz       0.000046 -0.000012 -0.000339  0.000011 -0.001109  0.000005
 12C   1dyz       0.000081  0.000043  0.001069  0.000019  0.000041 -0.000004
 12C   1dx2y2    -0.000055 -0.000006 -0.000656 -0.000012  0.000681 -0.000007
 12C   1dxy      -0.000065 -0.000054 -0.000366 -0.000002 -0.000076  0.000012
 13C   1s        -0.003925  0.017882 -0.992772  0.000654 -0.000319  0.000011
 13C   2s        -0.000605  0.000701 -0.036871  0.000043 -0.000001 -0.000025
 13C   1pz        0.000111 -0.000138  0.000723 -0.000026 -0.000140 -0.000006
 13C   1px       -0.000128 -0.000115 -0.000686  0.000060  0.000121  0.000002
 13C   1py        0.000026 -0.000075 -0.000018  0.000024 -0.000087  0.000002
 13C   3s         0.003110 -0.001065  0.035293 -0.000801  0.004894  0.000270
 13C   2pz       -0.001384  0.001853 -0.005535  0.000518 -0.001813 -0.000171
 13C   2px        0.002049  0.000033  0.006390 -0.001065  0.002322  0.000189
 13C   2py        0.000506  0.002400 -0.000080 -0.000505  0.000183 -0.000042
 13C   1dz2      -0.000041 -0.000074  0.000311  0.000020  0.000050  0.000003
 13C   1dxz      -0.000051  0.000069  0.000181  0.000014  0.000016 -0.000012
 13C   1dyz       0.000035 -0.000098 -0.000401  0.000001 -0.000008  0.000008
 13C   1dx2y2    -0.000029 -0.000011  0.000447 -0.000012  0.000031  0.000004
 13C   1dxy       0.000056  0.000123 -0.000401 -0.000010 -0.000078 -0.000003
 14C   1s        -0.011807 -0.001157  0.066213 -0.000014 -0.001859  0.000102
 14C   2s        -0.000537  0.000021  0.004581 -0.000064  0.000436 -0.000008
 14C   1pz        0.000209  0.000040 -0.000010  0.000002 -0.000062  0.000004
 14C   1px       -0.000208  0.000058 -0.000735 -0.000011  0.000002  0.000004
 14C   1py        0.000084  0.000028 -0.001128 -0.000014 -0.000115  0.000009
 14C   3s        -0.004287 -0.000983 -0.016041  0.001262 -0.004732 -0.000157
 14C   2pz        0.001231 -0.000799  0.003077 -0.000279  0.001844  0.000039
 14C   2px       -0.000328  0.000933  0.000478 -0.000037 -0.000666 -0.000041
 14C   2py        0.001861  0.000688  0.006389 -0.000650  0.002512  0.000027
 14C   1dz2      -0.000045  0.000054 -0.000654 -0.000009  0.000024 -0.000002
 14C   1dxz       0.000036  0.000033 -0.000111 -0.000007  0.000087 -0.000004
 14C   1dyz       0.000026  0.000024 -0.000178  0.000005 -0.000034  0.000002
 14C   1dx2y2    -0.000071  0.000034 -0.000302 -0.000011 -0.000005  0.000000
 14C   1dxy       0.000052 -0.000066  0.001106  0.000013 -0.000037  0.000003
 15C   1s         0.037410 -0.000071  0.004684  0.000263  0.011625 -0.001843
 15C   2s        -0.000723 -0.000001 -0.000016  0.000058  0.000313 -0.000085
 15C   1pz        0.000748  0.000001  0.000054 -0.000002 -0.000058 -0.000003
 15C   1px       -0.000263 -0.000009 -0.000122  0.000004 -0.000048  0.000007
 15C   1py        0.001042  0.000009 -0.000084 -0.000006 -0.000185  0.000003
 15C   3s         0.011541 -0.000277  0.006474 -0.000741  0.005891  0.000244
 15C   2pz       -0.001486 -0.000380  0.000432  0.000002 -0.000029  0.000003
 15C   2px       -0.001711  0.000401 -0.002316  0.000257 -0.001687 -0.000067
 15C   2py       -0.005540 -0.000399 -0.002730  0.000450 -0.002710 -0.000098
 15C   1dz2      -0.000044  0.000010 -0.000008  0.000002  0.000002  0.000000
 15C   1dxz       0.000259  0.000001  0.000076  0.000009  0.000074 -0.000002
 15C   1dyz      -0.001006  0.000003 -0.000061 -0.000004 -0.000035  0.000003
 15C   1dx2y2     0.000609 -0.000018  0.000006  0.000002 -0.000016 -0.000001
 15C   1dxy       0.000446  0.000003  0.000013 -0.000002 -0.000001 -0.000000
 16C   1s         0.993307 -0.000128 -0.003215 -0.000196  0.045149  0.000080
 16C   2s         0.036253  0.000028  0.000407 -0.000056  0.003799  0.000008
 16C   1pz        0.000494  0.000015  0.000058  0.000003  0.000108  0.000000
 16C   1px       -0.000667 -0.000024 -0.000086 -0.000004 -0.000833  0.000008
 16C   1py       -0.000046 -0.000025 -0.000025 -0.000003 -0.001079  0.000012
 16C   3s        -0.031475  0.000452 -0.005608  0.000961 -0.014788 -0.000322
 16C   2pz       -0.004267 -0.000223 -0.001990  0.000297 -0.003256 -0.000100
 16C   2px        0.005358 -0.000169  0.002709 -0.000378  0.005498  0.000134
 16C   2py       -0.000014 -0.000606  0.000437 -0.000055  0.002237  0.000003
 16C   1dz2      -0.000257 -0.000007  0.000032 -0.000002 -0.000666  0.000001
 16C   1dxz      -0.000182  0.000007  0.000059 -0.000004  0.000019 -0.000001
 16C   1dyz       0.000389 -0.000018 -0.000055  0.000004 -0.000033  0.000002
 16C   1dx2y2    -0.000390  0.000001  0.000039 -0.000004 -0.000455 -0.000002
 16C   1dxy       0.000281  0.000007 -0.000029 -0.000001  0.001068 -0.000002
 17C   1s         0.045402 -0.000595  0.000085  0.004508 -0.994035  0.000350
 17C   2s        -0.000511 -0.000044  0.000018  0.000218 -0.036713 -0.000031
 17C   1pz        0.000057  0.000008  0.000145 -0.000005 -0.000597  0.000002
 17C   1px       -0.000775  0.000051 -0.000145  0.000013  0.000199 -0.000002
 17C   1py       -0.001096  0.000024  0.000084  0.000012 -0.000770 -0.000008
 17C   3s         0.012058 -0.000053  0.005257 -0.001293  0.034214  0.000531
 17C   2pz        0.002369 -0.000072  0.001739 -0.000482  0.004709  0.000255
 17C   2px        0.000314 -0.000689  0.000131  0.000096 -0.001930 -0.000125
 17C   2py        0.005040 -0.001167  0.003139 -0.000608  0.005966  0.000331
 17C   1dz2       0.000628 -0.000001  0.000072 -0.000012  0.000286 -0.000001
 17C   1dxz       0.000032 -0.000004  0.000018  0.000008  0.000510 -0.000014
 17C   1dyz       0.000144 -0.000021  0.000005 -0.000010  0.000005  0.000009
 17C   1dx2y2     0.000310  0.000009  0.000002  0.000009 -0.000081  0.000000
 17C   1dxy      -0.001052  0.000014 -0.000076 -0.000001 -0.000535 -0.000004
 18H   1s         0.000109  0.000319  0.001293 -0.000049  0.000071  0.000008
 18H   2s         0.000736 -0.001391 -0.002403 -0.000523  0.000562  0.000093
 19H   1s        -0.000184  0.000023  0.000067 -0.000020  0.000042  0.000004
 19H   2s         0.001292  0.000035  0.000632 -0.000128  0.000546  0.000024
 20H   1s        -0.000035  0.000050  0.000036  0.000007 -0.000095 -0.000001
 20H   2s        -0.000314  0.000107 -0.001099  0.000171 -0.000892  0.000007
 21H   1s        -0.001356 -0.000015 -0.000074  0.000007  0.000059 -0.000004
 21H   2s         0.002757 -0.000056 -0.000879  0.000095 -0.001144 -0.000027
 22H   1s        -0.000220 -0.000070  0.000131 -0.000032  0.001322  0.000009
 22H   2s         0.001200 -0.000343  0.000649 -0.000193 -0.002623  0.000155
                     12        13        14        15        16        17   
                 -10.17769  -1.07066  -0.85495  -0.84087  -0.75867  -0.74560
                   2.00000   2.00000   2.00000   2.00000   2.00000   2.00000
                  --------  --------  --------  --------  --------  --------
  0C   1s         0.001835  0.001277  0.058236  0.071506  0.085766  0.012321
  0C   2s         0.000050 -0.003341 -0.110167 -0.135175 -0.166033 -0.024032
  0C   1pz        0.000003  0.000194  0.004195  0.005373  0.012731 -0.043412
  0C   1px       -0.000002 -0.002239 -0.039747 -0.044841 -0.021643 -0.012351
  0C   1py       -0.000004 -0.000131 -0.002736 -0.003941 -0.015537  0.059721
  0C   3s         0.000118  0.000200 -0.065431 -0.084806 -0.119404 -0.017329
  0C   2pz       -0.000009 -0.000659  0.000113  0.000360  0.001349 -0.007084
  0C   2px        0.000088  0.005863 -0.002617 -0.005505  0.004154 -0.000131
  0C   2py        0.000005  0.000755  0.000198 -0.000223 -0.002499  0.009685
  0C   1dz2      -0.000001  0.000075  0.002756  0.003259  0.002867  0.001188
  0C   1dxz       0.000001  0.000018  0.000353  0.000466  0.001252 -0.003818
  0C   1dyz      -0.000006  0.000002  0.004593  0.005631  0.006069 -0.000123
  0C   1dx2y2    -0.000001 -0.000105 -0.001951 -0.002172 -0.001364 -0.001543
  0C   1dxy      -0.000002  0.000009  0.000276  0.000249 -0.000897  0.005420
[...]
      5      -0.022831   0.003320   0.025246   0.006406   0.012232   0.001452
      6      -0.003436   0.000709   0.004104   0.004140   0.006674  -0.010814
      7      -0.008881   0.001767   0.011071   0.009215   0.015483  -0.019686
      8       0.006967  -0.001325  -0.008613  -0.007168  -0.012160   0.015421
      9      -0.015907  -0.003078  -0.022798   0.003307   0.005754  -0.009955
     10      -0.029617  -0.006004  -0.044310   0.009871   0.017604  -0.016120
     11       0.022722   0.004601   0.033949  -0.007455  -0.013312   0.012411
     12      -0.006214  -0.001466  -0.010466   0.009198   0.017436   0.032781
     13       0.007634   0.001779   0.013162  -0.010546  -0.019859  -0.033092
     14      -0.005333  -0.001232  -0.009165   0.007311   0.013751   0.022706
     15      -0.000477   0.000043  -0.000199   0.000652   0.001413   0.000666
     16      -0.000143   0.000006  -0.000104   0.000109   0.000388   0.002017
     17       0.000088   0.000010   0.000040  -0.000125  -0.000333  -0.001540
     18       0.357542  -0.049529  -0.379871  -0.082375  -0.159880  -0.029161
     19      -0.387584   0.053921   0.413127   0.092180   0.178400   0.029642
     20       0.271476  -0.037781  -0.289537  -0.064742  -0.125249  -0.020550
     21       0.055681  -0.010539  -0.067392  -0.055015  -0.092590   0.120458
     22       0.107952  -0.020387  -0.130933  -0.105608  -0.178568   0.225769
     23      -0.084691   0.015775   0.102661   0.082578   0.140202  -0.176854
     24       0.182698   0.035825   0.263935  -0.051441  -0.091562   0.094048
     25       0.352833   0.069447   0.511833  -0.104309  -0.185877   0.179169
     26      -0.270308  -0.053187  -0.392175   0.079826   0.142180  -0.137315
     27      -0.542046  -0.013319  -0.062420  -0.365752  -0.660742   0.101821
     28      -0.041442  -0.001476  -0.008255  -0.028212  -0.051048   0.006337
     29       0.060468   0.001807   0.009442   0.040967   0.074130  -0.010264
     30       0.085352   0.019611   0.143128  -0.113582  -0.214190  -0.365613
     31      -0.090316  -0.020764  -0.151655   0.119423   0.225331   0.379180
     32       0.062201   0.014247   0.104394  -0.082281  -0.155018  -0.260445
     33      -0.000103  -0.000021   0.000010  -0.000082  -0.000095  -0.000336
     34      -0.000027   0.000015  -0.000036  -0.000087   0.000089  -0.000202
     35       0.000040   0.000044   0.000030  -0.000009   0.000009   0.000186
     36       0.000197  -0.000148   0.000076   0.000871  -0.000632   0.001868
     37       0.000205  -0.000093   0.000063   0.000983  -0.000599  -0.000301
     38      -0.000063   0.000027   0.000002  -0.000186   0.000164  -0.001680
     39       0.002135   0.011225  -0.001193   0.016711  -0.008381  -0.021404
     40      -0.000230  -0.001078   0.000156  -0.000595   0.000429  -0.001114
     41      -0.001929  -0.009828   0.001124  -0.014116   0.007230   0.016995
     42      -0.002578  -0.011781   0.001592  -0.007209   0.004074  -0.000047
     43       0.010460   0.043854  -0.006079   0.017557  -0.010346   0.004519
     44       0.007588   0.032648  -0.004478   0.015104  -0.008729   0.002391
     45      -0.007408   0.004091  -0.000309   0.034483  -0.018863  -0.003831
     46      -0.010520   0.001694   0.000104   0.048648  -0.026592  -0.007080
     47       0.000542  -0.002413   0.000296  -0.002682   0.001472  -0.000578
     48       0.009185  -0.046744   0.006268   0.017465  -0.009410  -0.016541
     49       0.000368  -0.001036   0.000148  -0.002333   0.001324  -0.001754
     50      -0.007205   0.037083  -0.004967  -0.015251   0.008266   0.012374
     51      -0.000817   0.004899  -0.000684  -0.006458   0.003646  -0.009008
     52       0.002383  -0.013851   0.001814   0.021766  -0.012447   0.040193
     53       0.001897  -0.011121   0.001495   0.016493  -0.009388   0.028091
     54      -0.028512  -0.142640   0.016048  -0.199957   0.101861   0.243476
     55      -0.000679  -0.003578   0.000392  -0.005780   0.002783   0.009638
     56       0.023279   0.115577  -0.013243   0.161540  -0.082747  -0.195072
     57       0.088757  -0.028361   0.001101  -0.387486   0.211909   0.048935
     58       0.125632  -0.034761   0.000818  -0.548035   0.299652   0.071463
     59      -0.006658   0.004811  -0.000457   0.029390  -0.016141  -0.002520
     60       0.032120   0.134002  -0.018442   0.058261  -0.033861   0.009954
     61      -0.122203  -0.505285   0.069684  -0.207585   0.121296  -0.042592
     62      -0.090438  -0.374967   0.051693  -0.156674   0.091386  -0.030375
     63      -0.108396   0.539903  -0.072226  -0.200155   0.108192   0.175372
     64      -0.002750   0.012656  -0.001685  -0.001122   0.000560   0.005502
     65       0.085759  -0.427902   0.057274   0.160496  -0.086742  -0.138217
     66       0.007877  -0.044861   0.005945   0.064430  -0.036800   0.108070
     67      -0.031218   0.178702  -0.023634  -0.261050   0.148893  -0.452764
     68      -0.022479   0.128707  -0.017080  -0.187254   0.106704  -0.321463
                  66         67         68    
      0      -0.011664  -0.014106  -0.017191
      1       0.000154  -0.001332  -0.001871
      2       0.000513   0.001756   0.002338
      3       0.001568  -0.011748  -0.015996
      4      -0.000179   0.011656   0.015742
      5       0.000077  -0.008043  -0.010955
      6      -0.008291   0.016434   0.023787
      7      -0.015168   0.030199   0.043827
      8       0.012011  -0.023686  -0.034698
      9      -0.010132  -0.004697  -0.005293
     10      -0.016750  -0.009160  -0.010379
     11       0.012888   0.007014   0.007914
     12       0.032485   0.010898   0.011173
     13      -0.032864  -0.011345  -0.011480
     14       0.022575   0.007829   0.007929
     15       0.000996   0.002292   0.002676
     16       0.002103  -0.000440  -0.000830
     17      -0.001508   0.000203   0.000463
     18      -0.008184   0.119016   0.161597
     19       0.006932  -0.128702  -0.174315
     20      -0.004714   0.090007   0.121999
     21       0.093394  -0.182791  -0.267113
     22       0.174959  -0.343618  -0.501367
     23      -0.137708   0.269273   0.394139
     24       0.097344   0.050732   0.057149
     25       0.185767   0.098889   0.111648
     26      -0.142324  -0.075668  -0.085551
     27       0.125698   0.152995   0.186461
     28       0.008306   0.012182   0.015117
     29      -0.013075  -0.017424  -0.021311
     30      -0.362229  -0.122774  -0.124402
     31       0.375608   0.127574   0.129453
     32      -0.258166  -0.087941  -0.088916
     33       0.000077  -0.000562  -0.000293
     34      -0.000136  -0.000383   0.000309
     35      -0.000016  -0.000055   0.000023
     36      -0.002266   0.001091  -0.000476
     37       0.000094   0.002849  -0.001845
     38       0.001771   0.000597  -0.000567
     39       0.018039   0.045071  -0.034623
     40       0.000924   0.002144  -0.001644
     41      -0.014477  -0.036056   0.027959
     42      -0.000520   0.004337  -0.003055
     43      -0.002142  -0.020341   0.014642
     44      -0.000727  -0.014158   0.010216
     45       0.005513  -0.011218   0.007389
     46       0.009483  -0.015282   0.009792
     47       0.000471   0.001149  -0.000912
     48       0.018501  -0.012908   0.007705
     49       0.001781  -0.000316   0.000167
     50      -0.013936   0.010210  -0.006078
     51       0.009697  -0.004555   0.002345
     52      -0.043064   0.019093  -0.010195
     53      -0.030159   0.013608  -0.007207
     54      -0.206573  -0.510953   0.395097
     55      -0.008298  -0.019719   0.015620
     56       0.166178   0.410252  -0.318023
     57      -0.067506   0.118785  -0.076868
     58      -0.097720   0.167145  -0.107831
     59       0.003979  -0.009405   0.006152
     60      -0.003264  -0.055526   0.039734
     61       0.017511   0.212127  -0.152632
     62       0.011805   0.156627  -0.112615
     63      -0.196846   0.138984  -0.082683
     64      -0.006020   0.002989  -0.001710
     65       0.155180  -0.110213   0.065714
     66      -0.115615   0.051526  -0.027423
     67       0.484599  -0.214829   0.113881
     68       0.344222  -0.153045   0.080926


-----------
IR SPECTRUM
-----------

 Mode    freq (cm**-1)   T**2         TX         TY         TZ
-------------------------------------------------------------------
   6:        25.75    1.567735  ( -0.883563  -0.552834   0.693849)
   7:        43.64    0.129361  ( -0.168286   0.317182   0.020889)
   8:        90.30    0.130889  (  0.174312  -0.315768  -0.028202)
   9:       220.20    1.189253  ( -0.947091  -0.535877   0.071469)
  10:       238.41    0.098731  (  0.149910  -0.275221  -0.022602)
  11:       314.90    0.318751  ( -0.270738   0.493412   0.044682)
  12:       382.50    4.606603  (  1.523093   0.959690  -1.168668)
  13:       422.36    0.555003  (  0.648594   0.360788   0.064513)
  14:       426.19    0.066649  ( -0.134062   0.219964   0.017104)
  15:       489.12    5.498553  ( -1.137703   2.042936   0.174916)
  16:       511.91   13.621092  ( -2.845103  -1.438969  -1.858991)
  17:       577.39    0.270445  (  0.337665   0.161408   0.361074)
  18:       615.91    0.014371  (  0.050772  -0.108020  -0.011163)
  19:       630.17    0.663235  ( -0.529451  -0.341123   0.516287)
  20:       636.52    0.150329  (  0.188796  -0.337039  -0.033011)
  21:       701.86   18.977440  (  2.674879   1.193453   3.224613)
  22:       706.80    9.326992  (  1.445904  -2.676598  -0.268660)
  23:       763.49    7.341415  (  1.324804  -2.359124  -0.144364)
  24:       766.96   68.546179  ( -1.928437  -0.389938  -8.042093)
  25:       806.11   17.998063  (  2.051908  -3.697648  -0.339320)
  26:       840.39    0.179906  ( -0.263182  -0.121829  -0.309514)
  27:       845.21    0.377101  (  0.290954  -0.538526  -0.049363)
  28:       887.13   35.312619  (  5.089584   2.932855  -0.898397)
  29:       910.30    9.814085  (  1.949645   0.864850   2.294559)
  30:       916.35    4.029084  ( -0.939686   1.764677   0.178858)
  31:       961.10    0.375246  ( -0.467364  -0.292211   0.267264)
  32:       963.75    0.033960  ( -0.111147   0.146139   0.015806)
  33:       985.44    0.508645  ( -0.522954  -0.230206  -0.426814)
  34:       986.07    0.111889  ( -0.139212   0.298591   0.057904)
  35:      1016.50    1.097330  (  0.919458   0.476293  -0.158340)
  36:      1017.04    0.234220  (  0.139421  -0.462958  -0.021238)
  37:      1051.45    0.575540  ( -0.429737   0.621955   0.063550)
  38:      1052.40    8.232274  (  2.488268   1.424895  -0.102341)
  39:      1105.41    5.407999  (  0.217902   0.346240  -2.289243)
  40:      1108.52    6.622150  ( -1.251963   2.237432   0.220539)
  41:      1188.42    1.305766  (  0.070476  -1.071520  -0.390697)
  42:      1188.50    1.112297  ( -0.917309   0.388661  -0.346099)
  43:      1195.46    1.864725  ( -0.716568   1.156238   0.119876)
  44:      1197.73   16.956226  (  3.472998   2.044960  -0.844187)
  45:      1231.37    4.969949  (  1.076684  -1.944237  -0.175052)
  46:      1288.75  525.924847  ( 19.859652  11.311515  -1.889095)
  47:      1329.63    4.627258  (  1.802045   1.051372  -0.523936)
  48:      1349.24    0.061347  ( -0.103087   0.224900   0.011832)
  49:      1364.07   17.713083  (  3.545243   2.112707  -0.825109)
  50:      1364.73    0.468839  ( -0.594024   0.319811   0.117027)
  51:      1497.87    1.244601  ( -0.672166  -0.306360  -0.836025)
  52:      1506.77    0.959259  ( -0.470298   0.856012   0.072959)
  53:      1536.83  249.118725  (-13.697455  -7.765661   1.092231)
  54:      1542.78   11.869678  ( -1.639374   3.018523   0.265801)
  55:      1642.14    8.172065  ( -1.675808  -0.765212  -2.185906)
  56:      1649.31  136.978637  ( 10.052606   5.791455  -1.543636)
  57:      1650.39   10.078358  (  1.588248  -2.738020  -0.243055)
  58:      1665.85    1.325350  ( -0.529185   1.018477   0.089540)
  59:      3183.87    2.107314  ( -1.124936  -0.896871  -0.193530)
  60:      3184.19    0.940685  ( -0.957859   0.094495  -0.119421)
  61:      3192.39   14.089279  ( -1.920461   1.408772   2.901115)
  62:      3192.73   14.441899  (  0.956429  -3.190111   1.830392)
  63:      3206.83   51.209368  (  5.718373   4.291853  -0.299288)
  64:      3207.20   14.501190  (  3.343009  -1.790455  -0.346045)
  65:      3217.13   15.559246  ( -1.942019  -1.393059   3.138024)
  66:      3217.51    7.990592  (  1.366523  -2.459890  -0.268602)
  67:      3219.52    0.796061  ( -0.203761  -0.201136  -0.845036)
  68:      3220.12    1.274941  ( -0.576587   0.967887  -0.075387)

The first frequency considered to be a vibration is 6
The total number of vibrations considered is 63


--------------------------
THERMOCHEMISTRY AT 298.15K
--------------------------

Temperature         ... 298.15 K
Pressure            ... 1.00 atm
Total Mass          ... 170.21 AMU

Throughout the following assumptions are being made:
  (1) The electronic state is orbitally nondegenerate
  (2) There are no thermally accessible electronically excited states
  (3) Hindered rotations indicated by low frequency modes are not
      treated as such but are treated as vibrations and this may
      cause some error
  (4) All equations used are the standard statistical mechanics
      equations for an ideal gas
  (5) All vibrations are strictly harmonic

freq.      25.75  E(vib)   ...       0.56 
freq.      43.64  E(vib)   ...       0.53 
freq.      90.30  E(vib)   ...       0.47 
freq.     220.20  E(vib)   ...       0.33 
freq.     238.41  E(vib)   ...       0.32 
freq.     314.90  E(vib)   ...       0.25 
freq.     382.50  E(vib)   ...       0.21 
freq.     422.36  E(vib)   ...       0.18 
freq.     426.19  E(vib)   ...       0.18 
freq.     489.12  E(vib)   ...       0.15 
freq.     511.91  E(vib)   ...       0.14 
freq.     577.39  E(vib)   ...       0.11 
freq.     615.91  E(vib)   ...       0.10 
freq.     630.17  E(vib)   ...       0.09 
freq.     636.52  E(vib)   ...       0.09 
freq.     701.86  E(vib)   ...       0.07 
freq.     706.80  E(vib)   ...       0.07 
freq.     763.49  E(vib)   ...       0.06 
freq.     766.96  E(vib)   ...       0.06 
freq.     806.11  E(vib)   ...       0.05 
freq.     840.39  E(vib)   ...       0.04 
freq.     845.21  E(vib)   ...       0.04 
freq.     887.13  E(vib)   ...       0.04 
freq.     910.30  E(vib)   ...       0.03 
freq.     916.35  E(vib)   ...       0.03 
freq.     961.10  E(vib)   ...       0.03 
freq.     963.75  E(vib)   ...       0.03 
freq.     985.44  E(vib)   ...       0.02 
freq.     986.07  E(vib)   ...       0.02 
freq.    1016.50  E(vib)   ...       0.02 
freq.    1017.04  E(vib)   ...       0.02 
freq.    1051.45  E(vib)   ...       0.02 
freq.    1052.40  E(vib)   ...       0.02 
freq.    1105.41  E(vib)   ...       0.02 
freq.    1108.52  E(vib)   ...       0.02 
freq.    1188.42  E(vib)   ...       0.01 
freq.    1188.50  E(vib)   ...       0.01 
freq.    1195.46  E(vib)   ...       0.01 
freq.    1197.73  E(vib)   ...       0.01 
freq.    1231.37  E(vib)   ...       0.01 
freq.    1288.75  E(vib)   ...       0.01 
freq.    1329.63  E(vib)   ...       0.01 
freq.    1349.24  E(vib)   ...       0.01 
freq.    1364.07  E(vib)   ...       0.01 
freq.    1364.73  E(vib)   ...       0.01 
freq.    1497.87  E(vib)   ...       0.00 
freq.    1506.77  E(vib)   ...       0.00 
freq.    1536.83  E(vib)   ...       0.00 
freq.    1542.78  E(vib)   ...       0.00 
freq.    1642.14  E(vib)   ...       0.00 
freq.    1649.31  E(vib)   ...       0.00 
freq.    1650.39  E(vib)   ...       0.00 
freq.    1665.85  E(vib)   ...       0.00 
freq.    3183.87  E(vib)   ...       0.00 
freq.    3184.19  E(vib)   ...       0.00 
freq.    3192.39  E(vib)   ...       0.00 
freq.    3192.73  E(vib)   ...       0.00 
freq.    3206.83  E(vib)   ...       0.00 
freq.    3207.20  E(vib)   ...       0.00 
freq.    3217.13  E(vib)   ...       0.00 
freq.    3217.51  E(vib)   ...       0.00 
freq.    3219.52  E(vib)   ...       0.00 
freq.    3220.12  E(vib)   ...       0.00 

------------
INNER ENERGY
------------

The inner energy is: U= E(el) + E(ZPE) + E(vib) + E(rot) + E(trans)
    E(el)   - is the total energy from the electronic structure calculation
              = E(kin-el) + E(nuc-el) + E(el-el) + E(nuc-nuc)
    E(ZPE)  - the the zero temperature vibrational energy from the frequency calculation
    E(vib)  - the the finite temperature correction to E(ZPE) due to population
              of excited vibrational states
    E(rot)  - is the rotational thermal energy
    E(trans)- is the translational thermal energy

Summary of contributions to the inner energy U:
Electronic energy                ...   -538.17002195 Eh
Zero point energy                ...      0.18555417 Eh     116.44 kcal/mol
Thermal vibrational correction   ...      0.00715102 Eh       4.49 kcal/mol
Thermal rotational correction    ...      0.00141627 Eh       0.89 kcal/mol
Thermal translational correction ...      0.00141627 Eh       0.89 kcal/mol
-----------------------------------------------------------------------
Total thermal energy                   -537.97448422 Eh


Summary of corrections to the electronic energy:
(perhaps to be used in another calculation)
Total thermal correction                  0.00998356 Eh       6.26 kcal/mol
Non-thermal (ZPE) correction              0.18555417 Eh     116.44 kcal/mol
-----------------------------------------------------------------------
Total correction                          0.19553773 Eh     122.70 kcal/mol


--------
ENTHALPY
--------

The enthalpy is H = U + kB*T
                kB is Boltzmann's constant
Total free energy                 ...   -537.97448422 Eh 
Thermal Enthalpy correction       ...      0.00094421 Eh       0.59 kcal/mol
-----------------------------------------------------------------------
Total Enthalpy                    ...   -537.97354001 Eh


Note: Rotational entropy computed according to Herzberg 
Infrared and Raman Spectra, Chapter V,1, Van Nostrand Reinhold, 1945 
Point Group:  C1, Symmetry Number:   1  
Rotational constants in cm-1:     0.080278     0.014270     0.013379 

Vibrational entropy computed according to the QRRHO of S. Grimme
Chem.Eur.J. 2012 18 9955


-------
ENTROPY
-------

The entropy contributions are T*S = T*(S(el)+S(vib)+S(rot)+S(trans))
     S(el)   - electronic entropy
     S(vib)  - vibrational entropy
     S(rot)  - rotational entropy
     S(trans)- translational entropy
The entropies will be listed as mutliplied by the temperature to get
units of energy

Electronic entropy                ...      0.00000000 Eh      0.00 kcal/mol
Vibrational entropy               ...      0.01207304 Eh      7.58 kcal/mol
Rotational entropy                ...      0.01474437 Eh      9.25 kcal/mol
Translational entropy             ...      0.01962451 Eh     12.31 kcal/mol
-----------------------------------------------------------------------
Final entropy term                ...      0.04644193 Eh     29.14 kcal/mol


-------------------
GIBBS FREE ENTHALPY
-------------------

The Gibbs free enthalpy is G = H - T*S

Total enthalpy                    ...   -537.97354001 Eh 
Total entropy correction          ...     -0.04644193 Eh    -29.14 kcal/mol
-----------------------------------------------------------------------
Final Gibbs free enthalpy         ...   -538.01998194 Eh

For completeness - the Gibbs free enthalpy minus the electronic energy
G-E(el)                           ...      0.15004001 Eh     94.15 kcal/mol


Timings for individual modules:

Sum of individual times         ...     4489.275 sec (=  74.821 min)
GTO integral calculation        ...        0.403 sec (=   0.007 min)   0.0 %
SCF iterations                  ...      120.130 sec (=   2.002 min)   2.7 %
Analytical frequency calculation...     4368.741 sec (=  72.812 min)  97.3 %
                             ****ORCA TERMINATED NORMALLY****
TOTAL RUN TIME: 0 days 1 hours 14 minutes 50 seconds 606 msec
