
                                 *****************
                                 * O   R   C   A *
                                 *****************

           --- An Ab Initio, DFT and Semiempirical electronic structure package ---

                  #######################################################
                  #                        -***-                        #
                  #          Department of theory and spectroscopy      #
                  #               Directorship: Frank Neese             #
                  #        Max Planck Institute fuer Kohlenforschung    #
                  #                Kaiser Wilhelm Platz 1               #
                  #                 D-45470 Muelheim/Ruhr               #
                  #                      Germany                        #
                  #                                                     #
                  #                  All rights reserved                #
                  #                        -***-                        #
                  #######################################################


                         Program Version 4.1.0  - RELEASE  -


 With contributions from (in alphabetic order):
   Daniel Aravena         : Magnetic Properties
   Michael Atanasov       : Ab Initio Ligand Field Theory
   Alexander A. Auer      : GIAO ZORA
   Ute Becker             : Parallelization
   Giovanni Bistoni       : ED, Open-shell LED
   Martin Brehm           : Molecular dynamics
   Dmytro Bykov           : SCF Hessian
   Vijay G. Chilkuri      : MRCI spin determinant printing
   Dipayan Datta          : RHF DLPNO-CCSD density
   Achintya Kumar Dutta   : EOM-CC, STEOM-CC
   Dmitry Ganyushin       : Spin-Orbit,Spin-Spin,Magnetic field MRCI
   Miquel Garcia          : C-PCM Hessian
   Yang Guo               : DLPNO-NEVPT2, CIM, IAO-localization
   Andreas Hansen         : Spin unrestricted coupled pair/coupled cluster methods
   Benjamin Helmich-Paris : CASSCF linear response (MC-RPA)
   Lee Huntington         : MR-EOM, pCC
   Robert Izsak           : Overlap fitted RIJCOSX, COSX-SCS-MP3, EOM
   Christian Kollmar      : KDIIS, OOCD, Brueckner-CCSD(T), CCSD density
   Simone Kossmann        : Meta GGA functionals, TD-DFT gradient, OOMP2, MP2 Hessian
   Martin Krupicka        : AUTO-CI
   Lucas Lang             : DCDCAS
   Dagmar Lenk            : GEPOL surface, SMD
   Dimitrios Liakos       : Extrapolation schemes; parallel MDCI
   Dimitrios Manganas     : ROCIS; embedding schemes
   Dimitrios Pantazis     : SARC Basis sets
   Taras Petrenko         : DFT Hessian,TD-DFT gradient, ASA, ECA, R-Raman, ABS, FL, XAS/XES, NRVS
   Peter Pinski           : DLPNO-MP2, DLPNO-MP2 Gradient
   Christoph Reimann      : Effective Core Potentials
   Marius Retegan         : Local ZFS, SOC
   Christoph Riplinger    : Optimizer, TS searches, QM/MM, DLPNO-CCSD(T), (RO)-DLPNO pert. Triples
   Tobias Risthaus        : Range-separated hybrids, TD-DFT gradient, RPA, STAB
   Michael Roemelt        : Restricted open shell CIS
   Masaaki Saitow         : Open-shell DLPNO
   Barbara Sandhoefer     : DKH picture change effects
   Avijit Sen             : IP-ROCIS
   Kantharuban Sivalingam : CASSCF convergence, NEVPT2, FIC-MRCI
   Bernardo de Souza      : ESD, SOC TD-DFT
   Georgi Stoychev        : AutoAux, RI-MP2 NMR
   Willem Van den Heuvel  : Paramagnetic NMR
   Boris Wezisla          : Elementary symmetry handling
   Frank Wennmohs         : Technical directorship


 We gratefully acknowledge several colleagues who have allowed us to
 interface, adapt or use parts of their codes:
   Stefan Grimme, W. Hujo, H. Kruse,             : VdW corrections, initial TS optimization,
                  C. Bannwarth                     DFT functionals, gCP, sTDA/sTD-DF
   Ed Valeev                                     : LibInt (2-el integral package), F12 methods
   Garnet Chan, S. Sharma, J. Yang, R. Olivares  : DMRG
   Ulf Ekstrom                                   : XCFun DFT Library
   Mihaly Kallay                                 : mrcc  (arbitrary order and MRCC methods)
   Andreas Klamt, Michael Diedenhofen            : otool_cosmo (COSMO solvation model)
   Jiri Pittner, Ondrej Demel                    : Mk-CCSD
   Frank Weinhold                                : gennbo (NPA and NBO analysis)
   Christopher J. Cramer and Donald G. Truhlar   : smd solvation model
   Lars Goerigk                                  : TD-DFT with DH, B97 family of functionals
   V. Asgeirsson, H. Jonsson                     : NEB implementation
   FAccTs GmbH                                   : IRC, NEB, NEB-TS, Multilevel


 Your calculation uses the libint2 library for the computation of 2-el integrals
 For citations please refer to: http://libint.valeyev.net

 This ORCA versions uses:
   CBLAS   interface :  Fast vector & matrix operations
   LAPACKE interface :  Fast linear algebra routines
   SCALAPACK package :  Parallel linear algebra routines




***************************************
The coordinates will be read from file: /Users/lailaal-madhagi/Desktop/Testing_XAS_Analysis_code/Benzophenone/Benzophenone_geom.xyz
***************************************


----- Orbital basis set information -----
Your calculation utilizes the basis: 6-31G*
   H-He, Li-Ne : W. J. Hehre, R. Ditchfield and J.A. Pople, J. Chem. Phys. 56, 2257 (1972).
                 Note: He and Ne are unpublished basis sets taken from the Gaussian program.
                 Note: Li and B from J. D. Dill and J. A. Pople, J. Chem. Phys. 62, 2921 (1975).
   Na - Ar     : M. M. Francl, W. J. Pietro, W. J. Hehre, J. S. Binkley, M. S. Gordon, 
                 D. J. DeFrees and J. A. Pople, J. Chem. Phys. 77, 3654 (1982).
   K - Zn      : V. A. Rassolov, J. A. Pople, M. A. Ratner, and T. L. Windus, J. Chem. Phys. 109, 1223 (1998).

================================================================================
                                        WARNINGS
                       Please study these warnings very carefully!
================================================================================


WARNING: Geometry Optimization
  ===> : Switching off AutoStart
         For restart on a previous wavefunction, please use MOREAD

INFO   : the flag for use of LIBINT has been found!

================================================================================
                                       INPUT FILE
================================================================================
NAME = /Users/lailaal-madhagi/Desktop/Testing_XAS_Analysis_code/Benzophenone//Results_dir_Benzophenone_geom_element_O_2019-11-06_07-18-00//GTE1_Benzophenone_geom_2019-11-06_07-18-09//opt.inp
|  1> ! B3LYP 6-31G* TIGHTSCF Grid3 FinalGrid5 Opt 
|  2> !NormalPrint 
|  3> %output 
|  4> Print[P_Basis] 2 
|  5> Print[P_MOS] 1 
|  6> end 
|  7> *xyzfile 0 1 /Users/lailaal-madhagi/Desktop/Testing_XAS_Analysis_code/Benzophenone/Benzophenone_geom.xyz                           ****END OF INPUT****
================================================================================

                       *****************************
                       * Geometry Optimization Run *
                       *****************************

Geometry optimization settings:
Update method            Update   .... BFGS
Choice of coordinates    CoordSys .... Z-matrix Internals
Initial Hessian          InHess   .... Almoef's Model

Convergence Tolerances:
Energy Change            TolE     ....  5.0000e-06 Eh
Max. Gradient            TolMAXG  ....  3.0000e-04 Eh/bohr
RMS Gradient             TolRMSG  ....  1.0000e-04 Eh/bohr
Max. Displacement        TolMAXD  ....  4.0000e-03 bohr
RMS Displacement         TolRMSD  ....  2.0000e-03 bohr

------------------------------------------------------------------------------
                        ORCA OPTIMIZATION COORDINATE SETUP
------------------------------------------------------------------------------

The optimization will be done in new redundant internal coordinates
Making redundant internal coordinates   ...  (new redundants) done
Evaluating the initial hessian          ...  (Almloef) done
Evaluating the coordinates              ...  done
Calculating the B-matrix                .... done
Calculating the G-matrix                .... done
Diagonalizing the G-matrix              .... done
Small eigenvalue found = 5.521e-03
Small eigenvalue found = 2.254e-02
The first mode is                       ....   50
The number of degrees of freedom        ....   63

    -----------------------------------------------------------------
                    Redundant Internal Coordinates


    -----------------------------------------------------------------
         Definition                    Initial Value    Approx d2E/dq
    -----------------------------------------------------------------
      1. B(C   1,C   0)                  1.3968         0.609428   
      2. B(C   2,C   1)                  1.3986         0.605361   
      3. B(C   3,C   0)                  1.3966         0.609747   
      4. B(C   4,C   3)                  1.3982         0.606227   
      5. B(C   5,C   4)                  1.4018         0.598261   
      6. B(C   5,C   2)                  1.4106         0.579178   
      7. B(H   6,C   1)                  1.0824         0.370265   
      8. B(H   7,C   2)                  1.0809         0.372366   
      9. B(H   8,C   3)                  1.0824         0.370347   
     10. B(H   9,C   0)                  1.0823         0.370373   
     11. B(H  10,C   4)                  1.0829         0.369668   
     12. B(O  11,C   5)                  1.3599         0.625126   
     13. B(C  12,O  11)                  1.3599         0.625096   
     14. B(C  13,C  12)                  1.4106         0.579192   
     15. B(C  14,C  13)                  1.3986         0.605347   
     16. B(C  15,C  14)                  1.3968         0.609434   
     17. B(C  16,C  15)                  1.3966         0.609747   
     18. B(C  17,C  16)                  1.3982         0.606229   
     19. B(C  17,C  12)                  1.4018         0.598273   
     20. B(H  18,C  13)                  1.0809         0.372366   
     21. B(H  19,C  15)                  1.0824         0.370353   
     22. B(H  20,C  14)                  1.0824         0.370280   
     23. B(H  21,C  16)                  1.0824         0.370339   
     24. B(H  22,C  17)                  1.0829         0.369674   
     25. A(C   1,C   0,H   9)          120.0235         0.353563   
     26. A(C   3,C   0,H   9)          120.0202         0.353594   
     27. A(C   1,C   0,C   3)          119.9551         0.431431   
     28. A(C   0,C   1,C   2)          120.1478         0.430871   
     29. A(C   2,C   1,H   6)          119.9521         0.353145   
     30. A(C   0,C   1,H   6)          119.8994         0.353545   
     31. A(C   1,C   2,H   7)          118.4030         0.353483   
     32. A(C   5,C   2,H   7)          121.3122         0.350850   
     33. A(C   1,C   2,C   5)          120.2789         0.426955   
     34. A(C   4,C   3,H   8)          119.9760         0.353243   
     35. A(C   0,C   3,C   4)          120.0619         0.431023   
     36. A(C   0,C   3,H   8)          119.9620         0.353590   
     37. A(C   3,C   4,H  10)          119.4490         0.353134   
     38. A(C   3,C   4,C   5)          120.5982         0.429554   
     39. A(C   5,C   4,H  10)          119.9522         0.352344   
     40. A(C   2,C   5,C   4)          118.9492         0.426053   
     41. A(C   4,C   5,O  11)          118.0688         0.429106   
     42. A(C   2,C   5,O  11)          122.9587         0.426620   
     43. A(C   5,O  11,C  12)          129.2856         0.429674   
     44. A(C  13,C  12,C  17)          118.9497         0.426057   
     45. A(O  11,C  12,C  17)          118.0689         0.429104   
     46. A(O  11,C  12,C  13)          122.9581         0.426618   
     47. A(C  14,C  13,H  18)          118.4027         0.353482   
     48. A(C  12,C  13,H  18)          121.3127         0.350851   
     49. A(C  12,C  13,C  14)          120.2788         0.426955   
     50. A(C  13,C  14,C  15)          120.1472         0.430870   
     51. A(C  15,C  14,H  20)          119.8999         0.353548   
     52. A(C  13,C  14,H  20)          119.9523         0.353146   
     53. A(C  16,C  15,H  19)          120.0197         0.353591   
     54. A(C  14,C  15,H  19)          120.0233         0.353560   
     55. A(C  14,C  15,C  16)          119.9559         0.431431   
     56. A(C  15,C  16,C  17)          120.0613         0.431023   
     57. A(C  17,C  16,H  21)          119.9762         0.353242   
     58. A(C  15,C  16,H  21)          119.9624         0.353589   
     59. A(C  12,C  17,C  16)          120.5982         0.429555   
     60. A(C  16,C  17,H  22)          119.4491         0.353135   
     61. A(C  12,C  17,H  22)          119.9521         0.352346   
     62. D(H   6,C   1,C   0,H   9)     -0.2370         0.025648   
     63. D(H   6,C   1,C   0,C   3)    179.3740         0.025648   
     64. D(C   2,C   1,C   0,C   3)     -0.3205         0.025648   
     65. D(C   2,C   1,C   0,H   9)   -179.9315         0.025648   
     66. D(C   5,C   2,C   1,H   6)    179.9791         0.025288   
     67. D(H   7,C   2,C   1,C   0)    178.8056         0.025288   
     68. D(H   7,C   2,C   1,H   6)     -0.8887         0.025288   
     69. D(C   5,C   2,C   1,C   0)     -0.3265         0.025288   
     70. D(H   8,C   3,C   0,H   9)     -0.0148         0.025676   
     71. D(H   8,C   3,C   0,C   1)   -179.6258         0.025676   
     72. D(C   4,C   3,C   0,C   1)      0.2672         0.025676   
     73. D(C   4,C   3,C   0,H   9)    179.8782         0.025676   
     74. D(H  10,C   4,C   3,C   0)   -179.8612         0.025364   
     75. D(C   5,C   4,C   3,H   8)   -179.6687         0.025364   
     76. D(C   5,C   4,C   3,C   0)      0.4382         0.025364   
     77. D(H  10,C   4,C   3,H   8)      0.0319         0.025364   
     78. D(O  11,C   5,C   4,H  10)      0.9322         0.024666   
     79. D(C   2,C   5,C   4,H  10)    179.2304         0.024666   
     80. D(C   2,C   5,C   4,C   3)     -1.0705         0.024666   
     81. D(O  11,C   5,C   2,H   7)      0.1178         0.023043   
     82. D(O  11,C   5,C   2,C   1)    179.2243         0.023043   
     83. D(O  11,C   5,C   4,C   3)   -179.3687         0.024666   
     84. D(C   4,C   5,C   2,H   7)   -178.0925         0.023043   
     85. D(C   4,C   5,C   2,C   1)      1.0140         0.023043   
     86. D(C  12,O  11,C   5,C   4)   -155.9199         0.028705   
     87. D(C  12,O  11,C   5,C   2)     25.8549         0.028705   
     88. D(C  17,C  12,O  11,C   5)   -155.9191         0.028702   
     89. D(C  13,C  12,O  11,C   5)     25.8557         0.028702   
     90. D(H  18,C  13,C  12,O  11)      0.1170         0.023045   
     91. D(C  14,C  13,C  12,C  17)      1.0139         0.023045   
     92. D(C  14,C  13,C  12,O  11)    179.2243         0.023045   
     93. D(H  18,C  13,C  12,C  17)   -178.0934         0.023045   
     94. D(H  20,C  14,C  13,H  18)     -0.8880         0.025286   
     95. D(H  20,C  14,C  13,C  12)    179.9791         0.025286   
     96. D(C  15,C  14,C  13,H  18)    178.8060         0.025286   
     97. D(C  15,C  14,C  13,C  12)     -0.3269         0.025286   
     98. D(H  19,C  15,C  14,H  20)     -0.2374         0.025648   
     99. D(H  19,C  15,C  14,C  13)   -179.9316         0.025648   
    100. D(C  16,C  15,C  14,H  20)    179.3741         0.025648   
    101. D(C  16,C  15,C  14,C  13)     -0.3201         0.025648   
    102. D(H  21,C  16,C  15,H  19)     -0.0143         0.025676   
    103. D(H  21,C  16,C  15,C  14)   -179.6258         0.025676   
    104. D(C  17,C  16,C  15,H  19)    179.8787         0.025676   
    105. D(C  17,C  16,C  15,C  14)      0.2672         0.025676   
    106. D(H  22,C  17,C  16,H  21)      0.0324         0.025364   
    107. D(H  22,C  17,C  16,C  15)   -179.8606         0.025364   
    108. D(C  12,C  17,C  16,H  21)   -179.6692         0.025364   
    109. D(C  12,C  17,C  16,C  15)      0.4378         0.025364   
    110. D(H  22,C  17,C  12,C  13)    179.2298         0.024667   
    111. D(H  22,C  17,C  12,O  11)      0.9316         0.024667   
    112. D(C  16,C  17,C  12,C  13)     -1.0701         0.024667   
    113. D(C  16,C  17,C  12,O  11)   -179.3683         0.024667   
    -----------------------------------------------------------------

Number of atoms                         .... 23
Number of degrees of freedom            .... 113

         *************************************************************
         *                GEOMETRY OPTIMIZATION CYCLE   1            *
         *************************************************************
---------------------------------
CARTESIAN COORDINATES (ANGSTROEM)
---------------------------------
  C     -2.308130    1.630770   -0.032050
  C     -1.815700    2.808000   -0.600060
  C     -0.439680    2.976550   -0.785120
  C     -1.425500    0.616560    0.346020
  C     -0.049290    0.780950    0.161570
  C      0.460040    1.963060   -0.393660
  H     -2.501310    3.589260   -0.902070
  H     -0.090900    3.890350   -1.245150
  H     -1.807420   -0.298200    0.780600
  H     -3.373460    1.502000    0.109220
  H      0.625900   -0.012720    0.456180
  O      1.805730    2.062940   -0.562040
  C      2.583070    3.175760   -0.643400
  C      2.222680    4.408020   -0.058990
  C      3.072960    5.513550   -0.163550
  C      4.288610    5.401840   -0.842300
  C      4.659540    4.181970   -1.412320
  C      3.812640    3.074240   -1.308920
  H      1.297970    4.520640    0.489220
  H      4.945600    6.258380   -0.921050
  H      2.791010    6.456670    0.286610
  H      5.604280    4.093680   -1.933080
  H      4.111120    2.132630   -1.752610

----------------------------
CARTESIAN COORDINATES (A.U.)
----------------------------
  NO LB      ZA    FRAG     MASS         X           Y           Z
   0 C     6.0000    0    12.011   -4.361734    3.081709   -0.060566
   1 C     6.0000    0    12.011   -3.431176    5.306351   -1.133949
   2 C     6.0000    0    12.011   -0.830875    5.624864   -1.483662
   3 C     6.0000    0    12.011   -2.693805    1.165130    0.653883
   4 C     6.0000    0    12.011   -0.093145    1.475782    0.305323
   5 C     6.0000    0    12.011    0.869350    3.709646   -0.743910
   6 H     1.0000    0     1.008   -4.726791    6.782718   -1.704665
   7 H     1.0000    0     1.008   -0.171776    7.351696   -2.352992
   8 H     1.0000    0     1.008   -3.415529   -0.563516    1.475120
   9 H     1.0000    0     1.008   -6.374916    2.838369    0.206396
  10 H     1.0000    0     1.008    1.182780   -0.024037    0.862055
  11 O     8.0000    0    15.999    3.412335    3.898392   -1.062102
  12 C     6.0000    0    12.011    4.881295    6.001317   -1.215850
  13 C     6.0000    0    12.011    4.200256    8.329951   -0.111475
  14 C     6.0000    0    12.011    5.807053   10.419100   -0.309065
  15 C     6.0000    0    12.011    8.104298   10.207998   -1.591716
  16 C     6.0000    0    12.011    8.805255    7.902778   -2.668898
  17 C     6.0000    0    12.011    7.204845    5.809472   -2.473500
  18 H     1.0000    0     1.008    2.452808    8.542772    0.924492
  19 H     1.0000    0     1.008    9.345830   11.826624   -1.740532
  20 H     1.0000    0     1.008    5.274245   12.201338    0.541614
  21 H     1.0000    0     1.008   10.590554    7.735934   -3.652992
  22 H     1.0000    0     1.008    7.768891    4.030087   -3.311953

--------------------------------
INTERNAL COORDINATES (ANGSTROEM)
--------------------------------
 C      0   0   0     0.000000000000     0.00000000     0.00000000
 C      1   0   0     1.396779559523     0.00000000     0.00000000
 C      2   1   0     1.398601925674   120.14784551     0.00000000
 C      1   2   3     1.396636876894   119.95509318   359.67947097
 C      4   1   2     1.398213087730   120.06185788     0.26720743
 C      5   4   1     1.401813630230   120.59815624     0.43823768
 H      2   1   3     1.082422422070   119.89939303   179.69450273
 H      3   2   1     1.080881829480   118.40302243   178.80564855
 H      4   1   2     1.082362471818   119.96204820   180.37417748
 H      1   2   3     1.082343261031   120.02353197   180.06849156
 H      5   4   1     1.082861328657   119.44900457   180.13883764
 O      6   5   4     1.359856394955   118.06884457   180.63126780
 C     12   6   5     1.359869581100   129.28563927   204.08009411
 C     13  12   6     1.410631315334   122.95809861    25.85570066
 C     14  13  12     1.398608398695   120.27877915   179.22428038
 C     15  14  13     1.396776864463   120.14716725   359.67309216
 C     16  15  14     1.396636918530   119.95587860   359.67988173
 C     17  16  15     1.398212045042   120.06129417     0.26721562
 H     14  13  12     1.080882071551   121.31268492     0.11698297
 H     16  15  14     1.082357701594   120.02325219   180.06842141
 H     15  14  13     1.082411734277   119.95225400   179.97907004
 H     17  16  15     1.082367668263   119.96241341   180.37419339
 H     18  17  16     1.082857570782   119.44907069   180.13939501

---------------------------
INTERNAL COORDINATES (A.U.)
---------------------------
 C      0   0   0     0.000000000000     0.00000000     0.00000000
 C      1   0   0     2.639530836957     0.00000000     0.00000000
 C      2   1   0     2.642974609899   120.14784551     0.00000000
 C      1   2   3     2.639261205865   119.95509318   359.67947097
 C      4   1   2     2.642239812674   120.06185788     0.26720743
 C      5   4   1     2.649043851934   120.59815624     0.43823768
 H      2   1   3     2.045481938928   119.89939303   179.69450273
 H      3   2   1     2.042570640849   118.40302243   178.80564855
 H      4   1   2     2.045368649370   119.96204820   180.37417748
 H      1   2   3     2.045332346245   120.02353197   180.06849156
 H      5   4   1     2.046311352175   119.44900457   180.13883764
 O      6   5   4     2.569756167926   118.06884457   180.63126780
 C     12   6   5     2.569781086128   129.28563927   204.08009411
 C     13  12   6     2.665706861914   122.95809861    25.85570066
 C     14  13  12     2.642986842136   120.27877915   179.22428038
 C     15  14  13     2.639525744033   120.14716725   359.67309216
 C     16  15  14     2.639261284545   119.95587860   359.67988173
 C     17  16  15     2.642237842279   120.06129417     0.26721562
 H     14  13  12     2.042571098297   121.31268492     0.11698297
 H     16  15  14     2.045359634953   120.02325219   180.06842141
 H     15  14  13     2.045461741926   119.95225400   179.97907004
 H     17  16  15     2.045378469227   119.96241341   180.37419339
 H     18  17  16     2.046304250821   119.44907069   180.13939501

---------------------
BASIS SET INFORMATION
---------------------
There are 3 groups of distinct atoms

 Group   1 Type C   : 10s4p1d contracted to 3s2p1d pattern {631/31/1}
 Group   2 Type H   : 4s contracted to 2s pattern {31}
 Group   3 Type O   : 10s4p1d contracted to 3s2p1d pattern {631/31/1}

Atom   0C    basis set group =>   1
Atom   1C    basis set group =>   1
Atom   2C    basis set group =>   1
Atom   3C    basis set group =>   1
Atom   4C    basis set group =>   1
Atom   5C    basis set group =>   1
Atom   6H    basis set group =>   2
Atom   7H    basis set group =>   2
Atom   8H    basis set group =>   2
Atom   9H    basis set group =>   2
Atom  10H    basis set group =>   2
Atom  11O    basis set group =>   3
Atom  12C    basis set group =>   1
Atom  13C    basis set group =>   1
Atom  14C    basis set group =>   1
Atom  15C    basis set group =>   1
Atom  16C    basis set group =>   1
Atom  17C    basis set group =>   1
Atom  18H    basis set group =>   2
Atom  19H    basis set group =>   2
Atom  20H    basis set group =>   2
Atom  21H    basis set group =>   2
Atom  22H    basis set group =>   2

-------------------------
BASIS SET IN INPUT FORMAT
-------------------------

 # Basis set for element : H 
 NewGTO H 
 S 3 
   1      18.7311370000      0.0334945995
   2       2.8253937000      0.2347269467
   3       0.6401217000      0.8137573184
 S 1 
   1       0.1612778000      1.0000000000
  end;

 # Basis set for element : C 
 NewGTO C 
 S 6 
   1    3047.5249000000      0.0018347002
   2     457.3695100000      0.0140373012
   3     103.9486900000      0.0688426061
   4      29.2101550000      0.2321844206
   5       9.2866630000      0.4679413416
   6       3.1639270000      0.3623120322
 S 3 
   1       7.8682724000     -0.1193324086
   2       1.8812885000     -0.1608542116
   3       0.5442493000      1.1434564826
 P 3 
   1       7.8682724000      0.0689990956
   2       1.8812885000      0.3164239798
   3       0.5442493000      0.7443082524
 S 1 
   1       0.1687144000      1.0000000000
 P 1 
   1       0.1687144000      1.0000000000
 D 1 
   1       0.8000000000      1.0000000000
  end;

 # Basis set for element : O 
 NewGTO O 
 S 6 
   1    5484.6717000000      0.0018310998
   2     825.2349500000      0.0139500985
   3     188.0469600000      0.0684450927
   4      52.9645000000      0.2327142753
   5      16.8975700000      0.4701929501
   6       5.7996353000      0.3585208619
 S 3 
   1      15.5396160000     -0.1107775038
   2       3.5999336000     -0.1480263051
   3       1.0137618000      1.1307670390
 P 3 
   1      15.5396160000      0.0708742995
   2       3.5999336000      0.3397527978
   3       1.0137618000      0.7271585953
 S 1 
   1       0.2700058000      1.0000000000
 P 1 
   1       0.2700058000      1.0000000000
 D 1 
   1       0.8000000000      1.0000000000
  end;

------------------------------------------------------------------------------
                           ORCA GTO INTEGRAL CALCULATION
------------------------------------------------------------------------------

                         BASIS SET STATISTICS AND STARTUP INFO

 # of primitive gaussian shells          ...  235
 # of primitive gaussian functions       ...  391
 # of contracted shells                  ...   98
 # of contracted basis functions         ...  202
 Highest angular momentum                ...    2
 Maximum contraction depth               ...    6
 Integral package used                   ... LIBINT
 Integral threshhold            Thresh   ...  2.500e-11
 Primitive cut-off              TCut     ...  2.500e-12


------------------------------ INTEGRAL EVALUATION ----------------------------


 * One electron integrals 
 Pre-screening matrix                    ... done
 Shell pair data                         ... done (   0.003 sec)

-------------------------------------------------------------------------------
                                 ORCA SCF
-------------------------------------------------------------------------------

------------
SCF SETTINGS
------------
Hamiltonian:
 Density Functional     Method          .... DFT(GTOs)
 Exchange Functional    Exchange        .... B88
   X-Alpha parameter    XAlpha          ....  0.666667
   Becke's b parameter  XBeta           ....  0.004200
 Correlation Functional Correlation     .... LYP
 LDA part of GGA corr.  LDAOpt          .... VWN-5
 Gradients option       PostSCFGGA      .... off
 Hybrid DFT is turned on
   Fraction HF Exchange ScalHFX         ....  0.200000
   Scaling of DF-GGA-X  ScalDFX         ....  0.720000
   Scaling of DF-GGA-C  ScalDFC         ....  0.810000
   Scaling of DF-LDA-C  ScalLDAC        ....  1.000000
   Perturbative correction              ....  0.000000
   Density functional embedding theory  .... OFF
   NL short-range parameter             ....  4.800000


General Settings:
 Integral files         IntName         .... /Users/lailaal-madhagi/Desktop/Testing_XAS_Analysis_code/Benzophenone//Results_dir_Benzophenone_geom_element_O_2019-11-06_07-18-00//GTE1_Benzophenone_geom_2019-11-06_07-18-09//opt
 Hartree-Fock type      HFTyp           .... RHF
 Total Charge           Charge          ....    0
 Multiplicity           Mult            ....    1
 Number of Electrons    NEL             ....   90
 Basis Dimension        Dim             ....  202
 Nuclear Repulsion      ENuc            ....    696.2048611760 Eh

Convergence Acceleration:
 DIIS                   CNVDIIS         .... on
   Start iteration      DIISMaxIt       ....    12
   Startup error        DIISStart       ....  0.200000
   # of expansion vecs  DIISMaxEq       ....     5
   Bias factor          DIISBfac        ....   1.050
   Max. coefficient     DIISMaxC        ....  10.000
 Newton-Raphson         CNVNR           .... off
 SOSCF                  CNVSOSCF        .... on
   Start iteration      SOSCFMaxIt      ....   150
   Startup grad/error   SOSCFStart      ....  0.003300
 Level Shifting         CNVShift        .... on
   Level shift para.    LevelShift      ....    0.2500
   Turn off err/grad.   ShiftErr        ....    0.0010
 Zerner damping         CNVZerner       .... off
 Static damping         CNVDamp         .... on
   Fraction old density DampFac         ....    0.7000
   Max. Damping (<1)    DampMax         ....    0.9800
   Min. Damping (>=0)   DampMin         ....    0.0000
   Turn off err/grad.   DampErr         ....    0.1000
 Fernandez-Rico         CNVRico         .... off

SCF Procedure:
 Maximum # iterations   MaxIter         ....   125
 SCF integral mode      SCFMode         .... Direct
   Integral package                     .... LIBINT
 Reset frequency        DirectResetFreq ....    20
 Integral Threshold     Thresh          ....  2.500e-11 Eh
 Primitive CutOff       TCut            ....  2.500e-12 Eh

Convergence Tolerance:
 Convergence Check Mode ConvCheckMode   .... Total+1el-Energy
 Convergence forced     ConvForced      .... 0
 Energy Change          TolE            ....  1.000e-08 Eh
 1-El. energy change                    ....  1.000e-05 Eh
 Orbital Gradient       TolG            ....  1.000e-05
 Orbital Rotation angle TolX            ....  1.000e-05
 DIIS Error             TolErr          ....  5.000e-07


Diagonalization of the overlap matrix:
Smallest eigenvalue                        ... 4.698e-04
Time for diagonalization                   ...    0.006 sec
Threshold for overlap eigenvalues          ... 1.000e-08
Number of eigenvalues below threshold      ... 0
Time for construction of square roots      ...    0.004 sec
Total time needed                          ...    0.010 sec

-------------------
DFT GRID GENERATION
-------------------

General Integration Accuracy     IntAcc      ...  4.340
Radial Grid Type                 RadialGrid  ... Gauss-Chebyshev
Angular Grid (max. acc.)         AngularGrid ... Lebedev-194
Angular grid pruning method      GridPruning ... 3 (G Style)
Weight generation scheme         WeightScheme... Becke
Basis function cutoff            BFCut       ...    1.0000e-11
Integration weight cutoff        WCut        ...    1.0000e-14
Grids for H and He will be reduced by one unit

# of grid points (after initial pruning)     ...  57946 (   0.0 sec)
# of grid points (after weights+screening)   ...  52610 (   0.3 sec)
nearest neighbour list constructed           ...    0.0 sec
Grid point re-assignment to atoms done       ...    0.0 sec
Grid point division into batches done        ...    0.1 sec
Reduced shell lists constructed in    0.5 sec

Total number of grid points                  ...    52610
Total number of batches                      ...      836
Average number of points per batch           ...       62
Average number of grid points per atom       ...     2287
Average number of shells per batch           ...    54.49 (55.61%)
Average number of basis functions per batch  ...   113.79 (56.33%)
Average number of large shells per batch     ...    38.92 (71.41%)
Average number of large basis fcns per batch ...    82.52 (72.52%)
Maximum spatial batch extension              ...  17.67, 19.77, 21.21 au
Average spatial batch extension              ...   2.87,  2.96,  3.27 au

Time for grid setup =    0.842 sec

------------------------------
INITIAL GUESS: MODEL POTENTIAL
------------------------------
Loading Hartree-Fock densities                     ... done
Calculating cut-offs                               ... done
Setting up the integral package                    ... done
Initializing the effective Hamiltonian             ... done
Starting the Coulomb interaction                   ... done (   0.2 sec)
Reading the grid                                   ... done
Mapping shells                                     ... done
Starting the XC term evaluation                    ... done (   0.6 sec)
  promolecular density results
     # of electrons  =     89.994757794
     EX              =    -72.864209043
     EC              =     -3.028521181
     EX+EC           =    -75.892730224
Transforming the Hamiltonian                       ... done (   0.0 sec)
Diagonalizing the Hamiltonian                      ... done (   0.0 sec)
Back transforming the eigenvectors                 ... done (   0.0 sec)
Now organizing SCF variables                       ... done
                      ------------------
                      INITIAL GUESS DONE (   1.8 sec)
                      ------------------
--------------
SCF ITERATIONS
--------------
               ***  Starting incremental Fock matrix formation  ***

                         ----------------------------
                         !        ITERATION     0   !
                         ----------------------------
   Total Energy        :    -537.883781835686 Eh
   Energy Change       :    -537.883781835686 Eh
   MAX-DP              :       0.045008452311
   RMS-DP              :       0.001873820343
   Actual Damping      :       0.7000
   Actual Level Shift  :       0.2500 Eh
   Int. Num. El.       :    89.99971303 (UP=   44.99985651 DN=   44.99985651)
   Exchange            :   -59.57680284
   Correlation         :    -3.60865288


                         ----------------------------
                         !        ITERATION     1   !
                         ----------------------------
   Total Energy        :    -538.009667002852 Eh
   Energy Change       :      -0.125885167165 Eh
   MAX-DP              :       0.031351350168
   RMS-DP              :       0.001386235365
   Actual Damping      :       0.7000
   Actual Level Shift  :       0.2500 Eh
   Int. Num. El.       :    89.99968788 (UP=   44.99984394 DN=   44.99984394)
   Exchange            :   -59.24647388
   Correlation         :    -3.59461167

                               ***Turning on DIIS***

                         ----------------------------
                         !        ITERATION     2   !
                         ----------------------------
   Total Energy        :    -538.064801924740 Eh
   Energy Change       :      -0.055134921889 Eh
   MAX-DP              :       0.053397393016
   RMS-DP              :       0.002416835074
   Actual Damping      :       0.0000
   Actual Level Shift  :       0.2500 Eh
   Int. Num. El.       :    89.99966374 (UP=   44.99983187 DN=   44.99983187)
   Exchange            :   -59.01403851
   Correlation         :    -3.58435611
   DIIS-Error          :       0.035998709445


                         ----------------------------
                         !        ITERATION     3   !
                         ----------------------------
   Total Energy        :    -538.144469209139 Eh
   Energy Change       :      -0.079667284399 Eh
   MAX-DP              :       0.024590269809
   RMS-DP              :       0.000954580764
   Actual Damping      :       0.0000
   Actual Level Shift  :       0.2500 Eh
   Int. Num. El.       :    89.99961482 (UP=   44.99980741 DN=   44.99980741)
   Exchange            :   -58.62317404
   Correlation         :    -3.56679844
   DIIS-Error          :       0.040578834851
   DIIS coefficients:
      0.56007   0.43993


                         ----------------------------
                         !        ITERATION     4   !
                         ----------------------------
   Total Energy        :    -538.164145569694 Eh
   Energy Change       :      -0.019676360555 Eh
   MAX-DP              :       0.009607303657
   RMS-DP              :       0.000334722836
   Actual Damping      :       0.0000
   Actual Level Shift  :       0.2500 Eh
   Int. Num. El.       :    89.99962808 (UP=   44.99981404 DN=   44.99981404)
   Exchange            :   -58.75437611
   Correlation         :    -3.57329427
   DIIS-Error          :       0.011045964513
   DIIS coefficients:
      0.19227   0.01533   0.79240

                      *** Initiating the SOSCF procedure ***
                           *** Shutting down DIIS ***
                      *** Re-Reading the Fockian *** 
                      *** Removing any level shift *** 

                         ----------------------------
                         !        ITERATION     5   !
                         ----------------------------
   Total Energy        :    -538.165258273938 Eh
   Energy Change       :      -0.001112704244 Eh
   MAX-DP              :       0.002974959601
   RMS-DP              :       0.000095684879
   Orbital gradient    :       0.000857682697
   Orbital Rotation    :       0.000857682697
   Actual Damping      :       0.0000
   Int. Num. El.       :    89.99963373 (UP=   44.99981687 DN=   44.99981687)
   Exchange            :   -58.79777823
   Correlation         :    -3.57526090

               *** Restarting incremental Fock matrix formation ***

                         ----------------------------
                         !        ITERATION     6   !
                         ----------------------------
   Total Energy        :    -538.165330719108 Eh
   Energy Change       :      -0.000072445170 Eh
   MAX-DP              :       0.001391902289
   RMS-DP              :       0.000045751662
   Orbital gradient    :       0.000206811570
   Orbital Rotation    :       0.000855694420
   Actual Damping      :       0.0000
   Int. Num. El.       :    89.99963559 (UP=   44.99981780 DN=   44.99981780)
   Exchange            :   -58.80314947
   Correlation         :    -3.57553353


                         ----------------------------
                         !        ITERATION     7   !
                         ----------------------------
   Total Energy        :    -538.165332158513 Eh
   Energy Change       :      -0.000001439405 Eh
   MAX-DP              :       0.000940251956
   RMS-DP              :       0.000014754115
   Orbital gradient    :       0.000297760179
   Orbital Rotation    :       0.000371764592
   Actual Damping      :       0.0000
   Int. Num. El.       :    89.99963608 (UP=   44.99981804 DN=   44.99981804)
   Exchange            :   -58.80561864
   Correlation         :    -3.57561416


                         ----------------------------
                         !        ITERATION     8   !
                         ----------------------------
   Total Energy        :    -538.165334281180 Eh
   Energy Change       :      -0.000002122667 Eh
   MAX-DP              :       0.000306441804
   RMS-DP              :       0.000011604700
   Orbital gradient    :       0.000100342897
   Orbital Rotation    :       0.000317298186
   Actual Damping      :       0.0000
   Int. Num. El.       :    89.99963627 (UP=   44.99981814 DN=   44.99981814)
   Exchange            :   -58.80456824
   Correlation         :    -3.57558639


                         ----------------------------
                         !        ITERATION     9   !
                         ----------------------------
   Total Energy        :    -538.165334323467 Eh
   Energy Change       :      -0.000000042287 Eh
   MAX-DP              :       0.000165494595
   RMS-DP              :       0.000003917253
   Orbital gradient    :       0.000102482697
   Orbital Rotation    :       0.000167475406
   Actual Damping      :       0.0000
   Int. Num. El.       :    89.99963604 (UP=   44.99981802 DN=   44.99981802)
   Exchange            :   -58.80413977
   Correlation         :    -3.57556426


                         ----------------------------
                         !        ITERATION    10   !
                         ----------------------------
   Total Energy        :    -538.165334509625 Eh
   Energy Change       :      -0.000000186159 Eh
   MAX-DP              :       0.000113503834
   RMS-DP              :       0.000003432191
   Orbital gradient    :       0.000018927147
   Orbital Rotation    :       0.000040639823
   Actual Damping      :       0.0000
   Int. Num. El.       :    89.99963607 (UP=   44.99981804 DN=   44.99981804)
   Exchange            :   -58.80435759
   Correlation         :    -3.57557447


                         ----------------------------
                         !        ITERATION    11   !
                         ----------------------------
   Total Energy        :    -538.165334516550 Eh
   Energy Change       :      -0.000000006924 Eh
   MAX-DP              :       0.000042186889
   RMS-DP              :       0.000001269699
   Orbital gradient    :       0.000022196041
   Orbital Rotation    :       0.000040619237
   Actual Damping      :       0.0000
   Int. Num. El.       :    89.99963613 (UP=   44.99981807 DN=   44.99981807)
   Exchange            :   -58.80451386
   Correlation         :    -3.57558244


                         ----------------------------
                         !        ITERATION    12   !
                         ----------------------------
   Total Energy        :    -538.165334533532 Eh
   Energy Change       :      -0.000000016982 Eh
   MAX-DP              :       0.000023069157
   RMS-DP              :       0.000000929722
   Orbital gradient    :       0.000007680401
   Orbital Rotation    :       0.000020997275
   Actual Damping      :       0.0000
   Int. Num. El.       :    89.99963612 (UP=   44.99981806 DN=   44.99981806)
   Exchange            :   -58.80441732
   Correlation         :    -3.57557718


                         ----------------------------
                         !        ITERATION    13   !
                         ----------------------------
   Total Energy        :    -538.165334533180 Eh
   Energy Change       :       0.000000000352 Eh
   MAX-DP              :       0.000011019607
   RMS-DP              :       0.000000398432
   Orbital gradient    :       0.000004694629
   Orbital Rotation    :       0.000009226013
   Actual Damping      :       0.0000
   Int. Num. El.       :    89.99963610 (UP=   44.99981805 DN=   44.99981805)
   Exchange            :   -58.80438445
   Correlation         :    -3.57557585

                  ***Gradient check signals convergence***
              ***Rediagonalizing the Fockian in SOSCF/NRSCF***

               *****************************************************
               *                     SUCCESS                       *
               *           SCF CONVERGED AFTER  14 CYCLES          *
               *****************************************************

Setting up the final grid:

General Integration Accuracy     IntAcc      ...  5.010
Radial Grid Type                 RadialGrid  ... Gauss-Chebyshev
Angular Grid (max. acc.)         AngularGrid ... Lebedev-434
Angular grid pruning method      GridPruning ... 3 (G Style)
Weight generation scheme         WeightScheme... Becke
Basis function cutoff            BFCut       ...    1.0000e-11
Integration weight cutoff        WCut        ...    1.0000e-14
Grids for H and He will be reduced by one unit

# of grid points (after initial pruning)     ... 206138 (   0.2 sec)
# of grid points (after weights+screening)   ... 185332 (   1.0 sec)
nearest neighbour list constructed           ...    0.0 sec
Grid point re-assignment to atoms done       ...    0.0 sec
Grid point division into batches done        ...    1.3 sec
Reduced shell lists constructed in    3.0 sec

Total number of grid points                  ...   185332
Total number of batches                      ...     2909
Average number of points per batch           ...       63
Average number of grid points per atom       ...     8058
Average number of shells per batch           ...    50.03 (51.05%)
Average number of basis functions per batch  ...   104.31 (51.64%)
Average number of large shells per batch     ...    35.25 (70.46%)
Average number of large basis fcns per batch ...    74.42 (71.35%)
Maximum spatial batch extension              ...  18.79, 19.72, 22.28 au
Average spatial batch extension              ...   1.94,  2.02,  2.15 au

Final grid set up in    4.2 sec
Final integration                            ... done (   2.9 sec)
Change in XC energy                          ...    -0.000192245
Integrated number of electrons               ...    89.999971784
Previous integrated no of electrons          ...    89.999636108

----------------
TOTAL SCF ENERGY
----------------

Total Energy       :         -538.16552678 Eh          -14644.22848 eV

Components:
Nuclear Repulsion  :          696.20486118 Eh           18944.69740 eV
Electronic Energy  :        -1234.37038796 Eh          -33588.92588 eV
One Electron Energy:        -2108.62402932 Eh          -57378.57691 eV
Two Electron Energy:          874.25364136 Eh           23789.65102 eV

Virial components:
Potential Energy   :        -1073.12921069 Eh          -29201.33039 eV
Kinetic Energy     :          534.96368391 Eh           14557.10191 eV
Virial Ratio       :            2.00598516


DFT components:
N(Alpha)           :       44.999985891982 electrons
N(Beta)            :       44.999985891982 electrons
N(Total)           :       89.999971783963 electrons
E(X)               :      -58.804626769521 Eh       
E(C)               :       -3.575558657682 Eh       
E(XC)              :      -62.380185427203 Eh       
DFET-embed. en.    :        0.000000000000 Eh       

---------------
SCF CONVERGENCE
---------------

  Last Energy change         ...   -2.3217e-09  Tolerance :   1.0000e-08
  Last MAX-Density change    ...    3.1932e-06  Tolerance :   1.0000e-07
  Last RMS-Density change    ...    1.6251e-07  Tolerance :   5.0000e-09
  Last Orbital Gradient      ...    8.9434e-07  Tolerance :   1.0000e-05
  Last Orbital Rotation      ...    4.0383e-06  Tolerance :   1.0000e-05

             **** THE GBW FILE WAS UPDATED (/Users/lailaal-madhagi/Desktop/Testing_XAS_Analysis_code/Benzophenone//Results_dir_Benzophenone_geom_element_O_2019-11-06_07-18-00//GTE1_Benzophenone_geom_2019-11-06_07-18-09//opt.gbw) ****
             **** DENSITY FILE WAS UPDATED (/Users/lailaal-madhagi/Desktop/Testing_XAS_Analysis_code/Benzophenone//Results_dir_Benzophenone_geom_element_O_2019-11-06_07-18-00//GTE1_Benzophenone_geom_2019-11-06_07-18-09//opt.scfp.tmp) ****
             **** ENERGY FILE WAS UPDATED (/Users/lailaal-madhagi/Desktop/Testing_XAS_Analysis_code/Benzophenone//Results_dir_Benzophenone_geom_element_O_2019-11-06_07-18-00//GTE1_Benzophenone_geom_2019-11-06_07-18-09//opt.en.tmp) ****
----------------
ORBITAL ENERGIES
----------------

  NO   OCC          E(Eh)            E(eV) 
   0   2.0000     -19.183360      -522.0058 
   1   2.0000     -10.249413      -278.9007 
   2   2.0000     -10.249401      -278.9004 
   3   2.0000     -10.183032      -277.0944 
   4   2.0000     -10.183024      -277.0942 
   5   2.0000     -10.182956      -277.0923 
   6   2.0000     -10.182948      -277.0921 
   7   2.0000     -10.180201      -277.0173 
   8   2.0000     -10.180191      -277.0171 
   9   2.0000     -10.179607      -277.0012 
  10   2.0000     -10.179592      -277.0008 
  11   2.0000     -10.175622      -276.8928 
  12   2.0000     -10.175608      -276.8924 
  13   2.0000      -1.083850       -29.4930 
  14   2.0000      -0.855219       -23.2717 
  15   2.0000      -0.839488       -22.8436 
  16   2.0000      -0.765040       -20.8178 
  17   2.0000      -0.745648       -20.2901 
  18   2.0000      -0.740304       -20.1447 
  19   2.0000      -0.717845       -19.5336 
  20   2.0000      -0.638607       -17.3774 
  21   2.0000      -0.615377       -16.7453 
  22   2.0000      -0.598719       -16.2920 
  23   2.0000      -0.576585       -15.6897 
  24   2.0000      -0.545893       -14.8545 
  25   2.0000      -0.504238       -13.7210 
  26   2.0000      -0.483605       -13.1596 
  27   2.0000      -0.474979       -12.9248 
  28   2.0000      -0.457895       -12.4600 
  29   2.0000      -0.446430       -12.1480 
  30   2.0000      -0.438503       -11.9323 
  31   2.0000      -0.421314       -11.4645 
  32   2.0000      -0.420245       -11.4354 
  33   2.0000      -0.405865       -11.0441 
  34   2.0000      -0.384599       -10.4655 
  35   2.0000      -0.365030        -9.9330 
  36   2.0000      -0.359869        -9.7925 
  37   2.0000      -0.355359        -9.6698 
  38   2.0000      -0.346966        -9.4414 
  39   2.0000      -0.327978        -8.9247 
  40   2.0000      -0.324567        -8.8319 
  41   2.0000      -0.249016        -6.7761 
  42   2.0000      -0.246868        -6.7176 
  43   2.0000      -0.246610        -6.7106 
  44   2.0000      -0.207815        -5.6549 
  45   0.0000      -0.004860        -0.1322 
  46   0.0000       0.000535         0.0146 
  47   0.0000       0.002299         0.0626 
  48   0.0000       0.025193         0.6855 
  49   0.0000       0.090118         2.4522 
  50   0.0000       0.101128         2.7518 
  51   0.0000       0.143700         3.9103 
  52   0.0000       0.149433         4.0663 
  53   0.0000       0.150231         4.0880 
  54   0.0000       0.156752         4.2654 
  55   0.0000       0.162659         4.4262 
  56   0.0000       0.172700         4.6994 
  57   0.0000       0.180169         4.9027 
  58   0.0000       0.190854         5.1934 
  59   0.0000       0.194020         5.2795 
  60   0.0000       0.197216         5.3665 
  61   0.0000       0.200670         5.4605 
  62   0.0000       0.262452         7.1417 
  63   0.0000       0.277013         7.5379 
  64   0.0000       0.303240         8.2516 
  65   0.0000       0.307232         8.3602 
  66   0.0000       0.317475         8.6389 
  67   0.0000       0.329796         8.9742 
  68   0.0000       0.332739         9.0543 
  69   0.0000       0.357656         9.7323 
  70   0.0000       0.386245        10.5103 
  71   0.0000       0.461739        12.5646 
  72   0.0000       0.485462        13.2101 
  73   0.0000       0.486772        13.2457 
  74   0.0000       0.521460        14.1896 
  75   0.0000       0.532482        14.4896 
  76   0.0000       0.544782        14.8243 
  77   0.0000       0.549248        14.9458 
  78   0.0000       0.554130        15.0786 
  79   0.0000       0.559606        15.2276 
  80   0.0000       0.574239        15.6258 
  81   0.0000       0.589389        16.0381 
  82   0.0000       0.597115        16.2483 
  83   0.0000       0.597823        16.2676 
  84   0.0000       0.600495        16.3403 
  85   0.0000       0.605977        16.4895 
  86   0.0000       0.608723        16.5642 
  87   0.0000       0.618934        16.8421 
  88   0.0000       0.620195        16.8764 
  89   0.0000       0.624227        16.9861 
  90   0.0000       0.624296        16.9880 
  91   0.0000       0.633636        17.2421 
  92   0.0000       0.634457        17.2644 
  93   0.0000       0.658585        17.9210 
  94   0.0000       0.660478        17.9725 
  95   0.0000       0.665776        18.1167 
  96   0.0000       0.686992        18.6940 
  97   0.0000       0.703223        19.1357 
  98   0.0000       0.762383        20.7455 
  99   0.0000       0.780364        21.2348 
 100   0.0000       0.831393        22.6233 
 101   0.0000       0.832194        22.6451 
 102   0.0000       0.842529        22.9264 
 103   0.0000       0.847233        23.0544 
 104   0.0000       0.852999        23.2113 
 105   0.0000       0.856002        23.2930 
 106   0.0000       0.874172        23.7874 
 107   0.0000       0.877829        23.8869 
 108   0.0000       0.886118        24.1125 
 109   0.0000       0.921952        25.0876 
 110   0.0000       0.922793        25.1105 
 111   0.0000       0.933285        25.3960 
 112   0.0000       0.939217        25.5574 
 113   0.0000       0.952553        25.9203 
 114   0.0000       0.960950        26.1488 
 115   0.0000       0.978950        26.6386 
 116   0.0000       0.979776        26.6611 
 117   0.0000       1.030851        28.0509 
 118   0.0000       1.054426        28.6924 
 119   0.0000       1.074683        29.2436 
 120   0.0000       1.088955        29.6320 
 121   0.0000       1.113980        30.3129 
 122   0.0000       1.128672        30.7127 
 123   0.0000       1.167053        31.7571 
 124   0.0000       1.173071        31.9209 
 125   0.0000       1.188579        32.3429 
 126   0.0000       1.194665        32.5085 
 127   0.0000       1.199160        32.6308 
 128   0.0000       1.243792        33.8453 
 129   0.0000       1.276877        34.7456 
 130   0.0000       1.287134        35.0247 
 131   0.0000       1.325050        36.0564 
 132   0.0000       1.411450        38.4075 
 133   0.0000       1.424786        38.7704 
 134   0.0000       1.433309        39.0023 
 135   0.0000       1.434243        39.0277 
 136   0.0000       1.453897        39.5626 
 137   0.0000       1.463324        39.8191 
 138   0.0000       1.467496        39.9326 
 139   0.0000       1.483919        40.3795 
 140   0.0000       1.498233        40.7690 
 141   0.0000       1.498714        40.7821 
 142   0.0000       1.514264        41.2052 
 143   0.0000       1.516645        41.2700 
 144   0.0000       1.539051        41.8797 
 145   0.0000       1.688140        45.9366 
 146   0.0000       1.740066        47.3496 
 147   0.0000       1.762886        47.9706 
 148   0.0000       1.772573        48.2342 
 149   0.0000       1.814798        49.3832 
 150   0.0000       1.831648        49.8417 
 151   0.0000       1.877915        51.1007 
 152   0.0000       1.884717        51.2858 
 153   0.0000       1.906560        51.8801 
 154   0.0000       1.915988        52.1367 
 155   0.0000       1.920054        52.2473 
 156   0.0000       1.952298        53.1247 
 157   0.0000       1.958033        53.2808 
 158   0.0000       1.976360        53.7795 
 159   0.0000       1.981899        53.9302 
 160   0.0000       1.982678        53.9514 
 161   0.0000       2.008831        54.6631 
 162   0.0000       2.071417        56.3661 
 163   0.0000       2.071540        56.3695 
 164   0.0000       2.120424        57.6997 
 165   0.0000       2.132508        58.0285 
 166   0.0000       2.133764        58.0627 
 167   0.0000       2.146633        58.4129 
 168   0.0000       2.148409        58.4612 
 169   0.0000       2.162705        58.8502 
 170   0.0000       2.181649        59.3657 
 171   0.0000       2.226971        60.5990 
 172   0.0000       2.247198        61.1494 
 173   0.0000       2.255279        61.3693 
 174   0.0000       2.298341        62.5410 
 175   0.0000       2.306424        62.7610 
 176   0.0000       2.307998        62.8038 
 177   0.0000       2.314698        62.9861 
 178   0.0000       2.385887        64.9233 
 179   0.0000       2.459485        66.9260 
 180   0.0000       2.530473        68.8577 
 181   0.0000       2.565144        69.8011 
 182   0.0000       2.584010        70.3145 
 183   0.0000       2.595418        70.6249 
 184   0.0000       2.603202        70.8367 
 185   0.0000       2.637039        71.7575 
 186   0.0000       2.648602        72.0721 
 187   0.0000       2.687168        73.1216 
 188   0.0000       2.724069        74.1257 
 189   0.0000       2.727158        74.2097 
 190   0.0000       2.727773        74.2265 
 191   0.0000       2.738373        74.5149 
 192   0.0000       2.741295        74.5944 
 193   0.0000       2.751062        74.8602 
 194   0.0000       2.786227        75.8171 
 195   0.0000       2.838006        77.2261 
 196   0.0000       2.945112        80.1406 
 197   0.0000       2.966189        80.7141 
 198   0.0000       3.134355        85.2901 
 199   0.0000       3.318677        90.3058 
 200   0.0000       3.409911        92.7884 
 201   0.0000       3.449210        93.8578 
------------------
MOLECULAR ORBITALS
------------------
                      0         1         2         3         4         5   
                 -19.18336 -10.24941 -10.24940 -10.18303 -10.18302 -10.18296
                   2.00000   2.00000   2.00000   2.00000   2.00000   2.00000
                  --------  --------  --------  --------  --------  --------
  0C   1s        -0.000031 -0.000188 -0.000131 -0.000590  0.031068  0.027111
  0C   2s        -0.000278 -0.000637 -0.000444  0.000060 -0.001118 -0.000965
  0C   1pz        0.000011 -0.000030  0.000045 -0.000012  0.000502 -0.000383
  0C   1px       -0.000098 -0.000216 -0.000108  0.000015 -0.000553 -0.000811
  0C   1py       -0.000014  0.000071 -0.000077  0.000023 -0.001024  0.001010
  0C   3s         0.002577  0.005308  0.004280 -0.000732  0.012613  0.011121
  0C   2pz       -0.000068 -0.000625 -0.000426  0.000078 -0.001633  0.000336
  0C   2px        0.002179  0.003773  0.002928 -0.000392  0.005409  0.005510
  0C   2py       -0.000156  0.000846  0.000335 -0.000100  0.002666 -0.001767
  0C   1dz2      -0.000038 -0.000082 -0.000056  0.000001  0.000311  0.000429
  0C   1dxz       0.000007 -0.000014  0.000004 -0.000005  0.000253 -0.000415
  0C   1dyz      -0.000036 -0.000104 -0.000063 -0.000012  0.000789  0.000385
  0C   1dx2y2    -0.000016 -0.000040 -0.000013 -0.000013  0.000751  0.000186
  0C   1dxy      -0.000019  0.000014 -0.000032  0.000014 -0.000539  0.001059
  1C   1s         0.000018  0.000036 -0.000023 -0.021182  0.988951 -0.072972
  1C   2s         0.000064  0.000149 -0.000101 -0.000791  0.036041 -0.002736
  1C   1pz       -0.000008  0.000007 -0.000033 -0.000013  0.000211 -0.000134
  1C   1px       -0.000175 -0.000405 -0.000177 -0.000005  0.000487 -0.000025
  1C   1py        0.000097  0.000012  0.000101  0.000008 -0.000548  0.000305
  1C   3s        -0.005924 -0.009267 -0.005033  0.001173 -0.031412 -0.002499
  1C   2pz       -0.000095 -0.001197 -0.000420  0.000159 -0.001910 -0.000511
  1C   2px       -0.002542 -0.003487 -0.001501  0.000275 -0.004224 -0.001355
  1C   2py        0.000449  0.003184  0.001440 -0.000349  0.005020  0.001366
  1C   1dz2       0.000003  0.000030 -0.000046  0.000007 -0.000390 -0.000015
  1C   1dxz      -0.000022  0.000007  0.000002  0.000005 -0.000213  0.000011
  1C   1dyz      -0.000013 -0.000047 -0.000046  0.000006 -0.000360  0.000037
  1C   1dx2y2    -0.000030 -0.000116  0.000004 -0.000001  0.000117  0.000079
  1C   1dxy       0.000031 -0.000011  0.000019 -0.000009  0.000309 -0.000046
  2C   1s        -0.000025  0.002130  0.001625 -0.001522  0.074645 -0.008637
  2C   2s        -0.000322 -0.002030 -0.000881  0.000041  0.000578 -0.000661
  2C   1pz       -0.000057 -0.000282 -0.000188  0.000016 -0.000164 -0.000061
  2C   1px        0.000067 -0.000249 -0.000453 -0.000020  0.001289 -0.000055
  2C   1py       -0.000004  0.000647  0.000593 -0.000021  0.000150  0.000145
  2C   3s         0.005269  0.020649  0.006668 -0.000801  0.010990  0.002668
  2C   2pz        0.002269  0.004824  0.002146 -0.000309  0.001917  0.000911
  2C   2px       -0.005254 -0.001288 -0.002385  0.000258 -0.003731 -0.001025
  2C   2py       -0.003847 -0.009781 -0.005015  0.000614 -0.003606 -0.001847
  2C   1dz2       0.000004  0.000256  0.000295  0.000002  0.000552 -0.000110
  2C   1dxz      -0.000066 -0.000315 -0.000234 -0.000010  0.000257 -0.000033
  2C   1dyz      -0.000157  0.000163  0.000217  0.000008 -0.000034 -0.000046
  2C   1dx2y2    -0.000278  0.000129 -0.000120  0.000038 -0.001065  0.000105
  2C   1dxy       0.000169  0.000767  0.000593 -0.000003 -0.000212  0.000011
  3C   1s         0.000016 -0.000058  0.000046 -0.000433  0.072579  0.989791
  3C   2s         0.000025 -0.000248  0.000180 -0.000027  0.002561  0.036121
  3C   1pz        0.000065  0.000108  0.000056 -0.000003  0.000080 -0.000325
  3C   1px       -0.000171 -0.000187 -0.000239  0.000010  0.000119  0.000273
  3C   1py       -0.000101 -0.000226 -0.000079  0.000010 -0.000198  0.000690
  3C   3s        -0.005364 -0.006460 -0.007062  0.000629 -0.006893 -0.031067
  3C   2pz        0.000807  0.000691  0.001447 -0.000160  0.001151  0.002729
  3C   2px       -0.001151 -0.001534 -0.001957  0.000120 -0.001044 -0.002157
  3C   2py       -0.001639 -0.001432 -0.002843  0.000276 -0.002429 -0.005763
  3C   1dz2      -0.000006 -0.000079  0.000014 -0.000000 -0.000068 -0.000457
  3C   1dxz       0.000015 -0.000022  0.000031 -0.000003 -0.000037  0.000034
  3C   1dyz      -0.000002 -0.000067 -0.000011 -0.000001 -0.000026 -0.000239
  3C   1dx2y2     0.000001  0.000005 -0.000062  0.000000  0.000085  0.000299
  3C   1dxy      -0.000027 -0.000011 -0.000046 -0.000004  0.000038 -0.000292
  4C   1s        -0.000045  0.002392  0.001625  0.000021  0.002122  0.063534
  4C   2s        -0.000472 -0.001389 -0.001414  0.000060 -0.000583  0.000202
  4C   1pz        0.000004  0.000394  0.000213 -0.000008  0.000041 -0.000184
  4C   1px        0.000056 -0.000412 -0.000025 -0.000013  0.000186  0.001281
  4C   1py       -0.000022 -0.000907 -0.000494 -0.000013 -0.000129  0.000178
  4C   3s         0.007241  0.008016  0.014263 -0.000885  0.004291  0.011426
  4C   2pz       -0.001386 -0.001144 -0.002464  0.000245 -0.000653 -0.000838
  4C   2px       -0.004492 -0.005754 -0.003925  0.000362 -0.002091 -0.004563
  4C   2py        0.003908  0.004308  0.006149 -0.000451  0.001892  0.002742
  4C   1dz2      -0.000066  0.000240  0.000116  0.000009 -0.000027  0.000549
  4C   1dxz       0.000104  0.000331  0.000184  0.000002  0.000005  0.000306
  4C   1dyz      -0.000088  0.000546  0.000307  0.000022 -0.000048 -0.000004
  4C   1dx2y2    -0.000078  0.000350  0.000312  0.000007 -0.000046 -0.001047
  4C   1dxy      -0.000251 -0.000732 -0.000405  0.000002 -0.000017 -0.000318
  5C   1s         0.000129  0.809031  0.579506 -0.000008 -0.000173 -0.000117
  5C   2s         0.001153  0.031066  0.021772  0.000007 -0.000202 -0.000173
  5C   1pz       -0.000034 -0.000234 -0.000057  0.000015  0.000045 -0.000090
  5C   1px        0.000281  0.001577  0.000900  0.000017  0.000234  0.000114
  5C   1py        0.000039  0.000410 -0.000129  0.000062 -0.000111  0.000181
  5C   3s         0.000943 -0.021196 -0.018277  0.000516 -0.005016 -0.004814
  5C   2pz       -0.002319  0.000339 -0.002515  0.000116  0.000024 -0.000590
  5C   2px        0.012766  0.018212  0.010382 -0.001140  0.001458  0.001347
  5C   2py        0.003444 -0.005461  0.004929 -0.000311 -0.000284  0.001206
  5C   1dz2      -0.000020 -0.000917 -0.000776  0.000022  0.000064  0.000027
  5C   1dxz       0.000051 -0.000345 -0.000153  0.000009 -0.000040  0.000069
  5C   1dyz      -0.000168 -0.000476 -0.000269 -0.000016 -0.000014  0.000032
  5C   1dx2y2    -0.000163  0.000943  0.000740 -0.000028 -0.000101 -0.000017
  5C   1dxy       0.000124  0.000187 -0.000037  0.000012  0.000130 -0.000143
  6H   1s         0.000058 -0.000104 -0.000008  0.000040 -0.001377  0.000048
  6H   2s        -0.000157 -0.000796 -0.000237  0.000021  0.002780 -0.000544
  7H   1s         0.000365  0.000133  0.000082 -0.000029 -0.000252  0.000122
  7H   2s         0.001838  0.002528  0.002188 -0.000278  0.001261  0.000697
  8H   1s         0.000008  0.000036 -0.000068  0.000010 -0.000154 -0.001380
  8H   2s        -0.000232  0.000030 -0.000637  0.000060 -0.000113  0.002765
  9H   1s         0.000097  0.000141  0.000102 -0.000003 -0.000187 -0.000161
  9H   2s         0.000607  0.001132  0.000823 -0.000103  0.001362  0.001199
 10H   1s         0.000244  0.000124  0.000142 -0.000018  0.000070 -0.000257
 10H   2s         0.001848  0.002173  0.001824 -0.000180  0.000827  0.001233
 11O   1s         0.995244  0.000050  0.000302  0.000006 -0.000006 -0.000005
 11O   2s         0.031910  0.000491  0.002972  0.000093 -0.000091 -0.000095
 11O   1pz        0.000125  0.000208 -0.000041  0.000008  0.000004 -0.000027
 11O   1px       -0.000819 -0.000143  0.000066  0.000033  0.000061  0.000060
 11O   1py        0.001460 -0.000114 -0.000056  0.000048  0.000006  0.000058
 11O   3s        -0.031125 -0.002464 -0.014910  0.000035 -0.000032  0.000145
 11O   2pz       -0.000445 -0.002615  0.000059 -0.000007  0.000023  0.000219
 11O   2px        0.002908  0.011369  0.000559 -0.000529 -0.000741 -0.000659
 11O   2py       -0.005183  0.005680 -0.005283 -0.000508 -0.000216 -0.000501
 11O   1dz2       0.000473  0.000267  0.001857  0.000046 -0.000045 -0.000017
 11O   1dxz       0.000040  0.000385  0.000453  0.000005 -0.000013 -0.000023
 11O   1dyz      -0.000020 -0.000148  0.000180 -0.000004 -0.000007  0.000001
 11O   1dx2y2    -0.000171 -0.002193 -0.000510  0.000054  0.000094  0.000068
 11O   1dxy      -0.000284  0.000985 -0.001667 -0.000075 -0.000017 -0.000007
 12C   1s         0.000129 -0.579587  0.808973  0.000171  0.000015 -0.000022
 12C   2s         0.001153 -0.022410  0.030609  0.000199  0.000003  0.000101
 12C   1pz        0.000018 -0.000169  0.000030  0.000077  0.000011  0.000001
 12C   1px       -0.000178  0.000981 -0.000711  0.000026  0.000064 -0.000025
 12C   1py       -0.000223  0.000828 -0.001165  0.000250 -0.000009 -0.000047
 12C   3s         0.000942  0.014190 -0.024125  0.004969 -0.000300  0.000276
 12C   2pz        0.001810  0.003010  0.001481  0.000173  0.000078 -0.000133
 12C   2px       -0.009440  0.001631 -0.010522  0.000537 -0.000830  0.000016
 12C   2py       -0.009371  0.015118 -0.012119  0.001406 -0.000770 -0.000448
 12C   1dz2       0.000024  0.000561 -0.000947 -0.000057 -0.000029 -0.000020
 12C   1dxz      -0.000140  0.000428 -0.000452  0.000041  0.000012  0.000001
 12C   1dyz       0.000112 -0.000055  0.000209  0.000060 -0.000006  0.000003
 12C   1dx2y2     0.000191  0.000162 -0.000457 -0.000153 -0.000031 -0.000022
 12C   1dxy      -0.000063 -0.000727  0.000974  0.000027  0.000019  0.000031
 13C   1s        -0.000025 -0.001494  0.002224 -0.074624 -0.001663  0.000198
 13C   2s        -0.000322  0.001638 -0.001487 -0.000580 -0.000065  0.000009
 13C   1pz        0.000051 -0.000266  0.000402 -0.000088  0.000014 -0.000007
 13C   1px       -0.000027  0.000295 -0.000367  0.000790  0.000007  0.000010
 13C   1py       -0.000066 -0.000266  0.000791  0.001039  0.000036 -0.000005
 13C   3s         0.005269 -0.017406  0.012957 -0.010979  0.000334  0.000147
 13C   2pz       -0.002361  0.004795 -0.004374  0.002091 -0.000278 -0.000030
 13C   2px        0.005852 -0.006445  0.007840 -0.004869  0.000426 -0.000018
 13C   2py        0.002782  0.003032 -0.001313 -0.001562 -0.000124 -0.000110
 13C   1dz2       0.000031 -0.000085  0.000239 -0.000589 -0.000024  0.000005
 13C   1dxz      -0.000206  0.000007  0.000075 -0.000019 -0.000008  0.000000
 13C   1dyz      -0.000002  0.000339 -0.000594 -0.000143  0.000006  0.000003
 13C   1dx2y2     0.000265 -0.000363  0.000691 -0.000328  0.000008  0.000004
 13C   1dxy      -0.000144 -0.000370  0.000260  0.001040  0.000014 -0.000008
 14C   1s         0.000018 -0.000041 -0.000010 -0.989862 -0.021033  0.002362
 14C   2s         0.000064 -0.000173 -0.000048 -0.036076 -0.000747  0.000074
 14C   1pz        0.000033 -0.000004  0.000064  0.000318 -0.000000 -0.000004
 14C   1px        0.000010 -0.000187  0.000073 -0.000197 -0.000005  0.000003
 14C   1py        0.000197 -0.000268  0.000300  0.000668  0.000022  0.000002
 14C   3s        -0.005924  0.007155 -0.007747  0.031395  0.000168  0.000078
 14C   2pz        0.000338 -0.001524  0.001270 -0.002845  0.000101 -0.000021
 14C   2px        0.000957  0.000616 -0.000637  0.001907 -0.000059  0.000001
 14C   2py        0.002376 -0.003571  0.003281 -0.005895  0.000139 -0.000095
 14C   1dz2       0.000003 -0.000051 -0.000019  0.000329  0.000008 -0.000003
 14C   1dxz      -0.000026  0.000032 -0.000055  0.000443  0.000010 -0.000004
 14C   1dyz      -0.000017 -0.000013  0.000038 -0.000040 -0.000003  0.000002
 14C   1dx2y2     0.000037 -0.000036  0.000029 -0.000194 -0.000002  0.000000
 14C   1dxy      -0.000010  0.000102 -0.000014 -0.000303 -0.000007  0.000001
 15C   1s        -0.000031  0.000136 -0.000184 -0.030727 -0.000728 -0.000554
 15C   2s        -0.000278  0.000461 -0.000625  0.001105 -0.000013  0.000016
 15C   1pz       -0.000006 -0.000067 -0.000027  0.000597  0.000012 -0.000012
 15C   1px        0.000062 -0.000014  0.000130 -0.001128 -0.000022  0.000013
 15C   1py        0.000078 -0.000186  0.000125  0.000006  0.000003 -0.000021
 15C   3s         0.002578 -0.003649  0.005760 -0.012479  0.000196 -0.000274
 15C   2pz       -0.000112 -0.000348  0.000383 -0.001580 -0.000005  0.000025
 15C   2px       -0.001004  0.001933 -0.002544  0.004964 -0.000073  0.000027
 15C   2py       -0.001938  0.001936 -0.003160  0.003370 -0.000145  0.000144
 15C   1dz2      -0.000028  0.000042 -0.000055 -0.000154 -0.000010 -0.000006
 15C   1dxz      -0.000034  0.000085 -0.000092 -0.000938 -0.000026 -0.000003
 15C   1dyz       0.000035 -0.000036  0.000067  0.000159  0.000008  0.000017
 15C   1dx2y2    -0.000008 -0.000034 -0.000010  0.000793  0.000016 -0.000016
 15C   1dxy      -0.000017  0.000006 -0.000019 -0.000286 -0.000009 -0.000013
 16C   1s         0.000016  0.000070  0.000025 -0.059101 -0.002371 -0.020614
 16C   2s         0.000025  0.000293  0.000091 -0.002070 -0.000072 -0.000767
 16C   1pz       -0.000065  0.000101 -0.000085  0.000119  0.000002 -0.000010
 16C   1px        0.000171 -0.000207  0.000269 -0.000110  0.000009  0.000021
 16C   1py        0.000102  0.000001  0.000179  0.000193  0.000012 -0.000000
 16C   3s        -0.005365  0.003845 -0.008765  0.006491 -0.000344  0.000647
 16C   2pz       -0.000927  0.000184 -0.001813  0.001339 -0.000127  0.000097
 16C   2px        0.001935 -0.000792  0.003789 -0.002454  0.000179 -0.000158
 16C   2py        0.000242 -0.000497  0.000582  0.000199 -0.000009  0.000048
 16C   1dz2      -0.000003  0.000068 -0.000001  0.000061  0.000003  0.000006
 16C   1dxz       0.000006  0.000072 -0.000024  0.000034  0.000004  0.000002
 16C   1dyz       0.000019 -0.000021  0.000044  0.000013  0.000002 -0.000005
 16C   1dx2y2    -0.000022  0.000011 -0.000011  0.000004  0.000005  0.000008
 16C   1dxy      -0.000011 -0.000034 -0.000067 -0.000095 -0.000003 -0.000002
 17C   1s        -0.000045 -0.001741  0.002308 -0.001266 -0.000092 -0.001304
 17C   2s        -0.000472  0.000860 -0.001785  0.000587 -0.000035 -0.000007
 17C   1pz       -0.000011  0.000364 -0.000412  0.000072 -0.000004 -0.000005
 17C   1px       -0.000011 -0.000772  0.000703 -0.000019 -0.000020  0.000019
 17C   1py       -0.000058 -0.000005 -0.000214  0.000205  0.000006  0.000022
 17C   3s         0.007241 -0.003001  0.016083 -0.004168  0.000703 -0.000345
 17C   2pz        0.002206 -0.000866  0.004014 -0.001036  0.000283 -0.000036
 17C   2px       -0.000863 -0.000431 -0.003005  0.000472 -0.000154  0.000069
 17C   2py        0.005636 -0.004592  0.008070 -0.002608  0.000395 -0.000005
 17C   1dz2      -0.000026 -0.000129  0.000118  0.000022 -0.000003 -0.000014
 17C   1dxz      -0.000037 -0.000541  0.000622  0.000049 -0.000019 -0.000005
 17C   1dyz       0.000182 -0.000046  0.000052 -0.000034  0.000010 -0.000000
 17C   1dx2y2    -0.000169  0.000565 -0.000691 -0.000004  0.000001 -0.000007
 17C   1dxy      -0.000169  0.000117  0.000005  0.000026 -0.000002  0.000019
 18H   1s         0.000365 -0.000100  0.000120  0.000252  0.000040  0.000000
 18H   2s         0.001838 -0.001690  0.002885 -0.001262  0.000224 -0.000014
 19H   1s         0.000097 -0.000101  0.000142  0.000185  0.000011  0.000003
 19H   2s         0.000607 -0.000807  0.001144 -0.001349  0.000046 -0.000026
 20H   1s         0.000058  0.000096 -0.000041  0.001379  0.000019 -0.000001
 20H   2s        -0.000157  0.000678 -0.000481 -0.002783 -0.000140  0.000044
 21H   1s         0.000008 -0.000056 -0.000053  0.000136 -0.000004  0.000032
 21H   2s        -0.000232 -0.000234 -0.000594  0.000153 -0.000054 -0.000034
 22H   1s         0.000244 -0.000071  0.000174 -0.000074  0.000015  0.000012
 22H   2s         0.001848 -0.001471  0.002426 -0.000817  0.000145  0.000008
                      6         7         8         9        10        11   
                 -10.18295 -10.18020 -10.18019 -10.17961 -10.17959 -10.17562
                   2.00000   2.00000   2.00000   2.00000   2.00000   2.00000
                  --------  --------  --------  --------  --------  --------
  0C   1s        -0.000588 -0.002059  0.002847  0.003523  0.000076  0.011247
  0C   2s         0.000025  0.000031 -0.000037  0.000009  0.000021  0.000434
  0C   1pz        0.000007  0.000028 -0.000033  0.000005 -0.000004 -0.000003
  0C   1px        0.000022 -0.000055  0.000121  0.000175  0.000006  0.000013
  0C   1py       -0.000019 -0.000054  0.000044 -0.000051  0.000001  0.000004
  0C   3s        -0.000200 -0.003123  0.005810  0.006237 -0.000131 -0.000649
  0C   2pz       -0.000005  0.000075 -0.000670 -0.000264 -0.000016  0.000047
  0C   2px       -0.000097 -0.002033  0.002660  0.003181 -0.000164 -0.000232
  0C   2py        0.000019  0.000157  0.001166  0.000021  0.000091 -0.000043
  0C   1dz2      -0.000008 -0.000031  0.000041  0.000061  0.000004 -0.000003
  0C   1dxz       0.000008 -0.000001 -0.000001  0.000004 -0.000000  0.000000
  0C   1dyz      -0.000008 -0.000050  0.000070  0.000078  0.000002 -0.000002
  0C   1dx2y2    -0.000003 -0.000028  0.000023  0.000038 -0.000000 -0.000002
  0C   1dxy      -0.000021 -0.000002  0.000023  0.000010  0.000004 -0.000000
  1C   1s         0.000409 -0.044734  0.060442 -0.002402 -0.000030 -0.000371
  1C   2s         0.000030 -0.003019  0.003855  0.000438 -0.000012 -0.000029
  1C   1pz        0.000001  0.000090 -0.000075  0.000026 -0.000000 -0.000002
  1C   1px        0.000004 -0.000777  0.001090  0.000115  0.000006  0.000017
  1C   1py       -0.000010 -0.000049  0.000061 -0.000083 -0.000008  0.000012
  1C   3s         0.000041  0.010173 -0.012134 -0.004606  0.000379  0.000447
  1C   2pz        0.000015  0.000151 -0.001595 -0.000861 -0.000053  0.000055
  1C   2px       -0.000021  0.004393 -0.004057 -0.002031  0.000238  0.000084
  1C   2py       -0.000009 -0.000907  0.003741  0.002277  0.000071 -0.000199
  1C   1dz2       0.000005  0.000325 -0.000516  0.000068 -0.000004  0.000006
  1C   1dxz       0.000000  0.000199 -0.000320  0.000018 -0.000002  0.000002
  1C   1dyz       0.000002  0.000015 -0.000044  0.000065 -0.000001  0.000010
  1C   1dx2y2    -0.000003 -0.000591  0.000891 -0.000001  0.000008  0.000005
  1C   1dxy       0.000001 -0.000185  0.000327 -0.000013  0.000001 -0.000010
  2C   1s         0.000143  0.590854 -0.797228 -0.001700  0.000217  0.000055
  2C   2s         0.000019  0.022144 -0.029515  0.000015  0.000028  0.000019
  2C   1pz       -0.000003  0.000234 -0.000452  0.000081  0.000009 -0.000008
  2C   1px        0.000002 -0.000248  0.000150  0.000037 -0.000008 -0.000005
  2C   1py        0.000006 -0.000289  0.000650 -0.000192 -0.000006 -0.000007
  2C   3s        -0.000270 -0.021202  0.028078  0.004593  0.000024 -0.000432
  2C   2pz       -0.000059 -0.001132  0.003733  0.001073  0.000000 -0.000160
  2C   2px       -0.000059  0.002916 -0.000411 -0.001115  0.000527  0.000150
  2C   2py        0.000130  0.001342 -0.007309 -0.002166 -0.000023  0.000422
  2C   1dz2       0.000001 -0.000309  0.000413  0.000063  0.000012  0.000004
  2C   1dxz      -0.000002  0.000050  0.000037  0.000021  0.000011  0.000002
  2C   1dyz       0.000003 -0.000187  0.000157  0.000027 -0.000005  0.000010
  2C   1dx2y2     0.000005  0.000173 -0.000470 -0.000058 -0.000005  0.000011
  2C   1dxy       0.000000 -0.000254  0.000149 -0.000031 -0.000021  0.000002
  3C   1s        -0.020739  0.001937 -0.002547  0.063622  0.000590 -0.000349
  3C   2s        -0.000742 -0.000229  0.000352  0.004471  0.000024 -0.000044
  3C   1pz        0.000005  0.000027 -0.000032 -0.000222 -0.000004  0.000002
  3C   1px       -0.000001 -0.000074  0.000021  0.001311  0.000020  0.000022
  3C   1py       -0.000010 -0.000054  0.000073  0.000258  0.000003 -0.000008
  3C   3s         0.000659  0.002406 -0.004925 -0.015130  0.000212  0.000558
  3C   2pz       -0.000038 -0.000681  0.001173  0.002456 -0.000082 -0.000112
  3C   2px        0.000057  0.000172 -0.001721 -0.004225 -0.000027  0.000108
  3C   2py        0.000073  0.001540 -0.002304 -0.004783  0.000145  0.000228
  3C   1dz2       0.000012 -0.000043  0.000065 -0.000632 -0.000008  0.000005
  3C   1dxz      -0.000000  0.000008  0.000015 -0.000256 -0.000005 -0.000005
  3C   1dyz       0.000007 -0.000037  0.000043  0.000002 -0.000002  0.000004
  3C   1dx2y2    -0.000007 -0.000003 -0.000031  0.001145  0.000012  0.000003
  3C   1dxy       0.000005 -0.000031  0.000013  0.000158 -0.000001  0.000014
  4C   1s        -0.001347 -0.000601  0.001187 -0.993056 -0.008944 -0.000017
  4C   2s        -0.000001 -0.000110  0.000034 -0.036639 -0.000295  0.000041
  4C   1pz        0.000002  0.000047 -0.000069  0.000279  0.000003  0.000004
  4C   1px       -0.000025  0.000052  0.000035  0.000612 -0.000004 -0.000009
  4C   1py       -0.000002 -0.000110  0.000199 -0.000710 -0.000017 -0.000001
  4C   3s        -0.000144 -0.002015  0.005022  0.034079 -0.000452 -0.000669
  4C   2pz        0.000008  0.000299 -0.000704 -0.002204  0.000193  0.000134
  4C   2px        0.000225  0.000260 -0.003117 -0.004402  0.000030  0.000358
  4C   2py       -0.000055 -0.000735  0.001908  0.005851 -0.000282 -0.000384
  4C   1dz2      -0.000008 -0.000046  0.000041  0.000487  0.000004  0.000008
  4C   1dxz      -0.000007 -0.000002  0.000010  0.000268  0.000004 -0.000000
  4C   1dyz       0.000004 -0.000018 -0.000014  0.000374  0.000019  0.000010
  4C   1dx2y2     0.000025  0.000040 -0.000060 -0.000244 -0.000004  0.000006
  4C   1dxy       0.000011 -0.000008 -0.000019 -0.000385 -0.000002  0.000005
  5C   1s         0.000026 -0.001680  0.002320  0.003061  0.000024  0.000002
  5C   2s        -0.000094 -0.001101  0.001853  0.002251  0.000126 -0.000026
  5C   1pz        0.000010  0.000230 -0.000341  0.000533  0.000024 -0.000007
  5C   1px       -0.000057  0.000429 -0.000670 -0.000506  0.000045  0.000023
  5C   1py       -0.000004 -0.000547  0.000628 -0.001146  0.000030  0.000009
  5C   3s        -0.000068  0.005771 -0.012479 -0.013964 -0.000337  0.000248
  5C   2pz       -0.000046 -0.000106  0.000775 -0.002020  0.000210  0.000151
  5C   2px       -0.000453 -0.001977  0.007899  0.004976 -0.000441 -0.000997
  5C   2py        0.000207  0.000550 -0.002619  0.003802 -0.000817 -0.000193
  5C   1dz2       0.000019  0.000326 -0.000395 -0.000325  0.000004  0.000012
  5C   1dxz       0.000000 -0.000281  0.000311 -0.000285  0.000005  0.000008
  5C   1dyz      -0.000001  0.000321 -0.000366 -0.000774 -0.000008 -0.000005
  5C   1dx2y2    -0.000037  0.000109 -0.000093 -0.000764  0.000002 -0.000021
  5C   1dxy       0.000012  0.000663 -0.000819  0.000605  0.000012 -0.000002
  6H   1s        -0.000001 -0.000080 -0.000042 -0.000093 -0.000008  0.000003
  6H   2s        -0.000020  0.000335 -0.001072 -0.000914  0.000001  0.000035
  7H   1s        -0.000006 -0.000878  0.000879  0.000072 -0.000045 -0.000018
  7H   2s        -0.000019  0.003762 -0.000436  0.000427 -0.000004 -0.000184
  8H   1s         0.000026  0.000044 -0.000071  0.000024  0.000005  0.000004
  8H   2s        -0.000081  0.000483 -0.000795 -0.001125  0.000033  0.000051
  9H   1s         0.000004 -0.000062  0.000025  0.000042 -0.000009 -0.000018
  9H   2s        -0.000026 -0.000372  0.000445  0.000483 -0.000047 -0.000008
 10H   1s        -0.000002 -0.000006  0.000144  0.001316  0.000007 -0.000018
 10H   2s        -0.000062  0.000032  0.000757 -0.002699 -0.000108 -0.000177
 11O   1s         0.000006 -0.000005  0.000001 -0.000001 -0.000001  0.000009
[...]
 5 C  px              0.6       0.4       0.1       0.0       0.7       0.8
 5 C  py              0.0       0.5       0.0       0.0       0.4       0.6
 5 C  dz2             0.5       0.1       1.2       0.8       2.8       0.8
 5 C  dxz             0.5       0.7       2.9       2.3       2.5       0.8
 5 C  dyz             3.3       3.0       0.5       0.4       0.4       0.0
 5 C  dx2y2           0.6       0.6       1.4       0.4       2.1       4.3
 5 C  dxy             0.0       0.9       2.9       3.5       0.0       0.8
 6 H  s               0.4       0.3       0.2       0.0       0.0       0.0
 7 H  s               0.0       0.0       0.5       0.0       0.1       0.0
 8 H  s               0.7       0.0       0.0       0.1       0.0       0.0
 9 H  s               0.8       0.2       0.0       0.0       0.0       0.0
10 H  s               0.2       0.1       0.0       0.4       0.0       0.0
11 O  s               0.0       0.1       0.0       3.0      14.7       0.0
11 O  pz              0.2       0.0       0.5       0.0       0.0       0.3
11 O  px              0.7       0.0       0.2       0.2       0.3       3.4
11 O  py              0.3       0.0       0.1       0.7       0.9       1.2
11 O  dz2             0.0       0.3       0.0       2.5       8.3       0.0
11 O  dxz             0.6       1.6       0.5       0.9       0.0       0.4
11 O  dyz             1.3       0.5       1.8       0.7       0.1       0.5
11 O  dx2y2           1.8       0.4       0.6       0.2       1.4       6.5
11 O  dxy             0.5       0.7       0.3       0.8       3.6       2.2
12 C  s               1.4       1.3       0.2       1.4       3.3       1.6
12 C  pz              0.0       0.6       0.0       0.0       0.1       0.4
12 C  px              0.1       0.8       0.0       0.0       0.0       1.2
12 C  py              0.5       0.1       0.1       0.0       0.9       0.2
12 C  dz2             0.1       0.0       1.0       0.9       3.0       0.6
12 C  dxz             4.3       1.4       2.4       1.7       1.7       0.5
12 C  dyz             0.2       2.2       2.2       1.1       0.4       1.2
12 C  dx2y2           0.0       1.7       3.3       1.3       0.5       2.5
12 C  dxy             0.3       0.0       0.0       2.3       2.3       2.1
13 C  s               2.5       0.9       0.3       0.3       0.5       0.1
13 C  pz              0.1       0.0       0.1       0.1       0.0       0.1
13 C  px              0.1       0.4       0.1       0.1       0.1       0.0
13 C  py              0.1       1.3       0.0       0.1       0.3       0.4
13 C  dz2             0.4       0.5       0.4       0.0       0.0       0.1
13 C  dxz             1.1       0.1       2.4       0.0       0.8       0.6
13 C  dyz             0.6       0.0       0.1       0.8       0.0       1.6
13 C  dx2y2           0.3       0.6       2.9       0.2       0.5       0.2
13 C  dxy             3.1       2.9       0.1       0.0       1.1       1.7
14 C  s               1.9       0.7       0.3       1.0       0.2       0.6
14 C  pz              0.0       0.0       0.1       0.5       0.1       0.3
14 C  px              0.1       0.3       0.3       0.9       0.3       0.8
14 C  py              0.4       0.6       0.1       0.0       0.1       0.1
14 C  dz2             0.0       1.9       0.3       0.4       0.5       0.1
14 C  dxz             1.5       0.0       1.6       5.0       0.2       2.8
14 C  dyz             2.2       1.5       0.9       0.0       0.1       0.0
14 C  dx2y2           0.7       0.0       4.4       2.0       1.6       1.5
14 C  dxy             0.0       8.1       0.1       0.3       1.1       0.0
15 C  s               0.9       0.2       0.3       0.4       0.3       0.3
15 C  pz              0.1       0.1       1.0       1.2       0.5       0.6
15 C  px              0.1       0.0       0.6       1.0       0.2       0.6
15 C  py              0.0       0.2       0.6       0.3       0.3       0.1
15 C  dz2             2.7       0.4       0.1       0.0       0.1       0.2
15 C  dxz             0.0       0.0       0.1       3.2       0.1       2.9
15 C  dyz             0.2       0.7       3.0       1.7       2.0       0.3
15 C  dx2y2           0.3       0.0       2.8       4.0       1.6       2.6
15 C  dxy             5.6       1.9       0.2       0.6       0.3       0.0
16 C  s               0.7       0.1       2.5       0.3       0.6       0.4
16 C  pz              0.0       0.0       0.4       0.2       0.2       0.0
16 C  px              0.1       0.0       0.3       0.0       0.0       0.1
16 C  py              0.2       0.2       0.1       0.5       0.7       0.9
16 C  dz2             0.1       0.0       0.2       0.3       0.0       1.3
16 C  dxz             3.9       0.1       0.2       0.3       0.3       0.0
16 C  dyz             0.0       1.8       3.7       1.7       2.7       0.9
16 C  dx2y2           3.2       0.9       2.0       1.0       0.3       0.0
16 C  dxy             0.1       0.7       0.0       3.0       0.5       4.2
17 C  s               1.1       1.2       0.6       1.0       0.5       0.4
17 C  pz              0.2       0.4       0.2       0.1       0.1       0.1
17 C  px              0.2       0.5       0.5       0.0       0.3       0.9
17 C  py              0.0       0.0       0.1       0.2       0.0       0.6
17 C  dz2             0.2       0.0       0.4       0.0       0.1       0.7
17 C  dxz             0.8       5.8       0.1       0.5       3.2       0.6
17 C  dyz             1.0       0.3       0.2       1.9       0.1       0.3
17 C  dx2y2           1.5       3.5       0.2       0.9       0.2       1.2
17 C  dxy             0.1       1.0       2.6       0.3       0.3       1.0
18 H  s               0.0       0.1       0.5       0.0       0.1       0.0
19 H  s               0.8       0.2       0.0       0.0       0.0       0.0
20 H  s               0.3       0.3       0.2       0.0       0.0       0.0
21 H  s               0.7       0.0       0.0       0.1       0.0       0.0
22 H  s               0.2       0.1       0.0       0.4       0.0       0.0

                    198       199       200       201   
                   3.10258   3.26941   3.40502   3.44296
                   0.00000   0.00000   0.00000   0.00000
                  --------  --------  --------  --------
 0 C  s               0.2       0.0       0.9       0.7
 0 C  pz              0.1       0.1       0.0       0.0
 0 C  py              0.2       0.1       0.0       0.0
 0 C  dz2             0.0       0.0       0.1       0.1
 0 C  dxz             0.7       0.2       0.2       0.1
 0 C  dyz             0.6       0.1       3.3       2.8
 0 C  dx2y2           0.2       0.1       3.4       2.8
 0 C  dxy             1.4       0.4       0.3       0.2
 1 C  s               0.8       0.0       0.8       0.6
 1 C  px              0.7       0.4       0.0       0.0
 1 C  dz2             1.0       0.1       0.2       0.1
 1 C  dxz             0.2       0.0       2.4       2.1
 1 C  dyz             0.0       0.3       0.1       0.1
 1 C  dx2y2           3.0       0.6       0.7       0.5
 1 C  dxy             0.2       0.0       3.8       3.3
 2 C  s               0.5       0.2       0.7       0.7
 2 C  pz              0.0       0.2       0.0       0.0
 2 C  px              1.2       0.7       0.0       0.0
 2 C  py              0.1       0.4       0.0       0.0
 2 C  dz2             1.0       0.3       1.1       0.6
 2 C  dxz             0.8       0.6       0.9       1.0
 2 C  dyz             0.1       1.7       0.1       0.1
 2 C  dx2y2           2.4       1.9       2.8       2.5
 2 C  dxy             0.3       0.7       2.3       2.1
 3 C  s               0.3       0.2       0.8       0.7
 3 C  px              0.5       0.6       0.0       0.0
 3 C  py              0.1       0.0       0.0       0.0
 3 C  dz2             0.1       0.2       0.9       0.8
 3 C  dxz             0.2       0.1       0.9       1.0
 3 C  dyz             0.4       0.1       0.1       0.1
 3 C  dx2y2           0.0       1.0       2.8       2.5
 3 C  dxy             0.8       0.1       2.5       2.1
 4 C  s               0.1       0.1       0.8       0.8
 4 C  pz              0.1       0.3       0.0       0.0
 4 C  px              0.1       0.6       0.0       0.0
 4 C  py              0.2       0.4       0.0       0.0
 4 C  dz2             0.0       0.7       0.2       0.2
 4 C  dxz             0.0       0.1       2.2       2.6
 4 C  dyz             1.4       0.8       0.1       0.1
 4 C  dx2y2           2.1       3.3       0.6       0.8
 4 C  dxy             0.1       0.0       3.9       3.5
 5 C  s               2.4       0.6       0.5       0.1
 5 C  pz              0.0       0.3       0.0       0.0
 5 C  px              1.7       0.2       0.1       0.6
 5 C  py              0.2       0.2       0.0       0.0
 5 C  dz2             0.1       1.1       0.3       0.3
 5 C  dxz             2.6       3.0       0.3       0.2
 5 C  dyz             0.8       0.0       3.1       2.7
 5 C  dx2y2           1.8       1.7       3.6       5.5
 5 C  dxy             4.2      13.6       0.0       0.5
 6 H  s               0.0       0.0       0.3       0.3
 7 H  s               0.0       0.0       0.3       0.3
 8 H  s               0.0       0.0       0.3       0.3
 9 H  s               0.1       0.0       0.3       0.2
10 H  s               0.0       0.0       0.3       0.3
11 O  s               0.0       3.3       0.3       0.0
11 O  px              4.0       0.1       0.0       1.2
11 O  py              1.2       0.2       0.1       0.4
11 O  dz2             0.0       0.6       0.2       0.0
11 O  dxz             0.0       3.3       0.0       0.2
11 O  dyz             0.2       1.5       0.0       0.2
11 O  dx2y2          16.3       3.3       0.1       2.8
11 O  dxy             6.2      10.7       0.2       0.9
12 C  s               2.3       0.6       0.5       0.2
12 C  pz              0.1       0.3       0.0       0.0
12 C  px              0.2       0.3       0.0       0.2
12 C  py              1.6       0.1       0.1       0.4
12 C  dz2             0.2       0.6       1.0       1.0
12 C  dxz             2.0       1.1       1.9       2.0
12 C  dyz             1.3       4.8       1.5       1.4
12 C  dx2y2           0.9      12.8       0.6       0.2
12 C  dxy             5.1       0.3       2.2       4.6
13 C  s               0.5       0.2       0.7       0.7
13 C  pz              0.1       0.4       0.0       0.0
13 C  px              0.2       0.0       0.0       0.0
13 C  py              1.1       1.0       0.0       0.0
13 C  dz2             1.3       0.9       0.9       0.5
13 C  dxz             0.0       0.7       0.9       0.8
13 C  dyz             0.5       1.7       1.1       1.2
13 C  dx2y2           0.1       0.0       3.7       3.4
13 C  dxy             2.5       2.0       0.5       0.5
14 C  s               0.8       0.0       0.8       0.6
14 C  px              0.3       0.3       0.0       0.0
14 C  py              0.4       0.2       0.0       0.0
14 C  dz2             1.2       0.2       0.4       0.3
14 C  dxz             0.0       0.2       1.0       0.9
14 C  dyz             0.1       0.0       1.7       1.6
14 C  dx2y2           0.2       0.1       1.2       1.2
14 C  dxy             2.8       0.4       2.9       2.2
15 C  s               0.2       0.0       0.9       0.8
15 C  pz              0.2       0.1       0.0       0.0
15 C  py              0.1       0.0       0.0       0.0
15 C  dz2             0.1       0.0       0.7       0.6
15 C  dxz             0.1       0.2       2.3       2.0
15 C  dyz             1.5       0.1       1.5       1.3
15 C  dx2y2           0.5       0.4       0.2       0.2
15 C  dxy             0.6       0.0       2.5       2.1
16 C  s               0.3       0.2       0.8       0.7
16 C  pz              0.1       0.0       0.0       0.0
16 C  px              0.0       0.1       0.0       0.0
16 C  py              0.5       0.5       0.0       0.0
16 C  dz2             0.0       0.3       0.7       0.6
16 C  dxz             0.1       0.0       0.8       0.8
16 C  dyz             0.7       0.1       1.2       1.2
16 C  dx2y2           0.4       0.0       3.9       3.4
16 C  dxy             0.2       1.0       0.5       0.5
17 C  s               0.1       0.1       0.8       0.8
17 C  pz              0.1       0.3       0.0       0.0
17 C  px              0.3       0.8       0.0       0.0
17 C  py              0.0       0.2       0.0       0.0
17 C  dz2             0.2       1.1       0.3       0.4
17 C  dxz             1.1       0.6       1.0       1.0
17 C  dyz             0.4       0.2       1.6       1.9
17 C  dx2y2           0.9       0.7       1.3       1.1
17 C  dxy             0.9       2.2       2.7       2.9
18 H  s               0.0       0.0       0.3       0.3
19 H  s               0.1       0.0       0.3       0.2
20 H  s               0.0       0.0       0.3       0.3
21 H  s               0.0       0.0       0.3       0.3
22 H  s               0.0       0.0       0.3       0.3


                      *****************************
                      * MAYER POPULATION ANALYSIS *
                      *****************************

  NA   - Mulliken gross atomic population
  ZA   - Total nuclear charge
  QA   - Mulliken gross atomic charge
  VA   - Mayer's total valence
  BVA  - Mayer's bonded valence
  FA   - Mayer's free valence

  ATOM       NA         ZA         QA         VA         BVA        FA
  0 C      6.1276     6.0000    -0.1276     3.9379     3.9379     0.0000
  1 C      6.1345     6.0000    -0.1345     3.9567     3.9567     0.0000
  2 C      6.1746     6.0000    -0.1746     3.8911     3.8911    -0.0000
  3 C      6.1342     6.0000    -0.1342     3.9505     3.9505     0.0000
  4 C      6.1729     6.0000    -0.1729     3.9091     3.9091    -0.0000
  5 C      5.6680     6.0000     0.3320     3.8993     3.8993    -0.0000
  6 H      0.8679     1.0000     0.1321     0.9373     0.9373    -0.0000
  7 H      0.8521     1.0000     0.1479     0.9411     0.9411     0.0000
  8 H      0.8680     1.0000     0.1320     0.9371     0.9371     0.0000
  9 H      0.8725     1.0000     0.1275     0.9381     0.9381    -0.0000
 10 H      0.8595     1.0000     0.1405     0.9394     0.9394    -0.0000
 11 O      8.5362     8.0000    -0.5362     1.9738     1.9738     0.0000
 12 C      5.6674     6.0000     0.3326     3.8992     3.8992    -0.0000
 13 C      6.1747     6.0000    -0.1747     3.8909     3.8909     0.0000
 14 C      6.1346     6.0000    -0.1346     3.9564     3.9564     0.0000
 15 C      6.1278     6.0000    -0.1278     3.9379     3.9379     0.0000
 16 C      6.1342     6.0000    -0.1342     3.9510     3.9510     0.0000
 17 C      6.1735     6.0000    -0.1735     3.9089     3.9089    -0.0000
 18 H      0.8522     1.0000     0.1478     0.9413     0.9413     0.0000
 19 H      0.8724     1.0000     0.1276     0.9381     0.9381     0.0000
 20 H      0.8678     1.0000     0.1322     0.9373     0.9373    -0.0000
 21 H      0.8678     1.0000     0.1322     0.9371     0.9371     0.0000
 22 H      0.8594     1.0000     0.1406     0.9394     0.9394     0.0000

  Mayer bond orders larger than 0.1
B(  0-C ,  1-C ) :   1.4511 B(  0-C ,  3-C ) :   1.4489 B(  0-C ,  9-H ) :   0.9309 
B(  1-C ,  2-C ) :   1.4413 B(  1-C ,  6-H ) :   0.9293 B(  2-C ,  5-C ) :   1.3959 
B(  2-C ,  7-H ) :   0.9142 B(  3-C ,  4-C ) :   1.4414 B(  3-C ,  8-H ) :   0.9296 
B(  4-C ,  5-C ) :   1.4197 B(  4-C , 10-H ) :   0.9206 B(  5-C , 11-O ) :   0.8907 
B( 11-O , 12-C ) :   0.8910 B( 12-C , 13-C ) :   1.3960 B( 12-C , 17-C ) :   1.4194 
B( 13-C , 14-C ) :   1.4412 B( 13-C , 18-H ) :   0.9141 B( 14-C , 15-C ) :   1.4509 
B( 14-C , 20-H ) :   0.9293 B( 15-C , 16-C ) :   1.4491 B( 15-C , 19-H ) :   0.9308 
B( 16-C , 17-C ) :   1.4417 B( 16-C , 21-H ) :   0.9295 B( 17-C , 22-H ) :   0.9206 


-------
TIMINGS
-------

Total SCF time: 0 days 0 hours 0 min 55 sec 

Total time                  ....      55.741 sec
Sum of individual times     ....      55.327 sec  ( 99.3%)

Fock matrix formation       ....      51.179 sec  ( 91.8%)
  XC integration            ....       6.221 sec  ( 12.2% of F)
    Basis function eval.    ....       2.064 sec  ( 33.2% of XC)
    Density eval.           ....       1.782 sec  ( 28.6% of XC)
    XC-Functional eval.     ....       0.456 sec  (  7.3% of XC)
    XC-Potential eval.      ....       1.361 sec  ( 21.9% of XC)
Diagonalization             ....       0.006 sec  (  0.0%)
Density matrix formation    ....       0.007 sec  (  0.0%)
Population analysis         ....       0.199 sec  (  0.4%)
Initial guess               ....       0.016 sec  (  0.0%)
Orbital Transformation      ....       0.000 sec  (  0.0%)
Orbital Orthonormalization  ....       0.012 sec  (  0.0%)
DIIS solution               ....       0.001 sec  (  0.0%)
SOSCF solution              ....       0.029 sec  (  0.1%)
Grid generation             ....       3.891 sec  (  7.0%)

-------------------------   --------------------
FINAL SINGLE POINT ENERGY      -538.170021950661
-------------------------   --------------------

                                *** OPTIMIZATION RUN DONE ***

                            ***************************************
                            *     ORCA property calculations      *
                            ***************************************

                                    ---------------------
                                    Active property flags
                                    ---------------------
   (+) Dipole Moment


------------------------------------------------------------------------------
                       ORCA ELECTRIC PROPERTIES CALCULATION
------------------------------------------------------------------------------

Dipole Moment Calculation                       ... on
Quadrupole Moment Calculation                   ... off
Polarizability Calculation                      ... off
GBWName                                         ... /Users/lailaal-madhagi/Desktop/Testing_XAS_Analysis_code/Benzophenone//Results_dir_Benzophenone_geom_element_O_2019-11-06_07-18-00//GTE1_Benzophenone_geom_2019-11-06_07-18-09//opt.gbw
Electron density file                           ... /Users/lailaal-madhagi/Desktop/Testing_XAS_Analysis_code/Benzophenone//Results_dir_Benzophenone_geom_element_O_2019-11-06_07-18-00//GTE1_Benzophenone_geom_2019-11-06_07-18-09//opt.scfp.tmp
The origin for moment calculation is the CENTER OF MASS  = ( 2.469450,  5.578464 -0.918943)

-------------
DIPOLE MOMENT
-------------
                                X             Y             Z
Electronic contribution:      1.23674      -2.21304      -0.20156
Nuclear contribution   :     -1.42331       2.54050       0.23127
                        -----------------------------------------
Total Dipole Moment    :     -0.18657       0.32746       0.02970
                        -----------------------------------------
Magnitude (a.u.)       :      0.37805
Magnitude (Debye)      :      0.96093



--------------------
Rotational spectrum 
--------------------
 
Rotational constants in cm-1:     0.080278     0.014270     0.013379 
Rotational constants in MHz :  2406.662862   427.807790   401.086924 

 Dipole components along the rotational axes: 
x,y,z [a.u.] :     0.002766    -0.378041    -0.000479 
x,y,z [Debye]:     0.007032    -0.960904    -0.001217 

 

Timings for individual modules:

Sum of individual times         ...     1219.482 sec (=  20.325 min)
GTO integral calculation        ...        4.709 sec (=   0.078 min)   0.4 %
SCF iterations                  ...      828.160 sec (=  13.803 min)  67.9 %
SCF Gradient evaluation         ...      384.508 sec (=   6.408 min)  31.5 %
Geometry relaxation             ...        2.106 sec (=   0.035 min)   0.2 %
                             ****ORCA TERMINATED NORMALLY****
TOTAL RUN TIME: 0 days 0 hours 20 minutes 21 seconds 221 msec
