
                                 *****************
                                 * O   R   C   A *
                                 *****************

           --- An Ab Initio, DFT and Semiempirical electronic structure package ---

                  #######################################################
                  #                        -***-                        #
                  #          Department of theory and spectroscopy      #
                  #               Directorship: Frank Neese             #
                  #        Max Planck Institute fuer Kohlenforschung    #
                  #                Kaiser Wilhelm Platz 1               #
                  #                 D-45470 Muelheim/Ruhr               #
                  #                      Germany                        #
                  #                                                     #
                  #                  All rights reserved                #
                  #                        -***-                        #
                  #######################################################


                         Program Version 4.1.0  - RELEASE  -


 With contributions from (in alphabetic order):
   Daniel Aravena         : Magnetic Properties
   Michael Atanasov       : Ab Initio Ligand Field Theory
   Alexander A. Auer      : GIAO ZORA
   Ute Becker             : Parallelization
   Giovanni Bistoni       : ED, Open-shell LED
   Martin Brehm           : Molecular dynamics
   Dmytro Bykov           : SCF Hessian
   Vijay G. Chilkuri      : MRCI spin determinant printing
   Dipayan Datta          : RHF DLPNO-CCSD density
   Achintya Kumar Dutta   : EOM-CC, STEOM-CC
   Dmitry Ganyushin       : Spin-Orbit,Spin-Spin,Magnetic field MRCI
   Miquel Garcia          : C-PCM Hessian
   Yang Guo               : DLPNO-NEVPT2, CIM, IAO-localization
   Andreas Hansen         : Spin unrestricted coupled pair/coupled cluster methods
   Benjamin Helmich-Paris : CASSCF linear response (MC-RPA)
   Lee Huntington         : MR-EOM, pCC
   Robert Izsak           : Overlap fitted RIJCOSX, COSX-SCS-MP3, EOM
   Christian Kollmar      : KDIIS, OOCD, Brueckner-CCSD(T), CCSD density
   Simone Kossmann        : Meta GGA functionals, TD-DFT gradient, OOMP2, MP2 Hessian
   Martin Krupicka        : AUTO-CI
   Lucas Lang             : DCDCAS
   Dagmar Lenk            : GEPOL surface, SMD
   Dimitrios Liakos       : Extrapolation schemes; parallel MDCI
   Dimitrios Manganas     : ROCIS; embedding schemes
   Dimitrios Pantazis     : SARC Basis sets
   Taras Petrenko         : DFT Hessian,TD-DFT gradient, ASA, ECA, R-Raman, ABS, FL, XAS/XES, NRVS
   Peter Pinski           : DLPNO-MP2, DLPNO-MP2 Gradient
   Christoph Reimann      : Effective Core Potentials
   Marius Retegan         : Local ZFS, SOC
   Christoph Riplinger    : Optimizer, TS searches, QM/MM, DLPNO-CCSD(T), (RO)-DLPNO pert. Triples
   Tobias Risthaus        : Range-separated hybrids, TD-DFT gradient, RPA, STAB
   Michael Roemelt        : Restricted open shell CIS
   Masaaki Saitow         : Open-shell DLPNO
   Barbara Sandhoefer     : DKH picture change effects
   Avijit Sen             : IP-ROCIS
   Kantharuban Sivalingam : CASSCF convergence, NEVPT2, FIC-MRCI
   Bernardo de Souza      : ESD, SOC TD-DFT
   Georgi Stoychev        : AutoAux, RI-MP2 NMR
   Willem Van den Heuvel  : Paramagnetic NMR
   Boris Wezisla          : Elementary symmetry handling
   Frank Wennmohs         : Technical directorship


 We gratefully acknowledge several colleagues who have allowed us to
 interface, adapt or use parts of their codes:
   Stefan Grimme, W. Hujo, H. Kruse,             : VdW corrections, initial TS optimization,
                  C. Bannwarth                     DFT functionals, gCP, sTDA/sTD-DF
   Ed Valeev                                     : LibInt (2-el integral package), F12 methods
   Garnet Chan, S. Sharma, J. Yang, R. Olivares  : DMRG
   Ulf Ekstrom                                   : XCFun DFT Library
   Mihaly Kallay                                 : mrcc  (arbitrary order and MRCC methods)
   Andreas Klamt, Michael Diedenhofen            : otool_cosmo (COSMO solvation model)
   Jiri Pittner, Ondrej Demel                    : Mk-CCSD
   Frank Weinhold                                : gennbo (NPA and NBO analysis)
   Christopher J. Cramer and Donald G. Truhlar   : smd solvation model
   Lars Goerigk                                  : TD-DFT with DH, B97 family of functionals
   V. Asgeirsson, H. Jonsson                     : NEB implementation
   FAccTs GmbH                                   : IRC, NEB, NEB-TS, Multilevel


 Your calculation uses the libint2 library for the computation of 2-el integrals
 For citations please refer to: http://libint.valeyev.net

 This ORCA versions uses:
   CBLAS   interface :  Fast vector & matrix operations
   LAPACKE interface :  Fast linear algebra routines
   SCALAPACK package :  Parallel linear algebra routines




***************************************
The coordinates will be read from file: /Users/lailaal-madhagi/Desktop/Testing_XAS_Analysis_code/Benzaldehyde//Results_dir_Benzaldehyde_geom_element_O_2019-11-04_23-17-29//GTE1_Benzaldehyde_geom_2019-11-04_23-17-46//opt.xyz
***************************************


----- Orbital basis set information -----
Your calculation utilizes the basis: 6-31G*
   H-He, Li-Ne : W. J. Hehre, R. Ditchfield and J.A. Pople, J. Chem. Phys. 56, 2257 (1972).
                 Note: He and Ne are unpublished basis sets taken from the Gaussian program.
                 Note: Li and B from J. D. Dill and J. A. Pople, J. Chem. Phys. 62, 2921 (1975).
   Na - Ar     : M. M. Francl, W. J. Pietro, W. J. Hehre, J. S. Binkley, M. S. Gordon, 
                 D. J. DeFrees and J. A. Pople, J. Chem. Phys. 77, 3654 (1982).
   K - Zn      : V. A. Rassolov, J. A. Pople, M. A. Ratner, and T. L. Windus, J. Chem. Phys. 109, 1223 (1998).

================================================================================
                                        WARNINGS
                       Please study these warnings very carefully!
================================================================================

INFO   : Checking CIS options ...

WARNING: CIS/ROCIS methods need fully converged wavefunctions
  ===> : Setting SCFConvForced true
         You can overwrite this default with %scf ConvForced false 


INFO   : the flag for use of LIBINT has been found!

================================================================================
                                       INPUT FILE
================================================================================
NAME = /Users/lailaal-madhagi/Desktop/Testing_XAS_Analysis_code/Benzaldehyde//Results_dir_Benzaldehyde_geom_element_O_2019-11-04_23-17-29//GTE1_Benzaldehyde_geom_2019-11-04_23-17-46//TDDFT_O-edge.inp
|  1> #This is O K-edge calculation 
|  2> ! B3LYP 6-31G* TIGHTSCF Grid3 FinalGrid5 
|  3> !NormalPrint 
|  4> %output 
|  5> Print[P_Basis] 2 
|  6> Print[P_MOS] 1 
|  7> end 
|  8> 
|  9> %tddft 
| 10> orbwin[0]=0,0,-1,-1 
| 11> nroots=20 
| 12> maxdim=200 
| 13> end 
| 14> *xyzfile 0 1 /Users/lailaal-madhagi/Desktop/Testing_XAS_Analysis_code/Benzaldehyde//Results_dir_Benzaldehyde_geom_element_O_2019-11-04_23-17-29//GTE1_Benzaldehyde_geom_2019-11-04_23-17-46//opt.xyz                           ****END OF INPUT****
================================================================================

                       ****************************
                       * Single Point Calculation *
                       ****************************

---------------------------------
CARTESIAN COORDINATES (ANGSTROEM)
---------------------------------
  C     -1.656896    1.105697    0.000010
  C     -0.266584    1.246326    0.000754
  C     -2.239773   -0.168121   -0.000099
  C     -1.433082   -1.301764    0.000532
  C     -0.035565   -1.166274    0.001282
  C      0.542791    0.110282    0.001390
  C      0.830584   -2.367452    0.001950
  O      0.426350   -3.514792    0.001820
  H      1.922726   -2.149760    0.002472
  H     -2.289607    1.989720   -0.000487
  H     -3.321858   -0.269729   -0.000676
  H      0.181727    2.236139    0.000837
  H      1.626928    0.207887    0.001972
  H     -1.857350   -2.301469    0.000462

----------------------------
CARTESIAN COORDINATES (A.U.)
----------------------------
  NO LB      ZA    FRAG     MASS         X           Y           Z
   0 C     6.0000    0    12.011   -3.131079    2.089464    0.000020
   1 C     6.0000    0    12.011   -0.503771    2.355215    0.001426
   2 C     6.0000    0    12.011   -4.232558   -0.317703   -0.000187
   3 C     6.0000    0    12.011   -2.708133   -2.459978    0.001006
   4 C     6.0000    0    12.011   -0.067208   -2.203938    0.002422
   5 C     6.0000    0    12.011    1.025727    0.208402    0.002627
   6 C     6.0000    0    12.011    1.569577   -4.473836    0.003686
   7 O     8.0000    0    15.999    0.805684   -6.641993    0.003440
   8 H     1.0000    0     1.008    3.633426   -4.062458    0.004672
   9 H     1.0000    0     1.008   -4.326731    3.760026   -0.000921
  10 H     1.0000    0     1.008   -6.277402   -0.509715   -0.001278
  11 H     1.0000    0     1.008    0.343413    4.225691    0.001581
  12 H     1.0000    0     1.008    3.074448    0.392850    0.003727
  13 H     1.0000    0     1.008   -3.509884   -4.349147    0.000872

--------------------------------
INTERNAL COORDINATES (ANGSTROEM)
--------------------------------
 C      0   0   0     0.000000000000     0.00000000     0.00000000
 C      1   0   0     1.397405847443     0.00000000     0.00000000
 C      1   2   0     1.400841895926   120.36383454     0.00000000
 C      3   1   2     1.391365399615   119.97662724     0.00000000
 C      4   3   1     1.404070100989   119.89776723     0.00000000
 C      2   1   3     1.394878770922   119.69219698     0.00000000
 C      5   4   3     1.480893293857   120.25715780   180.00027254
 O      7   5   4     1.216467513639   124.79670808     0.00000000
 H      7   5   4     1.113626336784   114.52194038   179.99739047
 H      1   2   3     1.087116351684   119.81618313   180.00005761
 H      3   1   2     1.086845056164   119.95239843   179.99982740
 H      2   1   3     1.086606009326   120.14275559   180.00000148
 H      6   2   1     1.088521491854   120.32348870   179.99998554
 H      4   3   1     1.086008090753   121.56860709   180.00020020

---------------------------
INTERNAL COORDINATES (A.U.)
---------------------------
 C      0   0   0     0.000000000000     0.00000000     0.00000000
 C      1   0   0     2.640714349608     0.00000000     0.00000000
 C      1   2   0     2.647207540223   120.36383454     0.00000000
 C      3   1   2     2.629299557486   119.97662724     0.00000000
 C      4   3   1     2.653307963697   119.89776723     0.00000000
 C      2   1   3     2.635938867063   119.69219698     0.00000000
 C      5   4   3     2.798482758951   120.25715780   180.00027254
 O      7   5   4     2.298790451589   124.79670808     0.00000000
 H      7   5   4     2.104448792045   114.52194038   179.99739047
 H      1   2   3     2.054352180391   119.81618313   180.00005761
 H      3   1   2     2.053839506156   119.95239843   179.99982740
 H      2   1   3     2.053387773100   120.14275559   180.00000148
 H      6   2   1     2.057007510491   120.32348870   179.99998554
 H      4   3   1     2.052257870746   121.56860709   180.00020020

---------------------
BASIS SET INFORMATION
---------------------
There are 3 groups of distinct atoms

 Group   1 Type C   : 10s4p1d contracted to 3s2p1d pattern {631/31/1}
 Group   2 Type O   : 10s4p1d contracted to 3s2p1d pattern {631/31/1}
 Group   3 Type H   : 4s contracted to 2s pattern {31}

Atom   0C    basis set group =>   1
Atom   1C    basis set group =>   1
Atom   2C    basis set group =>   1
Atom   3C    basis set group =>   1
Atom   4C    basis set group =>   1
Atom   5C    basis set group =>   1
Atom   6C    basis set group =>   1
Atom   7O    basis set group =>   2
Atom   8H    basis set group =>   3
Atom   9H    basis set group =>   3
Atom  10H    basis set group =>   3
Atom  11H    basis set group =>   3
Atom  12H    basis set group =>   3
Atom  13H    basis set group =>   3

-------------------------
BASIS SET IN INPUT FORMAT
-------------------------

 # Basis set for element : H 
 NewGTO H 
 S 3 
   1      18.7311370000      0.0334945995
   2       2.8253937000      0.2347269467
   3       0.6401217000      0.8137573184
 S 1 
   1       0.1612778000      1.0000000000
  end;

 # Basis set for element : C 
 NewGTO C 
 S 6 
   1    3047.5249000000      0.0018347002
   2     457.3695100000      0.0140373012
   3     103.9486900000      0.0688426061
   4      29.2101550000      0.2321844206
   5       9.2866630000      0.4679413416
   6       3.1639270000      0.3623120322
 S 3 
   1       7.8682724000     -0.1193324086
   2       1.8812885000     -0.1608542116
   3       0.5442493000      1.1434564826
 P 3 
   1       7.8682724000      0.0689990956
   2       1.8812885000      0.3164239798
   3       0.5442493000      0.7443082524
 S 1 
   1       0.1687144000      1.0000000000
 P 1 
   1       0.1687144000      1.0000000000
 D 1 
   1       0.8000000000      1.0000000000
  end;

 # Basis set for element : O 
 NewGTO O 
 S 6 
   1    5484.6717000000      0.0018310998
   2     825.2349500000      0.0139500985
   3     188.0469600000      0.0684450927
   4      52.9645000000      0.2327142753
   5      16.8975700000      0.4701929501
   6       5.7996353000      0.3585208619
 S 3 
   1      15.5396160000     -0.1107775038
   2       3.5999336000     -0.1480263051
   3       1.0137618000      1.1307670390
 P 3 
   1      15.5396160000      0.0708742995
   2       3.5999336000      0.3397527978
   3       1.0137618000      0.7271585953
 S 1 
   1       0.2700058000      1.0000000000
 P 1 
   1       0.2700058000      1.0000000000
 D 1 
   1       0.8000000000      1.0000000000
  end;

------------------------------------------------------------------------------
                           ORCA GTO INTEGRAL CALCULATION
------------------------------------------------------------------------------

                         BASIS SET STATISTICS AND STARTUP INFO

 # of primitive gaussian shells          ...  144
 # of primitive gaussian functions       ...  240
 # of contracted shells                  ...   60
 # of contracted basis functions         ...  124
 Highest angular momentum                ...    2
 Maximum contraction depth               ...    6
 Integral package used                   ... LIBINT
 Integral threshhold            Thresh   ...  2.500e-11
 Primitive cut-off              TCut     ...  2.500e-12


------------------------------ INTEGRAL EVALUATION ----------------------------


 * One electron integrals 
 Pre-screening matrix                    ... done
 Shell pair data                         ... done (   0.002 sec)

-------------------------------------------------------------------------------
                                 ORCA SCF
-------------------------------------------------------------------------------

------------
SCF SETTINGS
------------
Hamiltonian:
 Density Functional     Method          .... DFT(GTOs)
 Exchange Functional    Exchange        .... B88
   X-Alpha parameter    XAlpha          ....  0.666667
   Becke's b parameter  XBeta           ....  0.004200
 Correlation Functional Correlation     .... LYP
 LDA part of GGA corr.  LDAOpt          .... VWN-5
 Gradients option       PostSCFGGA      .... off
 Hybrid DFT is turned on
   Fraction HF Exchange ScalHFX         ....  0.200000
   Scaling of DF-GGA-X  ScalDFX         ....  0.720000
   Scaling of DF-GGA-C  ScalDFC         ....  0.810000
   Scaling of DF-LDA-C  ScalLDAC        ....  1.000000
   Perturbative correction              ....  0.000000
   Density functional embedding theory  .... OFF
   NL short-range parameter             ....  4.800000


General Settings:
 Integral files         IntName         .... /Users/lailaal-madhagi/Desktop/Testing_XAS_Analysis_code/Benzaldehyde//Results_dir_Benzaldehyde_geom_element_O_2019-11-04_23-17-29//GTE1_Benzaldehyde_geom_2019-11-04_23-17-46//TDDFT_O-edge
 Hartree-Fock type      HFTyp           .... RHF
 Total Charge           Charge          ....    0
 Multiplicity           Mult            ....    1
 Number of Electrons    NEL             ....   56
 Basis Dimension        Dim             ....  124
 Nuclear Repulsion      ENuc            ....    320.4408972142 Eh

Convergence Acceleration:
 DIIS                   CNVDIIS         .... on
   Start iteration      DIISMaxIt       ....    12
   Startup error        DIISStart       ....  0.200000
   # of expansion vecs  DIISMaxEq       ....     5
   Bias factor          DIISBfac        ....   1.050
   Max. coefficient     DIISMaxC        ....  10.000
 Newton-Raphson         CNVNR           .... off
 SOSCF                  CNVSOSCF        .... on
   Start iteration      SOSCFMaxIt      ....   150
   Startup grad/error   SOSCFStart      ....  0.003300
 Level Shifting         CNVShift        .... on
   Level shift para.    LevelShift      ....    0.2500
   Turn off err/grad.   ShiftErr        ....    0.0010
 Zerner damping         CNVZerner       .... off
 Static damping         CNVDamp         .... on
   Fraction old density DampFac         ....    0.7000
   Max. Damping (<1)    DampMax         ....    0.9800
   Min. Damping (>=0)   DampMin         ....    0.0000
   Turn off err/grad.   DampErr         ....    0.1000
 Fernandez-Rico         CNVRico         .... off

SCF Procedure:
 Maximum # iterations   MaxIter         ....   125
 SCF integral mode      SCFMode         .... Direct
   Integral package                     .... LIBINT
 Reset frequency        DirectResetFreq ....    20
 Integral Threshold     Thresh          ....  2.500e-11 Eh
 Primitive CutOff       TCut            ....  2.500e-12 Eh

Convergence Tolerance:
 Convergence Check Mode ConvCheckMode   .... Total+1el-Energy
 Convergence forced     ConvForced      .... 1
 Energy Change          TolE            ....  1.000e-08 Eh
 1-El. energy change                    ....  1.000e-05 Eh
 Orbital Gradient       TolG            ....  1.000e-05
 Orbital Rotation angle TolX            ....  1.000e-05
 DIIS Error             TolErr          ....  5.000e-07


Diagonalization of the overlap matrix:
Smallest eigenvalue                        ... 4.886e-04
Time for diagonalization                   ...    0.004 sec
Threshold for overlap eigenvalues          ... 1.000e-08
Number of eigenvalues below threshold      ... 0
Time for construction of square roots      ...    0.002 sec
Total time needed                          ...    0.006 sec

-------------------
DFT GRID GENERATION
-------------------

General Integration Accuracy     IntAcc      ...  4.340
Radial Grid Type                 RadialGrid  ... Gauss-Chebyshev
Angular Grid (max. acc.)         AngularGrid ... Lebedev-194
Angular grid pruning method      GridPruning ... 3 (G Style)
Weight generation scheme         WeightScheme... Becke
Basis function cutoff            BFCut       ...    1.0000e-11
Integration weight cutoff        WCut        ...    1.0000e-14
Grids for H and He will be reduced by one unit

# of grid points (after initial pruning)     ...  35456 (   0.0 sec)
# of grid points (after weights+screening)   ...  32878 (   0.0 sec)
nearest neighbour list constructed           ...    0.0 sec
Grid point re-assignment to atoms done       ...    0.0 sec
Grid point division into batches done        ...    0.0 sec
Reduced shell lists constructed in    0.2 sec

Total number of grid points                  ...    32878
Total number of batches                      ...      522
Average number of points per batch           ...       62
Average number of grid points per atom       ...     2348
Average number of shells per batch           ...    41.85 (69.75%)
Average number of basis functions per batch  ...    88.73 (71.56%)
Average number of large shells per batch     ...    32.98 (78.79%)
Average number of large basis fcns per batch ...    70.10 (79.00%)
Maximum spatial batch extension              ...  17.15, 17.30, 22.17 au
Average spatial batch extension              ...   3.04,  3.08,  3.89 au

Time for grid setup =    0.290 sec

------------------------------
INITIAL GUESS: MODEL POTENTIAL
------------------------------
Loading Hartree-Fock densities                     ... done
Calculating cut-offs                               ... done
Setting up the integral package                    ... done
Initializing the effective Hamiltonian             ... done
Starting the Coulomb interaction                   ... done (   0.1 sec)
Reading the grid                                   ... done
Mapping shells                                     ... done
Starting the XC term evaluation                    ... done (   0.2 sec)
  promolecular density results
     # of electrons  =     55.996611565
     EX              =    -45.923393577
     EC              =     -1.882478194
     EX+EC           =    -47.805871772
Transforming the Hamiltonian                       ... done (   0.0 sec)
Diagonalizing the Hamiltonian                      ... done (   0.0 sec)
Back transforming the eigenvectors                 ... done (   0.0 sec)
Now organizing SCF variables                       ... done
                      ------------------
                      INITIAL GUESS DONE (   0.7 sec)
                      ------------------
--------------
SCF ITERATIONS
--------------
               ***  Starting incremental Fock matrix formation  ***

                         ----------------------------
                         !        ITERATION     0   !
                         ----------------------------
   Total Energy        :    -345.167988275745 Eh
   Energy Change       :    -345.167988275745 Eh
   MAX-DP              :       0.096615929018
   RMS-DP              :       0.003070479631
   Actual Damping      :       0.7000
   Actual Level Shift  :       0.2500 Eh
   Int. Num. El.       :    55.99975941 (UP=   27.99987970 DN=   27.99987970)
   Exchange            :   -37.60050468
   Correlation         :    -2.24816112


                         ----------------------------
                         !        ITERATION     1   !
                         ----------------------------
   Total Energy        :    -345.257083227067 Eh
   Energy Change       :      -0.089094951322 Eh
   MAX-DP              :       0.056525230914
   RMS-DP              :       0.002014258799
   Actual Damping      :       0.7000
   Actual Level Shift  :       0.2500 Eh
   Int. Num. El.       :    55.99971529 (UP=   27.99985765 DN=   27.99985765)
   Exchange            :   -37.34065379
   Correlation         :    -2.23843208

                               ***Turning on DIIS***

                         ----------------------------
                         !        ITERATION     2   !
                         ----------------------------
   Total Energy        :    -345.291022923184 Eh
   Energy Change       :      -0.033939696117 Eh
   MAX-DP              :       0.069086269423
   RMS-DP              :       0.003051355625
   Actual Damping      :       0.0000
   Actual Level Shift  :       0.2500 Eh
   Int. Num. El.       :    55.99969485 (UP=   27.99984742 DN=   27.99984742)
   Exchange            :   -37.17447425
   Correlation         :    -2.23168169
   DIIS-Error          :       0.031424672653


                         ----------------------------
                         !        ITERATION     3   !
                         ----------------------------
   Total Energy        :    -345.348153701835 Eh
   Energy Change       :      -0.057130778650 Eh
   MAX-DP              :       0.037449166551
   RMS-DP              :       0.001445983171
   Actual Damping      :       0.0000
   Actual Level Shift  :       0.2500 Eh
   Int. Num. El.       :    55.99967143 (UP=   27.99983572 DN=   27.99983572)
   Exchange            :   -36.93638347
   Correlation         :    -2.22099660
   DIIS-Error          :       0.046599483082
   DIIS coefficients:
      0.55165   0.44835


                         ----------------------------
                         !        ITERATION     4   !
                         ----------------------------
   Total Energy        :    -345.358349157131 Eh
   Energy Change       :      -0.010195455297 Eh
   MAX-DP              :       0.011157934455
   RMS-DP              :       0.000485073107
   Actual Damping      :       0.0000
   Actual Level Shift  :       0.2500 Eh
   Int. Num. El.       :    55.99968074 (UP=   27.99984037 DN=   27.99984037)
   Exchange            :   -37.03816700
   Correlation         :    -2.22541162
   DIIS-Error          :       0.022273370833
   DIIS coefficients:
      0.27340   0.13890   0.58770


                         ----------------------------
                         !        ITERATION     5   !
                         ----------------------------
   Total Energy        :    -345.359461056488 Eh
   Energy Change       :      -0.001111899357 Eh
   MAX-DP              :       0.004649758970
   RMS-DP              :       0.000141303805
   Actual Damping      :       0.0000
   Actual Level Shift  :       0.2500 Eh
   Int. Num. El.       :    55.99967721 (UP=   27.99983861 DN=   27.99983861)
   Exchange            :   -37.04949905
   Correlation         :    -2.22628569
   DIIS-Error          :       0.004143291379
   DIIS coefficients:
      0.06889   0.02382   0.14221   0.76508

                      *** Initiating the SOSCF procedure ***
                           *** Shutting down DIIS ***
                      *** Re-Reading the Fockian *** 
                      *** Removing any level shift *** 

                         ----------------------------
                         !        ITERATION     6   !
                         ----------------------------
   Total Energy        :    -345.359502874130 Eh
   Energy Change       :      -0.000041817642 Eh
   MAX-DP              :       0.001415445451
   RMS-DP              :       0.000057428975
   Orbital gradient    :       0.000224941769
   Orbital Rotation    :       0.000224941769
   Actual Damping      :       0.0000
   Int. Num. El.       :    55.99967916 (UP=   27.99983958 DN=   27.99983958)
   Exchange            :   -37.05637264
   Correlation         :    -2.22652241

               *** Restarting incremental Fock matrix formation ***

                         ----------------------------
                         !        ITERATION     7   !
                         ----------------------------
   Total Energy        :    -345.359504827802 Eh
   Energy Change       :      -0.000001953672 Eh
   MAX-DP              :       0.000611321218
   RMS-DP              :       0.000026747351
   Orbital gradient    :       0.000167033800
   Orbital Rotation    :       0.000831283711
   Actual Damping      :       0.0000
   Int. Num. El.       :    55.99967875 (UP=   27.99983938 DN=   27.99983938)
   Exchange            :   -37.05606256
   Correlation         :    -2.22651215


                         ----------------------------
                         !        ITERATION     8   !
                         ----------------------------
   Total Energy        :    -345.359504095874 Eh
   Energy Change       :       0.000000731928 Eh
   MAX-DP              :       0.000339470186
   RMS-DP              :       0.000015765535
   Orbital gradient    :       0.000308440386
   Orbital Rotation    :       0.000591973023
   Actual Damping      :       0.0000
   Int. Num. El.       :    55.99967905 (UP=   27.99983952 DN=   27.99983952)
   Exchange            :   -37.05622846
   Correlation         :    -2.22650974


                         ----------------------------
                         !        ITERATION     9   !
                         ----------------------------
   Total Energy        :    -345.359505417959 Eh
   Energy Change       :      -0.000001322085 Eh
   MAX-DP              :       0.000156590156
   RMS-DP              :       0.000004426242
   Orbital gradient    :       0.000039058659
   Orbital Rotation    :       0.000083932102
   Actual Damping      :       0.0000
   Int. Num. El.       :    55.99967888 (UP=   27.99983944 DN=   27.99983944)
   Exchange            :   -37.05608264
   Correlation         :    -2.22651061


                         ----------------------------
                         !        ITERATION    10   !
                         ----------------------------
   Total Energy        :    -345.359505383718 Eh
   Energy Change       :       0.000000034241 Eh
   MAX-DP              :       0.000101944958
   RMS-DP              :       0.000002740514
   Orbital gradient    :       0.000063283541
   Orbital Rotation    :       0.000059716706
   Actual Damping      :       0.0000
   Int. Num. El.       :    55.99967887 (UP=   27.99983944 DN=   27.99983944)
   Exchange            :   -37.05615532
   Correlation         :    -2.22651221


                         ----------------------------
                         !        ITERATION    11   !
                         ----------------------------
   Total Energy        :    -345.359505446252 Eh
   Energy Change       :      -0.000000062535 Eh
   MAX-DP              :       0.000041772189
   RMS-DP              :       0.000001108956
   Orbital gradient    :       0.000007188814
   Orbital Rotation    :       0.000020459471
   Actual Damping      :       0.0000
   Int. Num. El.       :    55.99967888 (UP=   27.99983944 DN=   27.99983944)
   Exchange            :   -37.05609304
   Correlation         :    -2.22651038


                         ----------------------------
                         !        ITERATION    12   !
                         ----------------------------
   Total Energy        :    -345.359505444687 Eh
   Energy Change       :       0.000000001566 Eh
   MAX-DP              :       0.000027937800
   RMS-DP              :       0.000000746336
   Orbital gradient    :       0.000013035613
   Orbital Rotation    :       0.000014910252
   Actual Damping      :       0.0000
   Int. Num. El.       :    55.99967889 (UP=   27.99983944 DN=   27.99983944)
   Exchange            :   -37.05612915
   Correlation         :    -2.22651153

                  ***Gradient check signals convergence***
              ***Rediagonalizing the Fockian in SOSCF/NRSCF***

               *****************************************************
               *                     SUCCESS                       *
               *           SCF CONVERGED AFTER  13 CYCLES          *
               *****************************************************

Setting up the final grid:

General Integration Accuracy     IntAcc      ...  5.010
Radial Grid Type                 RadialGrid  ... Gauss-Chebyshev
Angular Grid (max. acc.)         AngularGrid ... Lebedev-434
Angular grid pruning method      GridPruning ... 3 (G Style)
Weight generation scheme         WeightScheme... Becke
Basis function cutoff            BFCut       ...    1.0000e-11
Integration weight cutoff        WCut        ...    1.0000e-14
Grids for H and He will be reduced by one unit

# of grid points (after initial pruning)     ... 125880 (   0.1 sec)
# of grid points (after weights+screening)   ... 115788 (   0.2 sec)
nearest neighbour list constructed           ...    0.0 sec
Grid point re-assignment to atoms done       ...    0.0 sec
Grid point division into batches done        ...    0.7 sec
Reduced shell lists constructed in    1.3 sec

Total number of grid points                  ...   115788
Total number of batches                      ...     1817
Average number of points per batch           ...       63
Average number of grid points per atom       ...     8271
Average number of shells per batch           ...    38.59 (64.32%)
Average number of basis functions per batch  ...    81.47 (65.70%)
Average number of large shells per batch     ...    29.92 (77.54%)
Average number of large basis fcns per batch ...    63.35 (77.76%)
Maximum spatial batch extension              ...  16.11, 16.91, 22.94 au
Average spatial batch extension              ...   2.10,  2.09,  2.35 au

Final grid set up in    1.6 sec
Final integration                            ... done (   1.0 sec)
Change in XC energy                          ...    -0.000086400
Integrated number of electrons               ...    55.999999498
Previous integrated no of electrons          ...    55.999678885

----------------
TOTAL SCF ENERGY
----------------

Total Energy       :         -345.35959185 Eh           -9397.71226 eV

Components:
Nuclear Repulsion  :          320.44089721 Eh            8719.64011 eV
Electronic Energy  :         -665.80048906 Eh          -18117.35238 eV
One Electron Energy:        -1101.69396869 Eh          -29978.61697 eV
Two Electron Energy:          435.89347963 Eh           11861.26460 eV

Virial components:
Potential Energy   :         -688.65479597 Eh          -18739.24968 eV
Kinetic Energy     :          343.29520412 Eh            9341.53742 eV
Virial Ratio       :            2.00601345


DFT components:
N(Alpha)           :       27.999999749008 electrons
N(Beta)            :       27.999999749008 electrons
N(Total)           :       55.999999498016 electrons
E(X)               :      -37.056184268364 Eh       
E(C)               :       -2.226522882904 Eh       
E(XC)              :      -39.282707151268 Eh       
DFET-embed. en.    :        0.000000000000 Eh       

---------------
SCF CONVERGENCE
---------------

  Last Energy change         ...   -3.0176e-09  Tolerance :   1.0000e-08
  Last MAX-Density change    ...    5.0873e-06  Tolerance :   1.0000e-07
  Last RMS-Density change    ...    1.7551e-07  Tolerance :   5.0000e-09
  Last Orbital Gradient      ...    1.3052e-06  Tolerance :   1.0000e-05
  Last Orbital Rotation      ...    4.3718e-06  Tolerance :   1.0000e-05

             **** THE GBW FILE WAS UPDATED (/Users/lailaal-madhagi/Desktop/Testing_XAS_Analysis_code/Benzaldehyde//Results_dir_Benzaldehyde_geom_element_O_2019-11-04_23-17-29//GTE1_Benzaldehyde_geom_2019-11-04_23-17-46//TDDFT_O-edge.gbw) ****
             **** DENSITY FILE WAS UPDATED (/Users/lailaal-madhagi/Desktop/Testing_XAS_Analysis_code/Benzaldehyde//Results_dir_Benzaldehyde_geom_element_O_2019-11-04_23-17-29//GTE1_Benzaldehyde_geom_2019-11-04_23-17-46//TDDFT_O-edge.scfp.tmp) ****
             **** ENERGY FILE WAS UPDATED (/Users/lailaal-madhagi/Desktop/Testing_XAS_Analysis_code/Benzaldehyde//Results_dir_Benzaldehyde_geom_element_O_2019-11-04_23-17-29//GTE1_Benzaldehyde_geom_2019-11-04_23-17-46//TDDFT_O-edge.en.tmp) ****
----------------
ORBITAL ENERGIES
----------------

  NO   OCC          E(Eh)            E(eV) 
   0   2.0000     -19.137782      -520.7655 
   1   2.0000     -10.265608      -279.3414 
   2   2.0000     -10.200868      -277.5797 
   3   2.0000     -10.200140      -277.5599 
   4   2.0000     -10.196668      -277.4654 
   5   2.0000     -10.196411      -277.4585 
   6   2.0000     -10.195186      -277.4251 
   7   2.0000     -10.194653      -277.4106 
   8   2.0000      -1.035759       -28.1844 
   9   2.0000      -0.864822       -23.5330 
  10   2.0000      -0.768735       -20.9183 
  11   2.0000      -0.756059       -20.5734 
  12   2.0000      -0.649769       -17.6811 
  13   2.0000      -0.616277       -16.7698 
  14   2.0000      -0.571500       -15.5513 
  15   2.0000      -0.521448       -14.1893 
  16   2.0000      -0.481706       -13.1079 
  17   2.0000      -0.459040       -12.4911 
  18   2.0000      -0.437926       -11.9166 
  19   2.0000      -0.431295       -11.7361 
  20   2.0000      -0.420670       -11.4470 
  21   2.0000      -0.401593       -10.9279 
  22   2.0000      -0.366006        -9.9595 
  23   2.0000      -0.360141        -9.7999 
  24   2.0000      -0.352524        -9.5927 
  25   2.0000      -0.263266        -7.1638 
  26   2.0000      -0.260190        -7.0801 
  27   2.0000      -0.251367        -6.8401 
  28   0.0000      -0.059362        -1.6153 
  29   0.0000      -0.010863        -0.2956 
  30   0.0000       0.043185         1.1751 
  31   0.0000       0.090380         2.4594 
  32   0.0000       0.118561         3.2262 
  33   0.0000       0.151908         4.1336 
  34   0.0000       0.155935         4.2432 
  35   0.0000       0.163339         4.4447 
  36   0.0000       0.178593         4.8598 
  37   0.0000       0.182851         4.9756 
  38   0.0000       0.259300         7.0559 
  39   0.0000       0.265449         7.2232 
  40   0.0000       0.297321         8.0905 
  41   0.0000       0.316285         8.6065 
  42   0.0000       0.335488         9.1291 
  43   0.0000       0.368949        10.0396 
  44   0.0000       0.499551        13.5935 
  45   0.0000       0.502652        13.6779 
  46   0.0000       0.529613        14.4115 
  47   0.0000       0.538034        14.6406 
  48   0.0000       0.539827        14.6894 
  49   0.0000       0.556175        15.1343 
  50   0.0000       0.563782        15.3413 
  51   0.0000       0.585953        15.9446 
  52   0.0000       0.587814        15.9952 
  53   0.0000       0.606619        16.5069 
  54   0.0000       0.612279        16.6610 
  55   0.0000       0.629932        17.1413 
  56   0.0000       0.636590        17.3225 
  57   0.0000       0.652275        17.7493 
  58   0.0000       0.693414        18.8687 
  59   0.0000       0.700916        19.0729 
  60   0.0000       0.762468        20.7478 
  61   0.0000       0.810366        22.0512 
  62   0.0000       0.819559        22.3013 
  63   0.0000       0.829494        22.5717 
  64   0.0000       0.829911        22.5830 
  65   0.0000       0.849471        23.1153 
  66   0.0000       0.882476        24.0134 
  67   0.0000       0.892585        24.2885 
  68   0.0000       0.931689        25.3525 
  69   0.0000       0.938484        25.5374 
  70   0.0000       0.980021        26.6677 
  71   0.0000       0.988595        26.9010 
  72   0.0000       0.999146        27.1881 
  73   0.0000       1.055345        28.7174 
  74   0.0000       1.088875        29.6298 
  75   0.0000       1.123001        30.5584 
  76   0.0000       1.143865        31.1261 
  77   0.0000       1.170060        31.8390 
  78   0.0000       1.241988        33.7962 
  79   0.0000       1.252043        34.0698 
  80   0.0000       1.310193        35.6522 
  81   0.0000       1.321129        35.9498 
  82   0.0000       1.422583        38.7105 
  83   0.0000       1.428857        38.8812 
  84   0.0000       1.443614        39.2827 
  85   0.0000       1.457503        39.6607 
  86   0.0000       1.480943        40.2985 
  87   0.0000       1.496457        40.7207 
  88   0.0000       1.540810        41.9276 
  89   0.0000       1.664321        45.2885 
  90   0.0000       1.746384        47.5215 
  91   0.0000       1.759029        47.8656 
  92   0.0000       1.772380        48.2289 
  93   0.0000       1.807904        49.1956 
  94   0.0000       1.854368        50.4599 
  95   0.0000       1.890515        51.4435 
  96   0.0000       1.910709        51.9930 
  97   0.0000       1.961230        53.3678 
  98   0.0000       1.982199        53.9384 
  99   0.0000       2.010393        54.7056 
 100   0.0000       2.043801        55.6147 
 101   0.0000       2.060290        56.0633 
 102   0.0000       2.135907        58.1210 
 103   0.0000       2.140714        58.2518 
 104   0.0000       2.146584        58.4115 
 105   0.0000       2.201985        59.9191 
 106   0.0000       2.278405        61.9986 
 107   0.0000       2.295862        62.4736 
 108   0.0000       2.321165        63.1621 
 109   0.0000       2.358125        64.1678 
 110   0.0000       2.359462        64.2042 
 111   0.0000       2.529193        68.8229 
 112   0.0000       2.578824        70.1734 
 113   0.0000       2.587893        70.4202 
 114   0.0000       2.605391        70.8963 
 115   0.0000       2.667202        72.5783 
 116   0.0000       2.721976        74.0687 
 117   0.0000       2.727550        74.2204 
 118   0.0000       2.735163        74.4276 
 119   0.0000       2.833342        77.0992 
 120   0.0000       2.924004        79.5662 
 121   0.0000       2.980083        81.0922 
 122   0.0000       3.130193        85.1769 
 123   0.0000       3.408906        92.7610 
------------------
MOLECULAR ORBITALS
------------------
                      0         1         2         3         4         5   
                 -19.13778 -10.26561 -10.20087 -10.20014 -10.19667 -10.19641
                   2.00000   2.00000   2.00000   2.00000   2.00000   2.00000
                  --------  --------  --------  --------  --------  --------
  0C   1s         0.000004  0.000040 -0.013805 -0.992523 -0.003924 -0.057257
  0C   2s         0.000042  0.000178 -0.000402 -0.036167  0.000204 -0.004216
  0C   1pz       -0.000000 -0.000000  0.000000 -0.000000  0.000000 -0.000001
  0C   1px       -0.000050 -0.000048  0.000281 -0.000468 -0.000003 -0.001329
  0C   1py       -0.000096 -0.000040 -0.000066  0.000656 -0.000139 -0.000053
  0C   3s         0.000288 -0.003262  0.005463  0.031633 -0.002013  0.015518
  0C   2pz       -0.000000 -0.000001  0.000001  0.000003 -0.000001  0.000004
  0C   2px       -0.000698 -0.001655  0.001621  0.003993 -0.000732  0.005841
  0C   2py        0.000275  0.002092 -0.002229 -0.005613  0.001362 -0.003886
  0C   1dz2       0.000004  0.000030  0.000029  0.000540  0.000096  0.000647
  0C   1dxz      -0.000000 -0.000000  0.000000 -0.000001 -0.000000 -0.000001
  0C   1dyz       0.000000 -0.000000  0.000000 -0.000000  0.000000 -0.000000
  0C   1dx2y2    -0.000031 -0.000025  0.000111 -0.000122 -0.000071 -0.001108
  0C   1dxy       0.000011 -0.000018 -0.000012 -0.000365 -0.000005 -0.000353
  1C   1s        -0.000041 -0.000112 -0.050043 -0.056822  0.046516  0.991128
  1C   2s        -0.000243 -0.000526  0.000338  0.000018  0.001769  0.036634
  1C   1pz        0.000000  0.000000  0.000001 -0.000001 -0.000000 -0.000000
  1C   1px        0.000085  0.000086  0.000740 -0.001321 -0.000053 -0.000410
  1C   1py       -0.000091 -0.000079 -0.001076 -0.000096 -0.000163 -0.000900
  1C   3s         0.003632  0.007450 -0.011958 -0.011594  0.001052 -0.034472
  1C   2pz        0.000000  0.000001 -0.000001  0.000002 -0.000000  0.000001
  1C   2px        0.000358 -0.000220  0.000325  0.004390 -0.000502  0.003481
  1C   2py       -0.001878 -0.004203  0.006126  0.004158 -0.000871  0.007523
  1C   1dz2      -0.000086 -0.000145 -0.000596 -0.000568  0.000083 -0.000672
  1C   1dxz       0.000000  0.000000  0.000001  0.000001 -0.000000  0.000001
  1C   1dyz      -0.000000 -0.000000 -0.000001  0.000000  0.000000 -0.000000
  1C   1dx2y2    -0.000030 -0.000034 -0.000278  0.001141 -0.000015  0.000346
  1C   1dxy      -0.000098 -0.000098 -0.001110  0.000165  0.000023 -0.000387
  2C   1s         0.000005 -0.000068  0.000889 -0.040954 -0.016457 -0.009035
  2C   2s         0.000032 -0.000324  0.000631  0.000611 -0.000304 -0.000168
  2C   1pz       -0.000000  0.000000  0.000000  0.000000  0.000000 -0.000000
  2C   1px        0.000036  0.000039  0.000160  0.000538  0.000213 -0.000149
  2C   1py        0.000121  0.000010  0.000048  0.001185 -0.000216 -0.000098
  2C   3s         0.000603  0.005426 -0.005159 -0.012182  0.001704 -0.006332
  2C   2pz       -0.000000  0.000002 -0.000002 -0.000003  0.000000 -0.000002
  2C   2px       -0.000719  0.002478 -0.003353 -0.005479  0.001043 -0.003351
  2C   2py       -0.001391 -0.001124 -0.000205 -0.002734  0.000647 -0.000414
  2C   1dz2      -0.000001 -0.000093  0.000098 -0.000585 -0.000003 -0.000076
  2C   1dxz      -0.000000  0.000000 -0.000000 -0.000000  0.000000  0.000000
  2C   1dyz      -0.000000 -0.000000  0.000000  0.000000 -0.000000 -0.000000
  2C   1dx2y2    -0.000017 -0.000039  0.000008 -0.000816 -0.000028 -0.000050
  2C   1dxy      -0.000007 -0.000043  0.000017  0.000807 -0.000167 -0.000022
  3C   1s        -0.000030 -0.000045 -0.001473 -0.001593 -0.110737 -0.000500
  3C   2s        -0.000219 -0.000170  0.000023 -0.000004 -0.002228 -0.000562
  3C   1pz        0.000000 -0.000000  0.000000 -0.000000  0.000001 -0.000000
  3C   1px        0.000067 -0.000128  0.000284 -0.000067  0.001208 -0.000142
  3C   1py       -0.000062  0.000181  0.000122  0.000276  0.000048 -0.000105
  3C   3s         0.005159 -0.001356  0.005645  0.005544 -0.006730  0.004764
  3C   2pz        0.000002  0.000002  0.000000  0.000000 -0.000002  0.000000
  3C   2px        0.004099  0.002002  0.001154  0.001196 -0.003671  0.001079
  3C   2py       -0.000419 -0.004002  0.003154  0.003014 -0.000893  0.003155
  3C   1dz2      -0.000046 -0.000068  0.000013  0.000019 -0.000619 -0.000046
  3C   1dxz       0.000000  0.000000  0.000000 -0.000000  0.000001  0.000000
  3C   1dyz       0.000000  0.000000  0.000000 -0.000000  0.000000 -0.000000
  3C   1dx2y2     0.000130  0.000028  0.000094 -0.000077  0.001074 -0.000057
  3C   1dxy       0.000010  0.000146  0.000088 -0.000055  0.000228 -0.000034
  4C   1s         0.000094  0.001455 -0.049307  0.002999 -0.986560  0.044732
  4C   2s         0.000484 -0.001068  0.000235  0.000560 -0.036440  0.001865
  4C   1pz       -0.000000 -0.000000  0.000000 -0.000000  0.000000  0.000000
  4C   1px       -0.000305 -0.000670  0.000461 -0.000157 -0.000032  0.000069
  4C   1py       -0.000100  0.000568  0.001258  0.000190 -0.000308 -0.000120
  4C   3s        -0.004985  0.006578 -0.011345 -0.003928  0.030766 -0.008403
  4C   2pz        0.000002  0.000001  0.000002  0.000002 -0.000001  0.000001
  4C   2px        0.005762  0.002889  0.002310  0.002682 -0.000890  0.000455
  4C   2py        0.006755  0.004404 -0.007094 -0.003839  0.000304 -0.002918
  4C   1dz2       0.000132  0.000648 -0.000590  0.000100  0.000661 -0.000085
  4C   1dxz       0.000000 -0.000001  0.000000 -0.000000 -0.000001  0.000000
  4C   1dyz       0.000000  0.000001  0.000000 -0.000000  0.000000  0.000000
  4C   1dx2y2     0.000219  0.000225 -0.000677 -0.000010  0.000069  0.000080
  4C   1dxy       0.000110  0.001114  0.000896 -0.000065 -0.000246  0.000075
  5C   1s         0.000024 -0.000053 -0.992554  0.016477  0.046978 -0.051588
  5C   2s         0.000034 -0.000071 -0.036244  0.000698  0.003462 -0.004155
  5C   1pz       -0.000000 -0.000000  0.000000 -0.000000 -0.000000  0.000001
  5C   1px       -0.000117 -0.000191  0.000781 -0.000267 -0.000559  0.000869
  5C   1py        0.000335  0.000499  0.000090  0.000165 -0.001302 -0.001026
  5C   3s        -0.006544 -0.008274  0.032139  0.004950 -0.009372  0.016528
  5C   2pz        0.000002  0.000003 -0.000004 -0.000002  0.000001 -0.000004
  5C   2px        0.002661  0.005563 -0.007245 -0.003090  0.002131 -0.006730
  5C   2py       -0.000492 -0.001484 -0.000816 -0.000242  0.002930  0.001281
  5C   1dz2       0.000034  0.000001  0.000532 -0.000000 -0.000681  0.000673
  5C   1dxz      -0.000000  0.000000 -0.000000  0.000000  0.000000 -0.000001
  5C   1dyz       0.000000  0.000000  0.000000 -0.000000  0.000000  0.000001
  5C   1dx2y2     0.000078  0.000155  0.000396  0.000004 -0.000776  0.000510
  5C   1dxy       0.000200  0.000116  0.000131 -0.000106  0.000891  0.001002
  6C   1s         0.000222  0.995129  0.000020  0.000021  0.001390 -0.000060
  6C   2s         0.000353  0.036136  0.000496  0.000066  0.001396 -0.000256
  6C   1pz        0.000000 -0.000001 -0.000000  0.000000 -0.000000  0.000000
  6C   1px        0.000160 -0.001079  0.000004  0.000049 -0.000556  0.000025
  6C   1py        0.000115 -0.001847  0.000095 -0.000043  0.000750 -0.000033
  6C   3s         0.012037 -0.012477 -0.002650 -0.002374 -0.007251  0.000596
  6C   2pz       -0.000003 -0.000001  0.000000  0.000001  0.000002 -0.000000
  6C   2px       -0.007664 -0.003869  0.000198  0.000793  0.002858 -0.000132
  6C   2py       -0.008337 -0.007404 -0.001324 -0.000722 -0.001869  0.000788
  6C   1dz2       0.000138 -0.001315  0.000052  0.000046 -0.000576 -0.000010
  6C   1dxz       0.000000  0.000000 -0.000000 -0.000000  0.000001  0.000000
  6C   1dyz      -0.000000  0.000000 -0.000000  0.000000 -0.000001  0.000000
  6C   1dx2y2     0.000735 -0.001374 -0.000084  0.000012 -0.000359 -0.000004
  6C   1dxy      -0.000515  0.000742 -0.000087  0.000011 -0.001071  0.000016
  7O   1s         0.995153 -0.000002  0.000010 -0.000003 -0.000008 -0.000001
  7O   2s         0.030034  0.000985  0.000180 -0.000028 -0.000043 -0.000033
  7O   1pz        0.000000 -0.000000 -0.000000  0.000000 -0.000000 -0.000000
  7O   1px        0.000666 -0.000367 -0.000012  0.000019 -0.000011 -0.000014
  7O   1py        0.002140 -0.001045  0.000018  0.000002  0.000082  0.000004
  7O   3s        -0.022921 -0.008567 -0.000627  0.000244  0.001219  0.000220
  7O   2pz       -0.000000 -0.000001 -0.000000 -0.000000 -0.000000  0.000000
  7O   2px       -0.001520 -0.001840 -0.000008 -0.000091 -0.000345  0.000147
  7O   2py       -0.006675 -0.005124 -0.000202  0.000152  0.000524 -0.000044
  7O   1dz2       0.000072  0.001160  0.000038  0.000007  0.000168 -0.000003
  7O   1dxz       0.000000 -0.000000 -0.000000 -0.000000 -0.000000  0.000000
  7O   1dyz      -0.000000 -0.000000  0.000000  0.000000 -0.000000  0.000000
  7O   1dx2y2     0.000324  0.001326  0.000006 -0.000023 -0.000159  0.000026
  7O   1dxy      -0.000054 -0.001167  0.000001  0.000004 -0.000112  0.000021
  8H   1s         0.000157 -0.000746  0.000163  0.000024  0.000242 -0.000079
  8H   2s         0.002277  0.005526  0.000377 -0.000076 -0.000444  0.000064
  9H   1s        -0.000086 -0.000143  0.000089  0.001352 -0.000046 -0.000048
  9H   2s        -0.000226 -0.000638  0.000325 -0.002755 -0.000519  0.001106
 10H   1s        -0.000119 -0.000019 -0.000094  0.000193  0.000096 -0.000044
 10H   2s        -0.000327  0.000541 -0.000934 -0.001345  0.000056 -0.000581
 11H   1s        -0.000016  0.000036  0.000199  0.000207 -0.000034 -0.001335
 11H   2s         0.000303  0.000961 -0.001385 -0.001390  0.000236  0.002440
 12H   1s        -0.000194 -0.000396  0.001355  0.000073  0.000190 -0.000076
 12H   2s        -0.000274 -0.001521 -0.002631  0.000637  0.000079  0.000967
 13H   1s        -0.000194 -0.000337  0.000101  0.000097  0.000416  0.000096
 13H   2s         0.000243 -0.001044  0.000624  0.000589 -0.000568  0.000929
                      6         7         8         9        10        11   
                 -10.19519 -10.19465  -1.03576  -0.86482  -0.76873  -0.75606
                   2.00000   2.00000   2.00000   2.00000   2.00000   2.00000
                  --------  --------  --------  --------  --------  --------
  0C   1s         0.037388  0.018418  0.000799  0.089176  0.121843 -0.019649
  0C   2s         0.003183  0.001767 -0.001114 -0.169187 -0.237865  0.038524
  0C   1pz       -0.000000 -0.000000 -0.000000 -0.000027 -0.000008  0.000041
  0C   1px       -0.000406 -0.000222 -0.000582 -0.035005 -0.005286  0.093707
  0C   1py       -0.001175 -0.000405  0.000418  0.046678  0.031849  0.063290
  0C   3s        -0.009857 -0.012485 -0.004834 -0.107749 -0.173381  0.029379
  0C   2pz       -0.000001 -0.000002 -0.000001 -0.000004  0.000004  0.000005
  0C   2px       -0.000539 -0.002415 -0.000191 -0.005544  0.006731  0.013117
  0C   2py        0.004366  0.005567  0.005529  0.005716 -0.002383  0.011956
  0C   1dz2      -0.000553 -0.000345  0.000128  0.008671  0.009442 -0.001448
  0C   1dxz       0.000000  0.000000 -0.000000 -0.000008 -0.000008  0.000007
  0C   1dyz       0.000000  0.000000  0.000000  0.000003  0.000002 -0.000001
  0C   1dx2y2    -0.000591 -0.000271 -0.000025 -0.000078  0.001081  0.009597
  0C   1dxy       0.000852  0.000450 -0.000016  0.000158 -0.001156 -0.003106
  1C   1s        -0.009215  0.001099  0.000875  0.091278  0.053930 -0.120582
  1C   2s        -0.000163 -0.000475 -0.002945 -0.172916 -0.104786  0.235583
  1C   1pz       -0.000000 -0.000000 -0.000000  0.000003  0.000052  0.000022
  1C   1px       -0.000171 -0.000026  0.000140  0.022215  0.087993  0.029166
  1C   1py       -0.000132  0.000032  0.000786  0.055979 -0.023655 -0.036922
  1C   3s         0.002727  0.007844  0.020469 -0.112289 -0.072324  0.177622
  1C   2pz       -0.000000 -0.000000  0.000005 -0.000001  0.000010  0.000005
  1C   2px       -0.000401 -0.001922  0.005025  0.000747  0.015314  0.010148
  1C   2py       -0.000831 -0.004280 -0.011972  0.007854 -0.009427  0.004823
  1C   1dz2       0.000112 -0.000040 -0.000123  0.008811  0.004163 -0.008998
  1C   1dxz      -0.000000  0.000000  0.000000 -0.000008 -0.000007  0.000008
  1C   1dyz       0.000000 -0.000000 -0.000000  0.000003 -0.000003 -0.000005
  1C   1dx2y2    -0.000018  0.000005 -0.000123  0.000296 -0.006294 -0.002323
  1C   1dxy       0.000057  0.000017 -0.000231  0.000177 -0.005514 -0.002954
  2C   1s        -0.868100 -0.484448  0.001449  0.088431  0.084757  0.100893
  2C   2s        -0.030911 -0.019714 -0.002513 -0.167687 -0.164345 -0.197304
  2C   1pz       -0.000000 -0.000001 -0.000001 -0.000032  0.000004 -0.000026
  2C   1px       -0.000434 -0.001152 -0.001332 -0.058817 -0.015224 -0.026551
  2C   1py       -0.000633  0.000862  0.001119 -0.004636 -0.072117  0.069197
  2C   3s         0.022436  0.028747  0.001981 -0.104692 -0.123187 -0.144931
  2C   2pz        0.000002  0.000005 -0.000000 -0.000003  0.000003  0.000002
  2C   2px        0.003606  0.009505  0.000586 -0.006205  0.002635  0.006545
  2C   2py        0.001630 -0.001112  0.002852 -0.002125 -0.008544  0.009833
  2C   1dz2       0.000243  0.000861  0.000196  0.008501  0.006686  0.007443
  2C   1dxz      -0.000000 -0.000001 -0.000000 -0.000008 -0.000004 -0.000009
  2C   1dyz      -0.000000  0.000001  0.000000  0.000002 -0.000001  0.000006
  2C   1dx2y2     0.000188  0.000646 -0.000019 -0.000135  0.001656 -0.000738
  2C   1dxy      -0.000446  0.000960  0.000221  0.000033 -0.006309  0.006389
  3C   1s        -0.480110  0.864611  0.007463  0.091080 -0.026467  0.122070
  3C   2s        -0.015852  0.033051 -0.013296 -0.172773  0.051907 -0.238632
  3C   1pz       -0.000001 -0.000000 -0.000005 -0.000007  0.000059  0.000019
  3C   1px       -0.000961  0.000087 -0.008358 -0.028924  0.093582  0.023676
  3C   1py        0.000561  0.001332  0.002749 -0.053331 -0.042847 -0.038254
  3C   3s         0.004362 -0.037276 -0.005017 -0.107119  0.038645 -0.179783
  3C   2pz        0.000001 -0.000000 -0.000002  0.000000  0.000007  0.000005
  3C   2px        0.001313 -0.003634 -0.003852 -0.000863  0.009254  0.010074
  3C   2py       -0.001896 -0.009772 -0.002413 -0.004953 -0.007805  0.003970
  3C   1dz2      -0.000201 -0.000874  0.001209  0.008815 -0.002151  0.009114
  3C   1dxz       0.000000  0.000001 -0.000002 -0.000008  0.000005 -0.000008
  3C   1dyz      -0.000001 -0.000001  0.000000  0.000002  0.000003  0.000005
  3C   1dx2y2    -0.000443  0.000180 -0.000588 -0.000114  0.007302  0.002389
  3C   1dxy      -0.000767 -0.000876  0.000318 -0.000005  0.005059  0.003184
  4C   1s         0.067665 -0.088959  0.021107  0.100385 -0.125890  0.023737
  4C   2s         0.003402 -0.005051 -0.039712 -0.191256  0.246703 -0.046180
  4C   1pz       -0.000000  0.000001 -0.000008  0.000022  0.000020  0.000042
  4C   1px       -0.000809  0.001101 -0.008755  0.025895  0.036146  0.095427
  4C   1py        0.000122  0.000042  0.025087 -0.045517 -0.000221  0.065174
  4C   3s        -0.003086  0.016856 -0.019211 -0.112998  0.172381 -0.039093
  4C   2pz        0.000001 -0.000005 -0.000004  0.000009  0.000004  0.000005
  4C   2px        0.001154 -0.007056 -0.001652  0.012051  0.004626  0.013826
  4C   2py       -0.001759  0.005303  0.026612 -0.017068 -0.008663  0.012697
  4C   1dz2      -0.000339  0.000642  0.003458  0.008653 -0.007970  0.001504
  4C   1dxz       0.000001 -0.000001 -0.000002 -0.000008  0.000007 -0.000007
  4C   1dyz       0.000000 -0.000000  0.000003  0.000002 -0.000002  0.000000
  4C   1dx2y2     0.000588 -0.000912  0.003060 -0.000670 -0.000338 -0.009463
  4C   1dxy       0.000095 -0.000311  0.003706 -0.001054  0.001088  0.002848
  5C   1s        -0.003406  0.002482  0.004181  0.096740 -0.066959 -0.101122
  5C   2s         0.000177  0.000530 -0.008008 -0.183582  0.130788  0.197840
  5C   1pz       -0.000000  0.000000 -0.000001  0.000031  0.000019 -0.000025
  5C   1px       -0.000171  0.000031  0.000623  0.059026  0.006508 -0.022983
  5C   1py       -0.000022  0.000008  0.006442  0.010926 -0.096021  0.071191
  5C   3s         0.000238 -0.008388 -0.028161 -0.112962  0.097756  0.149678
  5C   2pz        0.000000  0.000003  0.000013 -0.000000  0.000010  0.000003
  5C   2px        0.000592  0.005046  0.020053  0.001051  0.012114  0.007756
  5C   2py       -0.000624  0.000467 -0.010617  0.004666 -0.022115  0.009987
  5C   1dz2       0.000128 -0.000058  0.000596  0.009358 -0.005259 -0.007539
  5C   1dxz      -0.000000  0.000000 -0.000000 -0.000009  0.000002  0.000009
  5C   1dyz       0.000000 -0.000000  0.000000  0.000003  0.000002 -0.000006
  5C   1dx2y2     0.000066 -0.000089  0.000418  0.000226 -0.002777  0.000708
  5C   1dxy      -0.000002  0.000000  0.000016 -0.000039  0.007100 -0.006607
  6C   1s        -0.000091  0.000127  0.117362  0.016209 -0.051510  0.002359
  6C   2s         0.000247 -0.000118 -0.224085 -0.031375  0.103865 -0.005104
  6C   1pz       -0.000000  0.000000  0.000023  0.000015 -0.000028  0.000013
  6C   1px       -0.000052  0.000068  0.065358  0.013174 -0.020899  0.020594
  6C   1py       -0.000058  0.000057  0.169313 -0.061623  0.124435 -0.015335
  6C   3s        -0.001341  0.001906 -0.065964 -0.033309  0.071999 -0.001878
  6C   2pz        0.000001 -0.000001 -0.000012  0.000006 -0.000002  0.000001
  6C   2px        0.001204 -0.000770 -0.026277  0.006614  0.003668  0.001883
  6C   2py       -0.000252  0.000753 -0.019848 -0.014059  0.028825  0.000973
  6C   1dz2       0.000141 -0.000140  0.015268  0.001693 -0.003508  0.000010
  6C   1dxz      -0.000000  0.000000 -0.000003 -0.000003  0.000006 -0.000002
  6C   1dyz       0.000000 -0.000000 -0.000005  0.000004 -0.000006  0.000001
  6C   1dx2y2     0.000025 -0.000040  0.017868 -0.001530  0.003280 -0.002360
  6C   1dxy       0.000074 -0.000003 -0.015974  0.005486 -0.008248  0.002385
  7O   1s        -0.000003  0.000003  0.193904 -0.022362  0.036899 -0.008572
  7O   2s        -0.000003  0.000002 -0.425748  0.050701 -0.085943  0.019853
  7O   1pz       -0.000000 -0.000000 -0.000016  0.000005 -0.000009  0.000006
  7O   1px        0.000008 -0.000038 -0.051912  0.009710 -0.013742  0.009412
  7O   1py        0.000035 -0.000037 -0.153810  0.006752  0.003926 -0.001901
  7O   3s         0.000372 -0.000135 -0.387960  0.047798 -0.079458  0.021501
  7O   2pz       -0.000000  0.000000 -0.000004  0.000001 -0.000003  0.000003
  7O   2px       -0.000125  0.000236 -0.013453  0.001487 -0.003034  0.005058
  7O   2py        0.000089 -0.000053 -0.051451  0.001284  0.008396 -0.001549
  7O   1dz2       0.000033  0.000003  0.003632  0.000183 -0.001060  0.000348
  7O   1dxz      -0.000000 -0.000000  0.000002 -0.000000  0.000000 -0.000000
  7O   1dyz       0.000000  0.000000 -0.000003  0.000001 -0.000001  0.000001
  7O   1dx2y2    -0.000005 -0.000002  0.009391  0.000007 -0.001551  0.000502
  7O   1dxy      -0.000001  0.000020 -0.006732  0.000772 -0.000749  0.000961
  8H   1s        -0.000032  0.000009 -0.027501 -0.009092  0.034302  0.004708
  8H   2s        -0.000482  0.000319  0.013549 -0.002586  0.006501  0.004033
  9H   1s         0.000105 -0.000025 -0.000378 -0.033268 -0.068622  0.011750
  9H   2s        -0.000710 -0.001016 -0.001345 -0.004285 -0.012146  0.001911
 10H   1s         0.001230  0.000547 -0.000365 -0.032476 -0.046808 -0.058887
 10H   2s        -0.002844 -0.000133  0.000008 -0.003340 -0.008668 -0.010308
 11H   1s         0.000002  0.000115 -0.000322 -0.033829 -0.029718  0.071387
 11H   2s        -0.000093  0.001078  0.001750 -0.003682 -0.005567  0.012970
 12H   1s        -0.000062 -0.000111 -0.002851 -0.037051  0.042621  0.060827
 12H   2s        -0.000301 -0.001157 -0.005703 -0.002352  0.006993  0.010711
 13H   1s         0.000751 -0.001100 -0.004569 -0.032923  0.017175 -0.069660
 13H   2s        -0.002127  0.001501 -0.004860 -0.001192  0.000701 -0.009455
                     12        13        14        15        16        17   
                  -0.64977  -0.61628  -0.57150  -0.52145  -0.48171  -0.45904
                   2.00000   2.00000   2.00000   2.00000   2.00000   2.00000
                  --------  --------  --------  --------  --------  --------
  0C   1s        -0.096880  0.025788  0.051982  0.023369 -0.042814  0.033859
  0C   2s         0.197024 -0.052566 -0.105614 -0.048988  0.086172 -0.068951
  0C   1pz       -0.000035 -0.000060  0.000020  0.000119 -0.000025  0.000058
  0C   1px       -0.056764 -0.146537  0.044707  0.167972  0.012721  0.140019
  0C   1py        0.023065 -0.126024  0.028960 -0.154178  0.191141  0.118185
  0C   3s         0.150931 -0.039587 -0.079867 -0.057769  0.114165 -0.099125
  0C   2pz       -0.000022 -0.000011  0.000015  0.000042 -0.000002  0.000017
  0C   2px       -0.030382 -0.030819  0.026248  0.061213  0.015368  0.044640
  0C   2py        0.034888 -0.038021 -0.000079 -0.053990  0.065145  0.045326
  0C   1dz2      -0.005003  0.001148  0.001802  0.002041 -0.002251  0.000760
  0C   1dxz       0.000004 -0.000006 -0.000001 -0.000001  0.000003  0.000001
  0C   1dyz      -0.000003  0.000001  0.000005  0.000002 -0.000007  0.000005
  0C   1dx2y2    -0.002365 -0.007384  0.003714  0.001566 -0.002592  0.005335
  0C   1dxy      -0.001453  0.004016  0.006248  0.001672 -0.011289  0.006376
  1C   1s         0.035755  0.071921 -0.067742 -0.018219  0.040623 -0.028042
  1C   2s        -0.072091 -0.146478  0.139181  0.036274 -0.082214  0.056389
  1C   1pz       -0.000080  0.000075  0.000044 -0.000026 -0.000079 -0.000094
  1C   1px       -0.127815  0.105907  0.108473 -0.083277 -0.131224 -0.111249
  1C   1py        0.057090 -0.097337  0.095821 -0.121533  0.035507  0.195658
  1C   3s        -0.035112 -0.105140  0.138111  0.031113 -0.112870  0.079660
  1C   2pz       -0.000015  0.000021  0.000022 -0.000002 -0.000020 -0.000033
  1C   2px       -0.027599  0.022817  0.051996 -0.016208 -0.030779 -0.039243
  1C   2py       -0.004139 -0.051301  0.041512 -0.041301  0.016223  0.068097
  1C   1dz2       0.001658  0.003269 -0.003175  0.000368  0.001282 -0.001735
  1C   1dxz       0.000002 -0.000003  0.000001 -0.000002  0.000004 -0.000003
  1C   1dyz       0.000004 -0.000003 -0.000000  0.000002 -0.000001  0.000003
  1C   1dx2y2     0.007531 -0.001842 -0.003196 -0.002197  0.007512 -0.006659
  1C   1dxy       0.003437 -0.006781  0.002128  0.004644 -0.005565  0.008114
  2C   1s        -0.001721 -0.098515 -0.036743 -0.005283  0.050932 -0.025725
  2C   2s         0.003876  0.199877  0.075967  0.009321 -0.103292  0.049309
  2C   1pz       -0.000041 -0.000043 -0.000018  0.000103  0.000071 -0.000035
  2C   1px       -0.028274 -0.066664 -0.076145  0.174810  0.095884 -0.122055
  2C   1py        0.153572  0.038338 -0.145556 -0.044034 -0.111577 -0.190457
  2C   3s         0.014765  0.153911  0.081767  0.003624 -0.143667  0.080674
  2C   2pz       -0.000008 -0.000030 -0.000010  0.000037  0.000017 -0.000009
  2C   2px       -0.002704 -0.050949 -0.029314  0.062685  0.026838 -0.032327
  2C   2py        0.038139  0.009773 -0.038793 -0.011274 -0.017533 -0.054784
  2C   1dz2      -0.000278 -0.004621 -0.001732  0.000849  0.002043 -0.002046
  2C   1dxz      -0.000003  0.000006  0.000003  0.000001 -0.000007  0.000008
  2C   1dyz       0.000004  0.000001 -0.000002  0.000001 -0.000004 -0.000001
  2C   1dx2y2    -0.002740  0.004456  0.001838  0.003172 -0.011207  0.010180
  2C   1dxy       0.008426  0.002779 -0.003682 -0.000127 -0.005721 -0.002942
  3C   1s         0.077961  0.066577 -0.033068  0.007553 -0.060562  0.027982
  3C   2s        -0.155692 -0.134703  0.070785 -0.014204  0.124319 -0.054584
  3C   1pz        0.000027 -0.000084 -0.000090 -0.000029 -0.000050 -0.000076
  3C   1px        0.042974 -0.121765 -0.175298  0.001897 -0.104546 -0.099797
  3C   1py       -0.022677  0.104263 -0.044038  0.180571 -0.049135  0.125898
  3C   3s        -0.132690 -0.115425  0.039850 -0.051689  0.160535 -0.101592
  3C   2pz        0.000005 -0.000023 -0.000031 -0.000013 -0.000030 -0.000031
  3C   2px        0.011107 -0.026257 -0.069176 -0.008164 -0.051456 -0.039977
  3C   2py        0.006836  0.052134 -0.042124  0.053654  0.008800  0.049544
  3C   1dz2       0.004128  0.003360 -0.001198  0.001683 -0.001940  0.001728
  3C   1dxz      -0.000002 -0.000004 -0.000001 -0.000003 -0.000004  0.000003
  3C   1dyz       0.000000 -0.000003 -0.000005 -0.000001  0.000003 -0.000001
  3C   1dx2y2     0.003300 -0.002705 -0.005262 -0.002471 -0.007701  0.006445
  3C   1dxy      -0.003014 -0.006362 -0.006180 -0.001473  0.009633 -0.004433
  4C   1s        -0.044963  0.030290  0.063039  0.016699  0.031928 -0.046391
  4C   2s         0.093147 -0.061368 -0.129348 -0.036232 -0.065328  0.096944
  4C   1pz        0.000097  0.000062  0.000064 -0.000033 -0.000026  0.000067
  4C   1px        0.141670  0.153544  0.071963 -0.032305  0.003614  0.159651
  4C   1py       -0.112776  0.135143 -0.149004  0.088665  0.165065  0.124904
  4C   3s         0.050356 -0.060047 -0.098964 -0.045889 -0.097045  0.111659
  4C   2pz        0.000017  0.000003 -0.000010 -0.000031  0.000001  0.000019
  4C   2px        0.019449  0.016215 -0.021718 -0.043552  0.003479  0.034992
  4C   2py       -0.040374  0.030386 -0.013827  0.042666  0.000677  0.001867
  4C   1dz2      -0.001229  0.000814  0.000773 -0.000248  0.000439  0.000279
  4C   1dxz       0.000002 -0.000004  0.000002  0.000002  0.000003 -0.000001
  4C   1dyz      -0.000005  0.000001 -0.000003 -0.000005  0.000007 -0.000001
  4C   1dx2y2    -0.001325 -0.005754  0.003525  0.000886  0.008933 -0.001933
  4C   1dxy      -0.008554  0.003024 -0.006414 -0.009986  0.009498 -0.002183
  5C   1s         0.056154 -0.094960  0.015878  0.031128 -0.029022  0.028579
  5C   2s        -0.112573  0.192248 -0.030084 -0.064897  0.054420 -0.061037
  5C   1pz        0.000036  0.000051  0.000019 -0.000100  0.000089 -0.000007
  5C   1px        0.034165  0.076649  0.083743 -0.180370  0.122112 -0.086067
  5C   1py       -0.106625 -0.050858  0.161708 -0.000135 -0.131653 -0.242632
  5C   3s        -0.090111  0.160782 -0.039880 -0.082033  0.117375 -0.038700
  5C   2pz        0.000010  0.000036  0.000017 -0.000032  0.000021 -0.000004
  5C   2px        0.004971  0.056452  0.040227 -0.061246  0.019226 -0.034831
  5C   2py       -0.044559 -0.026525  0.028807 -0.015440 -0.063239 -0.094081
  5C   1dz2       0.002770 -0.004617  0.000373  0.002078 -0.002275  0.000871
  5C   1dxz      -0.000005  0.000006 -0.000000 -0.000003  0.000006 -0.000008
  5C   1dyz       0.000001  0.000001 -0.000005 -0.000001  0.000004  0.000001
  5C   1dx2y2    -0.004349  0.004523 -0.002227 -0.002015  0.008740 -0.012372
  5C   1dxy       0.001602  0.003034 -0.009228 -0.003198  0.005897  0.004914
  6C   1s        -0.105986  0.000966 -0.088885 -0.046417  0.017468  0.031418
  6C   2s         0.218685 -0.003411  0.186680  0.098797 -0.041918 -0.071456
  6C   1pz       -0.000007  0.000043  0.000051  0.000107  0.000145 -0.000019
  6C   1px        0.030458  0.077674  0.111927  0.191325  0.257091 -0.002435
  6C   1py        0.159803 -0.019151  0.059010 -0.047149 -0.055292  0.121948
  6C   3s         0.187098  0.004436  0.196464  0.125351 -0.050969 -0.067312
  6C   2pz        0.000006  0.000012  0.000016  0.000032  0.000054  0.000004
  6C   2px        0.025851  0.024972  0.040476  0.064469  0.095818  0.018516
  6C   2py        0.061663  0.012317  0.048019  0.012316 -0.019073  0.026541
  6C   1dz2      -0.004949 -0.000333 -0.003139 -0.002653 -0.000827  0.001304
  6C   1dxz       0.000009 -0.000003  0.000007  0.000004 -0.000000 -0.000004
  6C   1dyz      -0.000004  0.000002  0.000001  0.000001  0.000002 -0.000003
  6C   1dx2y2     0.007242 -0.004423  0.009956  0.004217  0.000866 -0.006230
  6C   1dxy      -0.006146  0.004056  0.000599  0.002160  0.003350 -0.003099
  7O   1s         0.053919 -0.011307  0.048757  0.025210 -0.018110 -0.046984
  7O   2s        -0.127298  0.025421 -0.115060 -0.056952  0.039847  0.104659
  7O   1pz        0.000000  0.000020  0.000024  0.000067  0.000073 -0.000027
  7O   1px        0.012626  0.033683  0.056989  0.127414  0.116040 -0.068808
  7O   1py        0.044185 -0.019837  0.066876  0.034677 -0.118616 -0.187449
  7O   3s        -0.131377  0.042551 -0.137926 -0.084642  0.077179  0.193380
  7O   2pz        0.000002  0.000011  0.000012  0.000036  0.000039 -0.000013
  7O   2px        0.009816  0.018466  0.028616  0.067378  0.062075 -0.033307
  7O   2py        0.030702 -0.008099  0.038905  0.015227 -0.060199 -0.093526
  7O   1dz2      -0.002911  0.001002 -0.003699 -0.001902  0.002544  0.006036
  7O   1dxz       0.000001  0.000000  0.000002  0.000003  0.000003 -0.000003
  7O   1dyz       0.000000  0.000002  0.000002  0.000005  0.000005 -0.000002
  7O   1dx2y2    -0.003330  0.002312 -0.001681  0.002846  0.010351  0.005369
  7O   1dxy       0.002334  0.002766  0.005564  0.009694  0.007594 -0.005413
  8H   1s         0.103033  0.030233  0.131611  0.126360  0.111256 -0.027881
  8H   2s         0.031408  0.016304  0.062334  0.068117  0.087224 -0.028080
  9H   1s         0.095407 -0.028383 -0.047223 -0.137033  0.128336 -0.029693
  9H   2s         0.025795 -0.009646 -0.018494 -0.083866  0.088713 -0.017481
 10H   1s         0.007069  0.106371  0.073580 -0.080956 -0.101312  0.109714
 10H   2s         0.003588  0.035033  0.034757 -0.050426 -0.064991  0.082903
 11H   1s        -0.027793 -0.077910  0.120928 -0.056215 -0.055942  0.109212
 11H   2s        -0.006861 -0.025976  0.054514 -0.039798 -0.036082  0.079753
 12H   1s        -0.032100  0.109006  0.034460 -0.119689  0.097142 -0.098180
 12H   2s        -0.007235  0.036446  0.020767 -0.068528  0.077652 -0.072956
 13H   1s        -0.057808 -0.072939  0.076233 -0.091738  0.107153 -0.072738
 13H   2s        -0.018602 -0.017770  0.020440 -0.060497  0.070112 -0.031398
                     18        19        20        21        22        23   
                  -0.43793  -0.43129  -0.42067  -0.40159  -0.36601  -0.36014
                   2.00000   2.00000   2.00000   2.00000   2.00000   2.00000
                  --------  --------  --------  --------  --------  --------
  0C   1s        -0.024951 -0.002556  0.001044  0.000000 -0.005530 -0.000000
  0C   2s         0.054238  0.006680 -0.003576 -0.000000  0.019066  0.000001
  0C   1pz        0.000147  0.000008  0.000011  0.094761  0.000130  0.218334
  0C   1px        0.232930 -0.017726  0.062279 -0.000053  0.178769 -0.000111
  0C   1py       -0.107694 -0.109670  0.145825  0.000012 -0.199483  0.000042
  0C   3s         0.086628  0.010120 -0.013252 -0.000001 -0.012754 -0.000004
  0C   2pz        0.000042  0.000014  0.000013  0.054536  0.000034  0.128064
  0C   2px        0.066372  0.023765  0.038053 -0.000032  0.049475 -0.000068
  0C   2py       -0.033273 -0.008094  0.053666  0.000009 -0.045695  0.000027
  0C   1dz2       0.001544  0.000732 -0.000802  0.000004  0.003604  0.000007
  0C   1dxz       0.000001 -0.000008  0.000002  0.002889 -0.000002  0.005285
  0C   1dyz       0.000002  0.000002 -0.000003 -0.004002  0.000015 -0.006752
  0C   1dx2y2     0.005391 -0.010993  0.000072 -0.000001  0.009296 -0.000001
  0C   1dxy       0.001451  0.006979 -0.004513  0.000003  0.021989  0.000004
  1C   1s        -0.003014  0.013354  0.013256 -0.000000 -0.005303 -0.000000
  1C   2s         0.009169 -0.030933 -0.023739  0.000000  0.009000  0.000001
  1C   1pz       -0.000096 -0.000021 -0.000060  0.107461 -0.000136  0.206692
  1C   1px       -0.218889  0.033425 -0.093935 -0.000058 -0.192857 -0.000123
  1C   1py       -0.149054  0.238769  0.056560  0.000019  0.163770  0.000030
  1C   3s         0.033992 -0.044020 -0.077513  0.000003  0.019426  0.000001
  1C   2pz       -0.000013  0.000009 -0.000026  0.055984 -0.000050  0.123546
  1C   2px       -0.041573  0.033544 -0.035048 -0.000031 -0.071229 -0.000071
  1C   2py       -0.058439  0.056918  0.044379  0.000009  0.053251  0.000020
  1C   1dz2       0.002057 -0.001985  0.000808  0.000001 -0.000947 -0.000002
  1C   1dxz       0.000005  0.000001  0.000001 -0.000880  0.000000 -0.004790
  1C   1dyz       0.000002  0.000006 -0.000000 -0.005425  0.000008 -0.007066
  1C   1dx2y2     0.012065  0.001940  0.002001  0.000001  0.003330  0.000005
  1C   1dxy      -0.000969  0.011197 -0.001807  0.000003  0.014264  0.000003
  2C   1s         0.000642 -0.022976 -0.000833 -0.000000 -0.002107  0.000000
  2C   2s        -0.001926  0.049926 -0.000366  0.000000  0.001531 -0.000001
  2C   1pz        0.000060  0.000155  0.000034  0.106243 -0.000120  0.198069
  2C   1px        0.095291  0.283936  0.007334 -0.000059 -0.151178 -0.000117
  2C   1py       -0.045655  0.004240 -0.170487  0.000022  0.210333  0.000028
  2C   3s         0.029296  0.099876  0.009080  0.000001  0.003386  0.000005
  2C   2pz        0.000036  0.000049  0.000018  0.053580 -0.000039  0.122631
  2C   2px        0.047174  0.089722  0.023584 -0.000030 -0.041197 -0.000065
  2C   2py       -0.059745  0.003777 -0.032452  0.000009  0.089838  0.000020
  2C   1dz2       0.000576  0.002033 -0.000413  0.000005 -0.001672  0.000007
  2C   1dxz      -0.000005 -0.000004  0.000002  0.005339  0.000005  0.008192
  2C   1dyz       0.000003 -0.000003 -0.000003 -0.000791  0.000009  0.002402
  2C   1dx2y2    -0.005573 -0.005935  0.001798 -0.000003  0.010746 -0.000004
  2C   1dxy       0.007116 -0.004803 -0.005550  0.000001  0.013444  0.000000
  3C   1s         0.007569 -0.010021  0.001856  0.000000  0.007049 -0.000000
  3C   2s        -0.015396  0.022549  0.001565 -0.000000 -0.018874  0.000001
  3C   1pz       -0.000113 -0.000015 -0.000066  0.145342  0.000121  0.154265
  3C   1px       -0.231553  0.044212 -0.084343 -0.000078  0.161420 -0.000078
  3C   1py       -0.092448  0.237111  0.129580  0.000022 -0.208929  0.000029
  3C   3s        -0.085908  0.045177 -0.077917  0.000002  0.017134 -0.000008
  3C   2pz       -0.000021  0.000025 -0.000055  0.086322  0.000034  0.080753
  3C   2px       -0.057442  0.063371 -0.095902 -0.000043  0.050707 -0.000048
  3C   2py       -0.066169  0.055236  0.028255  0.000016 -0.039890  0.000010
  3C   1dz2      -0.000857  0.001739  0.001713  0.000005 -0.001814 -0.000002
  3C   1dxz      -0.000006 -0.000001 -0.000000  0.006307  0.000001 -0.000144
  3C   1dyz      -0.000004 -0.000005 -0.000001  0.003936  0.000006  0.008546
  3C   1dx2y2    -0.012381 -0.001503  0.000898 -0.000004  0.001476 -0.000001
  3C   1dxy      -0.002542 -0.010086 -0.003371 -0.000001  0.010948 -0.000005
  4C   1s         0.034988  0.000600  0.002557 -0.000000 -0.014845 -0.000000
  4C   2s        -0.071839  0.000161 -0.007676  0.000001  0.033191 -0.000001
  4C   1pz        0.000145  0.000003  0.000009  0.229318 -0.000071  0.095413
  4C   1px        0.226524 -0.022766  0.040896 -0.000128 -0.100061 -0.000061
  4C   1py       -0.114973 -0.094104  0.101127  0.000037  0.081186  0.000010
  4C   3s        -0.133033 -0.023552  0.028115  0.000000  0.019407  0.000003
  4C   2pz        0.000008  0.000018 -0.000038  0.118706  0.000006  0.064258
  4C   2px        0.007701  0.038396 -0.077873 -0.000060 -0.001426 -0.000048
  4C   2py       -0.022628  0.021178 -0.026610  0.000018 -0.052727  0.000010
  4C   1dz2      -0.000121  0.000249 -0.000856  0.000002  0.001134 -0.000009
  4C   1dxz      -0.000003  0.000006 -0.000002  0.001425 -0.000000 -0.006439
  4C   1dyz      -0.000002 -0.000001 -0.000000 -0.002334  0.000010  0.010993
  4C   1dx2y2    -0.006005  0.010330 -0.005425 -0.000000  0.006099  0.000002
  4C   1dxy      -0.001022 -0.004862  0.001786  0.000001  0.015620 -0.000007
  5C   1s        -0.009400  0.023518 -0.017885  0.000000  0.009327  0.000000
  5C   2s         0.017456 -0.050941  0.034060 -0.000001 -0.025720 -0.000000
  5C   1pz        0.000047  0.000158  0.000046  0.149094  0.000117  0.165654
  5C   1px        0.083470  0.282570  0.043607 -0.000083  0.163300 -0.000084
  5C   1py       -0.005380 -0.013868 -0.122108  0.000025 -0.177257  0.000032
  5C   3s         0.030166 -0.108108  0.133619 -0.000003  0.022015  0.000002
  5C   2pz        0.000035  0.000053  0.000001  0.085157  0.000022  0.098847
  5C   2px        0.044656  0.099071 -0.012903 -0.000048  0.017175 -0.000051
  5C   2py       -0.058521  0.013315 -0.042806  0.000014 -0.081213  0.000017
  5C   1dz2      -0.001211 -0.002018 -0.001345 -0.000004 -0.002268 -0.000008
  5C   1dxz       0.000006  0.000005  0.000002 -0.005703  0.000006 -0.007651
  5C   1dyz      -0.000004  0.000003  0.000002 -0.004508  0.000005  0.002792
  5C   1dx2y2     0.006669  0.006514  0.002560  0.000004  0.009579  0.000005
  5C   1dxy      -0.008786  0.005355  0.004317  0.000002  0.008107 -0.000003
  6C   1s        -0.005001  0.006841 -0.022069 -0.000003  0.023213  0.000002
  6C   2s         0.006312 -0.016939  0.059058  0.000006 -0.048410 -0.000005
  6C   1pz       -0.000106 -0.000037 -0.000063  0.302345  0.000059 -0.204364
  6C   1px       -0.167518 -0.051851 -0.189704 -0.000157  0.073520  0.000109
  6C   1py        0.134840  0.062143 -0.259717  0.000044 -0.152115 -0.000028
  6C   3s         0.059286  0.000689 -0.029756  0.000008 -0.139815 -0.000005
  6C   2pz       -0.000044 -0.000023  0.000006  0.168933  0.000038 -0.126924
  6C   2px       -0.062942 -0.036287  0.000593 -0.000091  0.052381  0.000070
  6C   2py        0.078335  0.018812  0.009900  0.000018 -0.066435 -0.000011
  6C   1dz2       0.001184  0.000591  0.000145 -0.000009 -0.000914  0.000001
  6C   1dxz      -0.000002  0.000000 -0.000009 -0.010389 -0.000002  0.004573
  6C   1dyz       0.000000 -0.000001  0.000002 -0.010456 -0.000001  0.019030
  6C   1dx2y2    -0.001770  0.000899 -0.014946  0.000006 -0.004771 -0.000004
  6C   1dxy       0.001204 -0.001530  0.007645  0.000004 -0.000586 -0.000010
  7O   1s        -0.011147 -0.014473  0.063417 -0.000002  0.010133  0.000000
  7O   2s         0.021178  0.032555 -0.144136  0.000005 -0.021560 -0.000001
  7O   1pz       -0.000095 -0.000030  0.000035  0.337116  0.000084 -0.328463
  7O   1px       -0.173208 -0.057775  0.092895 -0.000188  0.149146  0.000188
  7O   1py       -0.012149 -0.052472  0.431273  0.000007  0.052832 -0.000018
  7O   3s         0.065804  0.055613 -0.222501  0.000011 -0.044919 -0.000002
  7O   2pz       -0.000051 -0.000015  0.000020  0.202110  0.000049 -0.208553
  7O   2px       -0.093574 -0.028118  0.050526 -0.000112  0.086717  0.000120
  7O   2py        0.000342 -0.027669  0.245336  0.000006  0.029343 -0.000012
  7O   1dz2       0.001452  0.001587 -0.010090  0.000004 -0.002051 -0.000004
  7O   1dxz      -0.000003 -0.000001  0.000000  0.006890  0.000003 -0.006744
  7O   1dyz      -0.000006 -0.000002  0.000002  0.022457  0.000005 -0.019266
  7O   1dx2y2    -0.004829 -0.000230 -0.016972 -0.000005  0.002527  0.000005
  7O   1dxy      -0.010569 -0.003480  0.006363 -0.000012  0.007743  0.000010
  8H   1s        -0.069991 -0.022982 -0.116904  0.000002  0.001798 -0.000000
  8H   2s        -0.059619 -0.004913 -0.128535  0.000004  0.012222 -0.000003
  9H   1s        -0.108895 -0.046684  0.052158 -0.000002 -0.192666 -0.000001
  9H   2s        -0.102702 -0.043043  0.049167 -0.000002 -0.204283 -0.000002
 10H   1s        -0.056679 -0.149615  0.006914  0.000000  0.100726  0.000006
 10H   2s        -0.045777 -0.137958  0.014534 -0.000000  0.105545  0.000007
 11H   1s        -0.136358  0.129558 -0.007833  0.000002  0.059796 -0.000006
 11H   2s        -0.119766  0.119654 -0.008555  0.000002  0.060483 -0.000006
 12H   1s         0.059596  0.149007  0.036849 -0.000001  0.098444  0.000006
 12H   2s         0.039673  0.134258  0.024361  0.000001  0.115581  0.000006
 13H   1s         0.100803 -0.129377 -0.054399  0.000001  0.077988 -0.000005
[...]
CI-vector output               ... /Users/lailaal-madhagi/Desktop/Testing_XAS_Analysis_code/Benzaldehyde//Results_dir_Benzaldehyde_geom_element_O_2019-11-04_23-17-29//GTE1_Benzaldehyde_geom_2019-11-04_23-17-46//TDDFT_O-edge.cis
Tamm-Dancoff approximation     ... operative
CIS-Integral strategy          ... AO-integrals
Integral handling              ... AO integral Direct
Max. core memory used          ... 512 MB
Reference state                ... RHF
Generation of triplets         ... off
Follow IRoot                   ... off
Number of operators            ... 1
Orbital ranges used for CIS calculation:
 Operator 0:  Orbitals   0...  0  to  28...123
XAS localization array:
 Operator 0:  Orbitals  -1... -1
-------------------
XC-INTEGRATION GRID
-------------------

General Integration Accuracy     IntAcc      ...  3.670
Radial Grid Type                 RadialGrid  ... Gauss-Chebyshev
Angular Grid (max. acc.)         AngularGrid ... Lebedev-50
Angular grid pruning method      GridPruning ... 3 (G Style)
Weight generation scheme         WeightScheme... Becke
Basis function cutoff            BFCut       ...    1.0000e-11
Integration weight cutoff        WCut        ...    1.0000e-14
Grids for H and He will be reduced by one unit

# of grid points (after initial pruning)     ...   8288 (   0.0 sec)
# of grid points (after weights+screening)   ...   7796 (   0.0 sec)
nearest neighbour list constructed           ...    0.0 sec
Grid point re-assignment to atoms done       ...    0.0 sec
Grid point division into batches done        ...    0.0 sec
Reduced shell lists constructed in    0.0 sec

Total number of grid points                  ...     7796
Total number of batches                      ...      128
Average number of points per batch           ...       60
Average number of grid points per atom       ...      557
Average number of shells per batch           ...    46.09 (76.81%)
Average number of basis functions per batch  ...    97.42 (78.56%)
Average number of large shells per batch     ...    36.95 (80.17%)
Average number of large basis fcns per batch ...    79.18 (81.28%)
Maximum spatial batch extension              ...  17.59, 15.84, 33.72 au
Average spatial batch extension              ...   4.40,  4.20,  7.08 au


---------------
TD-DFT XC SETUP
---------------

DFT calculation                         ... on
Name of the grid file                   ... /Users/lailaal-madhagi/Desktop/Testing_XAS_Analysis_code/Benzaldehyde//Results_dir_Benzaldehyde_geom_element_O_2019-11-04_23-17-29//GTE1_Benzaldehyde_geom_2019-11-04_23-17-46//TDDFT_O-edge.grid_cis.tmp
Exchange functional (SCF)               ... B88
Exchange functional (TD-DFT)            ... B88
   X-Alpha parameter    XAlpha (SCF)    ...  0.666667
   X-Alpha parameter    XAlpha (TD-DFT) ...  0.666667
   Becke's b parameter  XBeta (SCF)     ...  0.004200
   Becke's b parameter  XBeta (TD-DFT)  ...  0.004200
Correlation functional (SCF)            ... LYP
Correlation functional (TD-DFT)         ... LYP
 LDA part of GGA corr.  LDAOpt (SCF)    ... VWN-5
 LDA part of GGA corr.  LDAOpt (TD-DFT) ... VWN-5
Hybrid DFT                              ... on
   Exchange mixing (SCF)                ...  0.200
   Exchange mixing (TD-DFT)             ...  0.200
   GGA exch. scaling(SCF)               ...  0.720
   GGA exch. scaling (TD-DFT)           ...  0.720
   GGA corr. scaling (SCF)              ...  0.810
   GGA corr. scaling (TD-DFT)           ...  0.810

Building densities             ... done
Calculating rho(r) on the grid ... done
Building xc-kernel on the grid ... done
                    *** TD-DFT CALCULATION INITIALIZED ***


------------------------
DAVIDSON-DIAGONALIZATION
------------------------

Dimension of the eigenvalue problem            ...     96
Number of roots to be determined               ...     20
Maximum size of the expansion space            ...     96
Maximum number of iterations                   ...    100
Convergence tolerance for the residual         ...    2.500e-07
Convergence tolerance for the energies         ...    2.500e-07
Orthogonality tolerance                        ...    1.000e-14
Level Shift                                    ...    0.000e+00
Constructing the preconditioner                ... o.k.
Building the initial guess                     ... o.k.
Number of trial vectors determined             ...     96


                       ****Iteration    0****

   Memory handling for direct AO based CIS:
   Memory per vector needed      ...     1 MB
   Memory needed                 ...    28 MB
   Memory available              ...   512 MB
   Number of vectors per batch   ...   512
   Number of batches             ...     1
   Time for densities:     0.011
   Using LibInt in JK Direct
   Time for J+K (Direct):   128.182
   Time for XC-Integration:     2.936
   Time for Sigma-Completion:     0.142
   Size of expansion space: 60
   Lowest Energy          :    18.997707322248
   Maximum Energy change  :    19.639890090017 (vector 19)
   Maximum residual norm  :     0.000201087868

                       ****Iteration    1****
   Time for densities:     0.004
   Using LibInt in JK Direct
   Time for J+K (Direct):    28.819
   Time for XC-Integration:     0.964
   Time for Sigma-Completion:     0.044
   Size of expansion space: 80
   Lowest Energy          :    18.997609942222
   Maximum Energy change  :     0.000139377372 (vector 18)
   Maximum residual norm  :     0.000000047134

      *** CONVERGENCE OF RESIDUAL NORM REACHED ***

Storing the converged CI vectors               ... /Users/lailaal-madhagi/Desktop/Testing_XAS_Analysis_code/Benzaldehyde//Results_dir_Benzaldehyde_geom_element_O_2019-11-04_23-17-29//GTE1_Benzaldehyde_geom_2019-11-04_23-17-46//TDDFT_O-edge.cis1

                 *** DAVIDSON DONE ***

Total time for solving the CIS problem:   161.377sec

------------------------------------
TD-DFT/TDA EXCITED STATES (SINGLETS)
------------------------------------

the weight of the individual excitations are printed if larger than 1.0e-02

STATE  1:  E=  18.997610 au    516.951 eV  4169493.4 cm**-1
     0a ->  28a  :     0.918940 (c= -0.95861376)
     0a ->  30a  :     0.077541 (c= -0.27846243)

STATE  2:  E=  19.098819 au    519.705 eV  4191706.2 cm**-1
     0a ->  29a  :     0.999832 (c=  0.99991584)

STATE  3:  E=  19.130901 au    520.578 eV  4198747.4 cm**-1
     0a ->  28a  :     0.079995 (c= -0.28283472)
     0a ->  30a  :     0.908431 (c=  0.95311657)
     0a ->  35a  :     0.011120 (c=  0.10545196)

STATE  4:  E=  19.202882 au    522.537 eV  4214545.3 cm**-1
     0a ->  31a  :     0.942597 (c= -0.97087411)
     0a ->  32a  :     0.034329 (c= -0.18527954)
     0a ->  33a  :     0.015101 (c= -0.12288743)

STATE  5:  E=  19.216335 au    522.903 eV  4217498.0 cm**-1
     0a ->  31a  :     0.039043 (c= -0.19759244)
     0a ->  32a  :     0.886374 (c=  0.94147455)
     0a ->  33a  :     0.026920 (c=  0.16407176)
     0a ->  34a  :     0.034600 (c= -0.18601136)
     0a ->  37a  :     0.010597 (c=  0.10294170)

STATE  6:  E=  19.259449 au    524.076 eV  4226960.6 cm**-1
     0a ->  32a  :     0.043298 (c=  0.20808120)
     0a ->  33a  :     0.824342 (c= -0.90793270)
     0a ->  36a  :     0.107916 (c=  0.32850607)
     0a ->  37a  :     0.010507 (c= -0.10250228)

STATE  7:  E=  19.265777 au    524.248 eV  4228349.4 cm**-1
     0a ->  32a  :     0.032054 (c= -0.17903716)
     0a ->  34a  :     0.906096 (c= -0.95189094)
     0a ->  36a  :     0.026817 (c=  0.16375874)
     0a ->  37a  :     0.024340 (c=  0.15601215)

STATE  8:  E=  19.267492 au    524.295 eV  4228725.7 cm**-1
     0a ->  30a  :     0.013262 (c=  0.11516152)
     0a ->  35a  :     0.986256 (c= -0.99310437)

STATE  9:  E=  19.276927 au    524.552 eV  4230796.4 cm**-1
     0a ->  33a  :     0.119232 (c=  0.34530037)
     0a ->  34a  :     0.012695 (c=  0.11267254)
     0a ->  36a  :     0.783696 (c=  0.88526623)
     0a ->  37a  :     0.051776 (c= -0.22754274)
     0a ->  38a  :     0.027175 (c= -0.16484870)

STATE 10:  E=  19.298008 au    525.126 eV  4235423.3 cm**-1
     0a ->  34a  :     0.041725 (c= -0.20426761)
     0a ->  36a  :     0.054854 (c= -0.23420876)
     0a ->  37a  :     0.897001 (c= -0.94710158)

STATE 11:  E=  19.343496 au    526.363 eV  4245406.6 cm**-1
     0a ->  33a  :     0.011594 (c= -0.10767423)
     0a ->  36a  :     0.018825 (c= -0.13720299)
     0a ->  38a  :     0.933982 (c= -0.96642727)

STATE 12:  E=  19.365833 au    526.971 eV  4250309.1 cm**-1
     0a ->  39a  :     0.946954 (c=  0.97311572)
     0a ->  43a  :     0.034659 (c=  0.18616921)

STATE 13:  E=  19.405931 au    528.062 eV  4259109.6 cm**-1
     0a ->  40a  :     0.848339 (c=  0.92105334)
     0a ->  41a  :     0.128985 (c= -0.35914469)
     0a ->  42a  :     0.012299 (c= -0.11090206)

STATE 14:  E=  19.417425 au    528.375 eV  4261632.1 cm**-1
     0a ->  38a  :     0.015043 (c=  0.12265142)
     0a ->  40a  :     0.136323 (c=  0.36921937)
     0a ->  41a  :     0.822076 (c=  0.90668394)
     0a ->  42a  :     0.012428 (c=  0.11148251)

STATE 15:  E=  19.436293 au    528.888 eV  4265773.2 cm**-1
     0a ->  39a  :     0.015558 (c=  0.12473009)
     0a ->  41a  :     0.029114 (c= -0.17062930)
     0a ->  42a  :     0.913240 (c=  0.95563593)
     0a ->  43a  :     0.030251 (c= -0.17392720)

STATE 16:  E=  19.459035 au    529.507 eV  4270764.5 cm**-1
     0a ->  39a  :     0.028352 (c= -0.16838118)
     0a ->  42a  :     0.044362 (c=  0.21062291)
     0a ->  43a  :     0.911866 (c=  0.95491650)

STATE 17:  E=  19.591834 au    533.121 eV  4299910.5 cm**-1
     0a ->  45a  :     0.855156 (c= -0.92474661)
     0a ->  48a  :     0.135841 (c=  0.36856547)

STATE 18:  E=  19.596428 au    533.246 eV  4300918.8 cm**-1
     0a ->  44a  :     0.961947 (c=  0.98078894)

STATE 19:  E=  19.626750 au    534.071 eV  4307573.7 cm**-1
     0a ->  46a  :     0.621056 (c= -0.78807127)
     0a ->  47a  :     0.287121 (c= -0.53583692)
     0a ->  49a  :     0.014027 (c=  0.11843722)
     0a ->  50a  :     0.019404 (c=  0.13929901)
     0a ->  59a  :     0.030506 (c=  0.17466043)

STATE 20:  E=  19.639855 au    534.428 eV  4310450.0 cm**-1
     0a ->  46a  :     0.214647 (c=  0.46330061)
     0a ->  47a  :     0.596478 (c= -0.77232011)
     0a ->  49a  :     0.123009 (c= -0.35072635)
     0a ->  50a  :     0.049410 (c= -0.22228364)


-----------------------------
TD-DFT/TDA-EXCITATION SPECTRA
-----------------------------

Center of mass = ( -0.8564, -1.5500,  0.0018)
Calculating the Dipole integrals                  ... done
Transforming integrals                            ... done
Calculating the Linear Momentum integrals         ... done
Transforming integrals                            ... done
Calculating angular momentum integrals            ... done
Transforming integrals                            ... done

-----------------------------------------------------------------------------
         ABSORPTION SPECTRUM VIA TRANSITION ELECTRIC DIPOLE MOMENTS
-----------------------------------------------------------------------------
State   Energy    Wavelength  fosc         T2        TX        TY        TZ  
        (cm-1)      (nm)                 (au**2)    (au)      (au)      (au) 
-----------------------------------------------------------------------------
   1 4169493.4      2.4   0.032458778   0.00256   0.00003  -0.00001  -0.05062
   2 4191706.2      2.4   0.000050449   0.00000   0.00000  -0.00000  -0.00199
   3 4198747.4      2.4   0.005787899   0.00045  -0.00001   0.00000   0.02130
   4 4214545.3      2.4   0.001894833   0.00015  -0.01181   0.00294  -0.00001
   5 4217498.0      2.4   0.001551782   0.00012   0.01005   0.00449   0.00000
   6 4226960.6      2.4   0.001608331   0.00013  -0.01085  -0.00273  -0.00001
   7 4228349.4      2.4   0.000506579   0.00004  -0.00142   0.00612   0.00000
   8 4228725.7      2.4   0.000840259   0.00007   0.00000   0.00000  -0.00809
   9 4230796.4      2.4   0.001839614   0.00014  -0.00120   0.01190  -0.00000
  10 4235423.3      2.4   0.000081867   0.00001   0.00247   0.00053   0.00000
  11 4245406.6      2.4   0.008512861   0.00066   0.01307   0.02212   0.00000
  12 4250309.1      2.4   0.004830518   0.00037  -0.01566   0.01135  -0.00001
  13 4259109.6      2.3   0.000586336   0.00005   0.00289   0.00608   0.00000
  14 4261632.1      2.3   0.000023567   0.00000   0.00129   0.00041   0.00000
  15 4265773.2      2.3   0.003822421   0.00029   0.01053  -0.01357   0.00001
  16 4270764.5      2.3   0.002259691   0.00017  -0.00993   0.00869  -0.00001
  17 4299910.5      2.3   0.000587065   0.00004  -0.00001   0.00000   0.00670
  18 4300918.8      2.3   0.007506314   0.00057  -0.02356  -0.00443  -0.00001
  19 4307573.7      2.3   0.010098685   0.00077   0.00092   0.02777  -0.00000
  20 4310450.0      2.3   0.002276390   0.00017   0.00857   0.01002   0.00001

-----------------------------------------------------------------------------
         ABSORPTION SPECTRUM VIA TRANSITION VELOCITY DIPOLE MOMENTS
-----------------------------------------------------------------------------
State   Energy    Wavelength   fosc        P2         PX        PY        PZ  
        (cm-1)      (nm)                 (au**2)     (au)      (au)      (au) 
-----------------------------------------------------------------------------
   1 4169493.4      2.4   0.031694467   0.90318  -0.00052   0.00009   0.95036
   2 4191706.2      2.4   0.000052829   0.00151  -0.00002   0.00000   0.03890
   3 4198747.4      2.4   0.005723426   0.16424   0.00022  -0.00007  -0.40527
   4 4214545.3      2.4   0.001714780   0.04939   0.21568  -0.05363   0.00012
   5 4217498.0      2.4   0.001360066   0.03920  -0.17698  -0.08878  -0.00006
   6 4226960.6      2.4   0.001462265   0.04224   0.19875   0.05236   0.00011
   7 4228349.4      2.4   0.000537705   0.01554   0.02628  -0.12185  -0.00008
   8 4228725.7      2.4   0.000851138   0.02460  -0.00009  -0.00003   0.15684
   9 4230796.4      2.4   0.001845142   0.05335   0.00919  -0.23080   0.00004
  10 4235423.3      2.4   0.000117396   0.00340  -0.05715  -0.01151  -0.00004
  11 4245406.6      2.4   0.009059143   0.26285  -0.26304  -0.44007  -0.00009
  12 4250309.1      2.4   0.004611521   0.13396   0.30405  -0.20374   0.00020
  13 4259109.6      2.3   0.000551643   0.01606  -0.06615  -0.10809  -0.00002
  14 4261632.1      2.3   0.000049263   0.00143  -0.01626  -0.03421  -0.00001
  15 4265773.2      2.3   0.003550674   0.10352  -0.20720   0.24614  -0.00015
  16 4270764.5      2.3   0.002291691   0.06689   0.19106  -0.17431   0.00013
  17 4299910.5      2.3   0.000873727   0.02568   0.00013  -0.00000  -0.16024
  18 4300918.8      2.3   0.007522779   0.22113   0.46093   0.09312   0.00026
  19 4307573.7      2.3   0.009368645   0.27581  -0.01646  -0.52492   0.00005
  20 4310450.0      2.3   0.002179074   0.06420  -0.16705  -0.19050  -0.00016

-------------------------------------------------------------------
                             CD SPECTRUM
-------------------------------------------------------------------
State  Energy     Wavelength     R         MX        MY        MZ   
       (cm-1)       (nm)     (1e40*cgs)   (au)      (au)      (au)  
-------------------------------------------------------------------
   1 4169493.4      2.4     -0.00021   2.41896   0.79005   0.00125
   2 4191706.2      2.4      0.00000   0.09902   0.03224   0.00004
   3 4198747.4      2.4     -0.00002  -1.03161  -0.33692  -0.00049
   4 4214545.3      2.4     -0.00001   0.00027  -0.00007  -0.50469
   5 4217498.0      2.4     -0.00002  -0.00023   0.00009   0.52496
   6 4226960.6      2.4     -0.00001   0.00032  -0.00007  -0.54961
   7 4228349.4      2.4      0.00002  -0.00030  -0.00009   0.03441
   8 4228725.7      2.4      0.00002   0.39926   0.13039   0.00025
   9 4230796.4      2.4     -0.00002  -0.00007   0.00003   0.16805
  10 4235423.3      2.4      0.00001  -0.00010   0.00002   0.15412
  11 4245406.6      2.4     -0.00009  -0.00057   0.00014   1.03530
  12 4250309.1      2.4      0.00000   0.00034  -0.00008  -0.60442
  13 4259109.6      2.3      0.00001  -0.00014   0.00004   0.25738
  14 4261632.1      2.3     -0.00000  -0.00005   0.00000   0.07041
  15 4265773.2      2.3      0.00000  -0.00020   0.00004   0.32330
  16 4270764.5      2.3     -0.00000   0.00018  -0.00005  -0.34141
  17 4299910.5      2.3      0.00003  -0.40753  -0.13325  -0.00033
  18 4300918.8      2.3     -0.00001   0.00074  -0.00015  -1.25150
  19 4307573.7      2.3      0.00001  -0.00029   0.00006   0.47816
  20 4310450.0      2.3     -0.00014  -0.00055   0.00000   0.58359

Total run time:      161.698 sec

           *** ORCA-CIS/TD-DFT FINISHED WITHOUT ERROR ***

-----------------------
CIS/TD-DFT TOTAL ENERGY
-----------------------

    E(SCF)  =   -345.359591847 Eh
    DE(CIS) =     18.997609942 Eh (Root  1)
    ----------------------------- ---------
    E(tot)  =   -326.361981905 Eh


-------------------------   --------------------
FINAL SINGLE POINT ENERGY      -326.361981905002
-------------------------   --------------------


                            ***************************************
                            *     ORCA property calculations      *
                            ***************************************

                                    ---------------------
                                    Active property flags
                                    ---------------------
   (+) Dipole Moment


------------------------------------------------------------------------------
                       ORCA ELECTRIC PROPERTIES CALCULATION
------------------------------------------------------------------------------

Dipole Moment Calculation                       ... on
Quadrupole Moment Calculation                   ... off
Polarizability Calculation                      ... off
GBWName                                         ... /Users/lailaal-madhagi/Desktop/Testing_XAS_Analysis_code/Benzaldehyde//Results_dir_Benzaldehyde_geom_element_O_2019-11-04_23-17-29//GTE1_Benzaldehyde_geom_2019-11-04_23-17-46//TDDFT_O-edge.gbw
Electron density file                           ... /Users/lailaal-madhagi/Desktop/Testing_XAS_Analysis_code/Benzaldehyde//Results_dir_Benzaldehyde_geom_element_O_2019-11-04_23-17-29//GTE1_Benzaldehyde_geom_2019-11-04_23-17-46//TDDFT_O-edge.scfp.tmp
The origin for moment calculation is the CENTER OF MASS  = (-0.856422, -1.550014  0.001846)

-------------
DIPOLE MOMENT
-------------
                                X             Y             Z
Electronic contribution:      0.81462      -3.01892       0.00096
Nuclear contribution   :     -0.94228       4.30783      -0.00119
                        -----------------------------------------
Total Dipole Moment    :     -0.12767       1.28891      -0.00023
                        -----------------------------------------
Magnitude (a.u.)       :      1.29521
Magnitude (Debye)      :      3.29217



--------------------
Rotational spectrum 
--------------------
 
Rotational constants in cm-1:     0.174193     0.051954     0.040019 
Rotational constants in MHz :  5222.176372  1557.555266  1199.727179 

 Dipole components along the rotational axes: 
x,y,z [a.u.] :     1.220697     0.432989     0.000037 
x,y,z [Debye]:     3.102764     1.100571     0.000095 

 

Timings for individual modules:

Sum of individual times         ...      201.352 sec (=   3.356 min)
GTO integral calculation        ...        1.035 sec (=   0.017 min)   0.5 %
SCF iterations                  ...       37.981 sec (=   0.633 min)  18.9 %
CIS module                      ...      162.337 sec (=   2.706 min)  80.6 %
                             ****ORCA TERMINATED NORMALLY****
TOTAL RUN TIME: 0 days 0 hours 3 minutes 21 seconds 534 msec
