
                                 *****************
                                 * O   R   C   A *
                                 *****************

           --- An Ab Initio, DFT and Semiempirical electronic structure package ---

                  #######################################################
                  #                        -***-                        #
                  #          Department of theory and spectroscopy      #
                  #               Directorship: Frank Neese             #
                  #        Max Planck Institute fuer Kohlenforschung    #
                  #                Kaiser Wilhelm Platz 1               #
                  #                 D-45470 Muelheim/Ruhr               #
                  #                      Germany                        #
                  #                                                     #
                  #                  All rights reserved                #
                  #                        -***-                        #
                  #######################################################


                         Program Version 4.1.0  - RELEASE  -


 With contributions from (in alphabetic order):
   Daniel Aravena         : Magnetic Properties
   Michael Atanasov       : Ab Initio Ligand Field Theory
   Alexander A. Auer      : GIAO ZORA
   Ute Becker             : Parallelization
   Giovanni Bistoni       : ED, Open-shell LED
   Martin Brehm           : Molecular dynamics
   Dmytro Bykov           : SCF Hessian
   Vijay G. Chilkuri      : MRCI spin determinant printing
   Dipayan Datta          : RHF DLPNO-CCSD density
   Achintya Kumar Dutta   : EOM-CC, STEOM-CC
   Dmitry Ganyushin       : Spin-Orbit,Spin-Spin,Magnetic field MRCI
   Miquel Garcia          : C-PCM Hessian
   Yang Guo               : DLPNO-NEVPT2, CIM, IAO-localization
   Andreas Hansen         : Spin unrestricted coupled pair/coupled cluster methods
   Benjamin Helmich-Paris : CASSCF linear response (MC-RPA)
   Lee Huntington         : MR-EOM, pCC
   Robert Izsak           : Overlap fitted RIJCOSX, COSX-SCS-MP3, EOM
   Christian Kollmar      : KDIIS, OOCD, Brueckner-CCSD(T), CCSD density
   Simone Kossmann        : Meta GGA functionals, TD-DFT gradient, OOMP2, MP2 Hessian
   Martin Krupicka        : AUTO-CI
   Lucas Lang             : DCDCAS
   Dagmar Lenk            : GEPOL surface, SMD
   Dimitrios Liakos       : Extrapolation schemes; parallel MDCI
   Dimitrios Manganas     : ROCIS; embedding schemes
   Dimitrios Pantazis     : SARC Basis sets
   Taras Petrenko         : DFT Hessian,TD-DFT gradient, ASA, ECA, R-Raman, ABS, FL, XAS/XES, NRVS
   Peter Pinski           : DLPNO-MP2, DLPNO-MP2 Gradient
   Christoph Reimann      : Effective Core Potentials
   Marius Retegan         : Local ZFS, SOC
   Christoph Riplinger    : Optimizer, TS searches, QM/MM, DLPNO-CCSD(T), (RO)-DLPNO pert. Triples
   Tobias Risthaus        : Range-separated hybrids, TD-DFT gradient, RPA, STAB
   Michael Roemelt        : Restricted open shell CIS
   Masaaki Saitow         : Open-shell DLPNO
   Barbara Sandhoefer     : DKH picture change effects
   Avijit Sen             : IP-ROCIS
   Kantharuban Sivalingam : CASSCF convergence, NEVPT2, FIC-MRCI
   Bernardo de Souza      : ESD, SOC TD-DFT
   Georgi Stoychev        : AutoAux, RI-MP2 NMR
   Willem Van den Heuvel  : Paramagnetic NMR
   Boris Wezisla          : Elementary symmetry handling
   Frank Wennmohs         : Technical directorship


 We gratefully acknowledge several colleagues who have allowed us to
 interface, adapt or use parts of their codes:
   Stefan Grimme, W. Hujo, H. Kruse,             : VdW corrections, initial TS optimization,
                  C. Bannwarth                     DFT functionals, gCP, sTDA/sTD-DF
   Ed Valeev                                     : LibInt (2-el integral package), F12 methods
   Garnet Chan, S. Sharma, J. Yang, R. Olivares  : DMRG
   Ulf Ekstrom                                   : XCFun DFT Library
   Mihaly Kallay                                 : mrcc  (arbitrary order and MRCC methods)
   Andreas Klamt, Michael Diedenhofen            : otool_cosmo (COSMO solvation model)
   Jiri Pittner, Ondrej Demel                    : Mk-CCSD
   Frank Weinhold                                : gennbo (NPA and NBO analysis)
   Christopher J. Cramer and Donald G. Truhlar   : smd solvation model
   Lars Goerigk                                  : TD-DFT with DH, B97 family of functionals
   V. Asgeirsson, H. Jonsson                     : NEB implementation
   FAccTs GmbH                                   : IRC, NEB, NEB-TS, Multilevel


 Your calculation uses the libint2 library for the computation of 2-el integrals
 For citations please refer to: http://libint.valeyev.net

 This ORCA versions uses:
   CBLAS   interface :  Fast vector & matrix operations
   LAPACKE interface :  Fast linear algebra routines
   SCALAPACK package :  Parallel linear algebra routines




***************************************
The coordinates will be read from file: /Users/lailaal-madhagi/Desktop/Testing_XAS_Analysis_code/DimethylCarbonate//Results_dir_DimethylCarbonate_geom_element_O_2019-11-10_19-14-55//GTE1_DimethylCarbonate_geom_2019-11-10_19-15-10//opt.xyz
***************************************


----- Orbital basis set information -----
Your calculation utilizes the basis: 6-31G*
   H-He, Li-Ne : W. J. Hehre, R. Ditchfield and J.A. Pople, J. Chem. Phys. 56, 2257 (1972).
                 Note: He and Ne are unpublished basis sets taken from the Gaussian program.
                 Note: Li and B from J. D. Dill and J. A. Pople, J. Chem. Phys. 62, 2921 (1975).
   Na - Ar     : M. M. Francl, W. J. Pietro, W. J. Hehre, J. S. Binkley, M. S. Gordon, 
                 D. J. DeFrees and J. A. Pople, J. Chem. Phys. 77, 3654 (1982).
   K - Zn      : V. A. Rassolov, J. A. Pople, M. A. Ratner, and T. L. Windus, J. Chem. Phys. 109, 1223 (1998).

================================================================================
                                        WARNINGS
                       Please study these warnings very carefully!
================================================================================


INFO   : the flag for use of LIBINT has been found!

================================================================================
                                       INPUT FILE
================================================================================
NAME = /Users/lailaal-madhagi/Desktop/Testing_XAS_Analysis_code/DimethylCarbonate//Results_dir_DimethylCarbonate_geom_element_O_2019-11-10_19-14-55//GTE1_DimethylCarbonate_geom_2019-11-10_19-15-10//freq.inp
|  1> ! B3LYP 6-31G* TIGHTSCF Grid3 FinalGrid5 Freq 
|  2> !NormalPrint 
|  3> %output 
|  4> Print[P_Basis] 2 
|  5> Print[P_MOS] 1 
|  6> end 
|  7> *xyzfile 0 1 /Users/lailaal-madhagi/Desktop/Testing_XAS_Analysis_code/DimethylCarbonate//Results_dir_DimethylCarbonate_geom_element_O_2019-11-10_19-14-55//GTE1_DimethylCarbonate_geom_2019-11-10_19-15-10//opt.xyz                           ****END OF INPUT****
================================================================================

                       ****************************
                       * Single Point Calculation *
                       ****************************

---------------------------------
CARTESIAN COORDINATES (ANGSTROEM)
---------------------------------
  O     -2.731822   -0.267601    0.176920
  C     -1.723124    0.616395    0.218787
  O     -0.589008   -0.038428   -0.074029
  O     -1.819313    1.797215    0.475748
  C     -4.022154    0.287466    0.470921
  H     -4.719209   -0.548090    0.395835
  H     -4.280713    1.068175   -0.250070
  H     -4.039938    0.712219    1.478661
  C      0.589460    0.780635   -0.068549
  H      1.409517    0.107464   -0.321214
  H      0.747666    1.223946    0.918728
  H      0.507858    1.580562   -0.810019

----------------------------
CARTESIAN COORDINATES (A.U.)
----------------------------
  NO LB      ZA    FRAG     MASS         X           Y           Z
   0 O     8.0000    0    15.999   -5.162396   -0.505692    0.334331
   1 C     6.0000    0    12.011   -3.256233    1.164817    0.413448
   2 O     8.0000    0    15.999   -1.113064   -0.072618   -0.139894
   3 O     8.0000    0    15.999   -3.438003    3.396244    0.899034
   4 C     6.0000    0    12.011   -7.600770    0.543232    0.889912
   5 H     1.0000    0     1.008   -8.918012   -1.035739    0.748020
   6 H     1.0000    0     1.008   -8.089375    2.018558   -0.472564
   7 H     1.0000    0     1.008   -7.634376    1.345899    2.794264
   8 C     6.0000    0    12.011    1.113918    1.475187   -0.129539
   9 H     1.0000    0     1.008    2.663600    0.203078   -0.607007
  10 H     1.0000    0     1.008    1.412884    2.312924    1.736144
  11 H     1.0000    0     1.008    0.959713    2.986830   -1.530714

--------------------------------
INTERNAL COORDINATES (ANGSTROEM)
--------------------------------
 O      0   0   0     0.000000000000     0.00000000     0.00000000
 C      1   0   0     1.341891103530     0.00000000     0.00000000
 O      2   1   0     1.341921734822   107.87996537     0.00000000
 O      2   1   3     1.212277763469   126.06079261   180.00837053
 C      1   2   3     1.435093207796   114.49932122   179.99953101
 H      5   1   2     1.090722753352   105.32008268   180.00870053
 H      5   1   2     1.093703205829   110.70770447    60.54176002
 H      5   1   2     1.093741682052   110.70652704   299.48736726
 C      3   2   1     1.435158970316   114.49767703   180.02653973
 H      9   3   2     1.090638065325   105.32398517   179.98350650
 H      9   3   2     1.093741034572   110.70403304    60.50429648
 H      9   3   2     1.093763909841   110.70408863   299.45766341

---------------------------
INTERNAL COORDINATES (A.U.)
---------------------------
 O      0   0   0     0.000000000000     0.00000000     0.00000000
 C      1   0   0     2.535806687217     0.00000000     0.00000000
 O      2   1   0     2.535864571971   107.87996537     0.00000000
 O      2   1   3     2.290872971198   126.06079261   180.00837053
 C      1   2   3     2.711933139385   114.49932122   179.99953101
 H      5   1   2     2.061167291872   105.32008268   180.00870053
 H      5   1   2     2.066799530809   110.70770447    60.54176002
 H      5   1   2     2.066872240332   110.70652704   299.48736726
 C      3   2   1     2.712057412538   114.49767703   180.02653973
 H      9   3   2     2.061007254695   105.32398517   179.98350650
 H      9   3   2     2.066871016773   110.70403304    60.50429648
 H      9   3   2     2.066914244767   110.70408863   299.45766341

---------------------
BASIS SET INFORMATION
---------------------
There are 3 groups of distinct atoms

 Group   1 Type O   : 10s4p1d contracted to 3s2p1d pattern {631/31/1}
 Group   2 Type C   : 10s4p1d contracted to 3s2p1d pattern {631/31/1}
 Group   3 Type H   : 4s contracted to 2s pattern {31}

Atom   0O    basis set group =>   1
Atom   1C    basis set group =>   2
Atom   2O    basis set group =>   1
Atom   3O    basis set group =>   1
Atom   4C    basis set group =>   2
Atom   5H    basis set group =>   3
Atom   6H    basis set group =>   3
Atom   7H    basis set group =>   3
Atom   8C    basis set group =>   2
Atom   9H    basis set group =>   3
Atom  10H    basis set group =>   3
Atom  11H    basis set group =>   3

-------------------------
BASIS SET IN INPUT FORMAT
-------------------------

 # Basis set for element : H 
 NewGTO H 
 S 3 
   1      18.7311370000      0.0334945995
   2       2.8253937000      0.2347269467
   3       0.6401217000      0.8137573184
 S 1 
   1       0.1612778000      1.0000000000
  end;

 # Basis set for element : C 
 NewGTO C 
 S 6 
   1    3047.5249000000      0.0018347002
   2     457.3695100000      0.0140373012
   3     103.9486900000      0.0688426061
   4      29.2101550000      0.2321844206
   5       9.2866630000      0.4679413416
   6       3.1639270000      0.3623120322
 S 3 
   1       7.8682724000     -0.1193324086
   2       1.8812885000     -0.1608542116
   3       0.5442493000      1.1434564826
 P 3 
   1       7.8682724000      0.0689990956
   2       1.8812885000      0.3164239798
   3       0.5442493000      0.7443082524
 S 1 
   1       0.1687144000      1.0000000000
 P 1 
   1       0.1687144000      1.0000000000
 D 1 
   1       0.8000000000      1.0000000000
  end;

 # Basis set for element : O 
 NewGTO O 
 S 6 
   1    5484.6717000000      0.0018310998
   2     825.2349500000      0.0139500985
   3     188.0469600000      0.0684450927
   4      52.9645000000      0.2327142753
   5      16.8975700000      0.4701929501
   6       5.7996353000      0.3585208619
 S 3 
   1      15.5396160000     -0.1107775038
   2       3.5999336000     -0.1480263051
   3       1.0137618000      1.1307670390
 P 3 
   1      15.5396160000      0.0708742995
   2       3.5999336000      0.3397527978
   3       1.0137618000      0.7271585953
 S 1 
   1       0.2700058000      1.0000000000
 P 1 
   1       0.2700058000      1.0000000000
 D 1 
   1       0.8000000000      1.0000000000
  end;

------------------------------------------------------------------------------
                           ORCA GTO INTEGRAL CALCULATION
------------------------------------------------------------------------------

                         BASIS SET STATISTICS AND STARTUP INFO

 # of primitive gaussian shells          ...  114
 # of primitive gaussian functions       ...  186
 # of contracted shells                  ...   48
 # of contracted basis functions         ...   96
 Highest angular momentum                ...    2
 Maximum contraction depth               ...    6
 Integral package used                   ... LIBINT
 Integral threshhold            Thresh   ...  2.500e-11
 Primitive cut-off              TCut     ...  2.500e-12


------------------------------ INTEGRAL EVALUATION ----------------------------


 * One electron integrals 
 Pre-screening matrix                    ... done
 Shell pair data                         ... done (   0.000 sec)

-------------------------------------------------------------------------------
                                 ORCA SCF
-------------------------------------------------------------------------------

------------
SCF SETTINGS
------------
Hamiltonian:
 Density Functional     Method          .... DFT(GTOs)
 Exchange Functional    Exchange        .... B88
   X-Alpha parameter    XAlpha          ....  0.666667
   Becke's b parameter  XBeta           ....  0.004200
 Correlation Functional Correlation     .... LYP
 LDA part of GGA corr.  LDAOpt          .... VWN-5
 Gradients option       PostSCFGGA      .... off
 Hybrid DFT is turned on
   Fraction HF Exchange ScalHFX         ....  0.200000
   Scaling of DF-GGA-X  ScalDFX         ....  0.720000
   Scaling of DF-GGA-C  ScalDFC         ....  0.810000
   Scaling of DF-LDA-C  ScalLDAC        ....  1.000000
   Perturbative correction              ....  0.000000
   Density functional embedding theory  .... OFF
   NL short-range parameter             ....  4.800000


General Settings:
 Integral files         IntName         .... /Users/lailaal-madhagi/Desktop/Testing_XAS_Analysis_code/DimethylCarbonate//Results_dir_DimethylCarbonate_geom_element_O_2019-11-10_19-14-55//GTE1_DimethylCarbonate_geom_2019-11-10_19-15-10//freq
 Hartree-Fock type      HFTyp           .... RHF
 Total Charge           Charge          ....    0
 Multiplicity           Mult            ....    1
 Number of Electrons    NEL             ....   48
 Basis Dimension        Dim             ....   96
 Nuclear Repulsion      ENuc            ....    251.4782254101 Eh

Convergence Acceleration:
 DIIS                   CNVDIIS         .... on
   Start iteration      DIISMaxIt       ....    12
   Startup error        DIISStart       ....  0.200000
   # of expansion vecs  DIISMaxEq       ....     5
   Bias factor          DIISBfac        ....   1.050
   Max. coefficient     DIISMaxC        ....  10.000
 Newton-Raphson         CNVNR           .... off
 SOSCF                  CNVSOSCF        .... on
   Start iteration      SOSCFMaxIt      ....   150
   Startup grad/error   SOSCFStart      ....  0.003300
 Level Shifting         CNVShift        .... on
   Level shift para.    LevelShift      ....    0.2500
   Turn off err/grad.   ShiftErr        ....    0.0010
 Zerner damping         CNVZerner       .... off
 Static damping         CNVDamp         .... on
   Fraction old density DampFac         ....    0.7000
   Max. Damping (<1)    DampMax         ....    0.9800
   Min. Damping (>=0)   DampMin         ....    0.0000
   Turn off err/grad.   DampErr         ....    0.1000
 Fernandez-Rico         CNVRico         .... off

SCF Procedure:
 Maximum # iterations   MaxIter         ....   125
 SCF integral mode      SCFMode         .... Direct
   Integral package                     .... LIBINT
 Reset frequency        DirectResetFreq ....    20
 Integral Threshold     Thresh          ....  2.500e-11 Eh
 Primitive CutOff       TCut            ....  2.500e-12 Eh

Convergence Tolerance:
 Convergence Check Mode ConvCheckMode   .... Total+1el-Energy
 Convergence forced     ConvForced      .... 0
 Energy Change          TolE            ....  1.000e-08 Eh
 1-El. energy change                    ....  1.000e-05 Eh
 Orbital Gradient       TolG            ....  1.000e-05
 Orbital Rotation angle TolX            ....  1.000e-05
 DIIS Error             TolErr          ....  5.000e-07


Diagonalization of the overlap matrix:
Smallest eigenvalue                        ... 8.442e-03
Time for diagonalization                   ...    0.001 sec
Threshold for overlap eigenvalues          ... 1.000e-08
Number of eigenvalues below threshold      ... 0
Time for construction of square roots      ...    0.001 sec
Total time needed                          ...    0.002 sec

-------------------
DFT GRID GENERATION
-------------------

General Integration Accuracy     IntAcc      ...  4.340
Radial Grid Type                 RadialGrid  ... Gauss-Chebyshev
Angular Grid (max. acc.)         AngularGrid ... Lebedev-194
Angular grid pruning method      GridPruning ... 3 (G Style)
Weight generation scheme         WeightScheme... Becke
Basis function cutoff            BFCut       ...    1.0000e-11
Integration weight cutoff        WCut        ...    1.0000e-14
Grids for H and He will be reduced by one unit

# of grid points (after initial pruning)     ...  29076 (   0.0 sec)
# of grid points (after weights+screening)   ...  27448 (   0.0 sec)
nearest neighbour list constructed           ...    0.0 sec
Grid point re-assignment to atoms done       ...    0.0 sec
Grid point division into batches done        ...    0.0 sec
Reduced shell lists constructed in    0.1 sec

Total number of grid points                  ...    27448
Total number of batches                      ...      434
Average number of points per batch           ...       63
Average number of grid points per atom       ...     2287
Average number of shells per batch           ...    33.83 (70.49%)
Average number of basis functions per batch  ...    70.17 (73.09%)
Average number of large shells per batch     ...    26.70 (78.90%)
Average number of large basis fcns per batch ...    55.84 (79.59%)
Maximum spatial batch extension              ...  21.91, 22.67, 19.49 au
Average spatial batch extension              ...   3.26,  3.57,  3.43 au

Time for grid setup =    0.175 sec

------------------------------
INITIAL GUESS: MODEL POTENTIAL
------------------------------
Loading Hartree-Fock densities                     ... done
Calculating cut-offs                               ... done
Setting up the integral package                    ... done
Initializing the effective Hamiltonian             ... done
Starting the Coulomb interaction                   ... done (   0.0 sec)
Reading the grid                                   ... done
Mapping shells                                     ... done
Starting the XC term evaluation                    ... done (   0.1 sec)
  promolecular density results
     # of electrons  =     47.997487987
     EX              =    -41.798176661
     EC              =     -1.657056018
     EX+EC           =    -43.455232679
Transforming the Hamiltonian                       ... done (   0.0 sec)
Diagonalizing the Hamiltonian                      ... done (   0.0 sec)
Back transforming the eigenvectors                 ... done (   0.0 sec)
Now organizing SCF variables                       ... done
                      ------------------
                      INITIAL GUESS DONE (   0.4 sec)
                      ------------------
--------------
SCF ITERATIONS
--------------
               ***  Starting incremental Fock matrix formation  ***

                         ----------------------------
                         !        ITERATION     0   !
                         ----------------------------
   Total Energy        :    -343.230161953617 Eh
   Energy Change       :    -343.230161953617 Eh
   MAX-DP              :       0.104931164417
   RMS-DP              :       0.003267907508
   Actual Damping      :       0.7000
   Actual Level Shift  :       0.2500 Eh
   Int. Num. El.       :    48.00022384 (UP=   24.00011192 DN=   24.00011192)
   Exchange            :   -34.25760305
   Correlation         :    -1.97064025


                         ----------------------------
                         !        ITERATION     1   !
                         ----------------------------
   Total Energy        :    -343.323462323738 Eh
   Energy Change       :      -0.093300370120 Eh
   MAX-DP              :       0.059678711399
   RMS-DP              :       0.001975496247
   Actual Damping      :       0.7000
   Actual Level Shift  :       0.2500 Eh
   Int. Num. El.       :    48.00028439 (UP=   24.00014219 DN=   24.00014219)
   Exchange            :   -33.98048713
   Correlation         :    -1.96281532

                               ***Turning on DIIS***

                         ----------------------------
                         !        ITERATION     2   !
                         ----------------------------
   Total Energy        :    -343.355550518166 Eh
   Energy Change       :      -0.032088194429 Eh
   MAX-DP              :       0.060678323479
   RMS-DP              :       0.002862437384
   Actual Damping      :       0.0000
   Actual Level Shift  :       0.2500 Eh
   Int. Num. El.       :    48.00031966 (UP=   24.00015983 DN=   24.00015983)
   Exchange            :   -33.81723146
   Correlation         :    -1.95776089
   DIIS-Error          :       0.030511393812


                         ----------------------------
                         !        ITERATION     3   !
                         ----------------------------
   Total Energy        :    -343.413664587233 Eh
   Energy Change       :      -0.058114069066 Eh
   MAX-DP              :       0.038100134987
   RMS-DP              :       0.001288737787
   Actual Damping      :       0.0000
   Actual Level Shift  :       0.2500 Eh
   Int. Num. El.       :    48.00036883 (UP=   24.00018441 DN=   24.00018441)
   Exchange            :   -33.60295289
   Correlation         :    -1.95029123
   DIIS-Error          :       0.052106055971
   DIIS coefficients:
      0.60820   0.39180


                         ----------------------------
                         !        ITERATION     4   !
                         ----------------------------
   Total Energy        :    -343.422885077003 Eh
   Energy Change       :      -0.009220489771 Eh
   MAX-DP              :       0.007934692757
   RMS-DP              :       0.000457448332
   Actual Damping      :       0.0000
   Actual Level Shift  :       0.2500 Eh
   Int. Num. El.       :    48.00035041 (UP=   24.00017521 DN=   24.00017521)
   Exchange            :   -33.70127684
   Correlation         :    -1.95342157
   DIIS-Error          :       0.013473345793
   DIIS coefficients:
      0.24966   0.10985   0.64050


                         ----------------------------
                         !        ITERATION     5   !
                         ----------------------------
   Total Energy        :    -343.423588722701 Eh
   Energy Change       :      -0.000703645698 Eh
   MAX-DP              :       0.002946216336
   RMS-DP              :       0.000123061635
   Actual Damping      :       0.0000
   Actual Level Shift  :       0.2500 Eh
   Int. Num. El.       :    48.00034719 (UP=   24.00017360 DN=   24.00017360)
   Exchange            :   -33.71986813
   Correlation         :    -1.95433453
   DIIS-Error          :       0.003683571315
   DIIS coefficients:
      0.06263   0.02520   0.15856   0.75360

                      *** Initiating the SOSCF procedure ***
                           *** Shutting down DIIS ***
                      *** Re-Reading the Fockian *** 
                      *** Removing any level shift *** 

                         ----------------------------
                         !        ITERATION     6   !
                         ----------------------------
   Total Energy        :    -343.423619275729 Eh
   Energy Change       :      -0.000030553028 Eh
   MAX-DP              :       0.000650095632
   RMS-DP              :       0.000038479899
   Orbital gradient    :       0.000294197948
   Orbital Rotation    :       0.000294197948
   Actual Damping      :       0.0000
   Int. Num. El.       :    48.00034650 (UP=   24.00017325 DN=   24.00017325)
   Exchange            :   -33.72109734
   Correlation         :    -1.95439159

               *** Restarting incremental Fock matrix formation ***

                         ----------------------------
                         !        ITERATION     7   !
                         ----------------------------
   Total Energy        :    -343.423625506371 Eh
   Energy Change       :      -0.000006230642 Eh
   MAX-DP              :       0.000581793176
   RMS-DP              :       0.000021600550
   Orbital gradient    :       0.000136077883
   Orbital Rotation    :       0.000393033753
   Actual Damping      :       0.0000
   Int. Num. El.       :    48.00034737 (UP=   24.00017369 DN=   24.00017369)
   Exchange            :   -33.72114413
   Correlation         :    -1.95436766


                         ----------------------------
                         !        ITERATION     8   !
                         ----------------------------
   Total Energy        :    -343.423625210775 Eh
   Energy Change       :       0.000000295596 Eh
   MAX-DP              :       0.000433811537
   RMS-DP              :       0.000011452320
   Orbital gradient    :       0.000252541706
   Orbital Rotation    :       0.000270374340
   Actual Damping      :       0.0000
   Int. Num. El.       :    48.00034736 (UP=   24.00017368 DN=   24.00017368)
   Exchange            :   -33.72086593
   Correlation         :    -1.95437740


                         ----------------------------
                         !        ITERATION     9   !
                         ----------------------------
   Total Energy        :    -343.423625874382 Eh
   Energy Change       :      -0.000000663607 Eh
   MAX-DP              :       0.000094026129
   RMS-DP              :       0.000005199082
   Orbital gradient    :       0.000046377441
   Orbital Rotation    :       0.000080940672
   Actual Damping      :       0.0000
   Int. Num. El.       :    48.00034740 (UP=   24.00017370 DN=   24.00017370)
   Exchange            :   -33.72111025
   Correlation         :    -1.95437601


                         ----------------------------
                         !        ITERATION    10   !
                         ----------------------------
   Total Energy        :    -343.423625837405 Eh
   Energy Change       :       0.000000036977 Eh
   MAX-DP              :       0.000066531696
   RMS-DP              :       0.000003214556
   Orbital gradient    :       0.000059759861
   Orbital Rotation    :       0.000042557069
   Actual Damping      :       0.0000
   Int. Num. El.       :    48.00034747 (UP=   24.00017374 DN=   24.00017374)
   Exchange            :   -33.72109898
   Correlation         :    -1.95437083


                         ----------------------------
                         !        ITERATION    11   !
                         ----------------------------
   Total Energy        :    -343.423625901620 Eh
   Energy Change       :      -0.000000064215 Eh
   MAX-DP              :       0.000014509829
   RMS-DP              :       0.000000690338
   Orbital gradient    :       0.000005654827
   Orbital Rotation    :       0.000009638806
   Actual Damping      :       0.0000
   Int. Num. El.       :    48.00034744 (UP=   24.00017372 DN=   24.00017372)
   Exchange            :   -33.72105885
   Correlation         :    -1.95437274


                         ----------------------------
                         !        ITERATION    12   !
                         ----------------------------
   Total Energy        :    -343.423625901346 Eh
   Energy Change       :       0.000000000274 Eh
   MAX-DP              :       0.000007571511
   RMS-DP              :       0.000000387418
   Orbital gradient    :       0.000007051821
   Orbital Rotation    :       0.000005542195
   Actual Damping      :       0.0000
   Int. Num. El.       :    48.00034743 (UP=   24.00017371 DN=   24.00017371)
   Exchange            :   -33.72110867
   Correlation         :    -1.95437454

                  ***Gradient check signals convergence***
              ***Rediagonalizing the Fockian in SOSCF/NRSCF***

               *****************************************************
               *                     SUCCESS                       *
               *           SCF CONVERGED AFTER  13 CYCLES          *
               *****************************************************

Setting up the final grid:

General Integration Accuracy     IntAcc      ...  5.010
Radial Grid Type                 RadialGrid  ... Gauss-Chebyshev
Angular Grid (max. acc.)         AngularGrid ... Lebedev-434
Angular grid pruning method      GridPruning ... 3 (G Style)
Weight generation scheme         WeightScheme... Becke
Basis function cutoff            BFCut       ...    1.0000e-11
Integration weight cutoff        WCut        ...    1.0000e-14
Grids for H and He will be reduced by one unit

# of grid points (after initial pruning)     ... 104772 (   0.0 sec)
# of grid points (after weights+screening)   ...  98179 (   0.1 sec)
nearest neighbour list constructed           ...    0.0 sec
Grid point re-assignment to atoms done       ...    0.0 sec
Grid point division into batches done        ...    0.5 sec
Reduced shell lists constructed in    0.8 sec

Total number of grid points                  ...    98179
Total number of batches                      ...     1540
Average number of points per batch           ...       63
Average number of grid points per atom       ...     8182
Average number of shells per batch           ...    31.21 (65.01%)
Average number of basis functions per batch  ...    64.43 (67.11%)
Average number of large shells per batch     ...    23.87 (76.48%)
Average number of large basis fcns per batch ...    49.83 (77.34%)
Maximum spatial batch extension              ...  21.52, 23.28, 20.32 au
Average spatial batch extension              ...   2.15,  2.24,  2.26 au

Final grid set up in    1.0 sec
Final integration                            ... done (   0.5 sec)
Change in XC energy                          ...    -0.000141110
Integrated number of electrons               ...    47.999998269
Previous integrated no of electrons          ...    48.000347431

----------------
TOTAL SCF ENERGY
----------------

Total Energy       :         -343.42376701 Eh           -9345.03579 eV

Components:
Nuclear Repulsion  :          251.47822541 Eh            6843.07041 eV
Electronic Energy  :         -594.90199242 Eh          -16188.10620 eV
One Electron Energy:         -967.45991469 Eh          -26325.92266 eV
Two Electron Energy:          372.55792227 Eh           10137.81646 eV

Virial components:
Potential Energy   :         -684.82988272 Eh          -18635.16850 eV
Kinetic Energy     :          341.40611571 Eh            9290.13271 eV
Virial Ratio       :            2.00590983


DFT components:
N(Alpha)           :       23.999999134593 electrons
N(Beta)            :       23.999999134593 electrons
N(Total)           :       47.999998269186 electrons
E(X)               :      -33.721218712806 Eh       
E(C)               :       -1.954377951150 Eh       
E(XC)              :      -35.675596663956 Eh       
DFET-embed. en.    :        0.000000000000 Eh       

---------------
SCF CONVERGENCE
---------------

  Last Energy change         ...   -8.1923e-10  Tolerance :   1.0000e-08
  Last MAX-Density change    ...    1.0968e-06  Tolerance :   1.0000e-07
  Last RMS-Density change    ...    5.4625e-08  Tolerance :   5.0000e-09
  Last Orbital Gradient      ...    3.9431e-07  Tolerance :   1.0000e-05
  Last Orbital Rotation      ...    4.7966e-07  Tolerance :   1.0000e-05

             **** THE GBW FILE WAS UPDATED (/Users/lailaal-madhagi/Desktop/Testing_XAS_Analysis_code/DimethylCarbonate//Results_dir_DimethylCarbonate_geom_element_O_2019-11-10_19-14-55//GTE1_DimethylCarbonate_geom_2019-11-10_19-15-10//freq.gbw) ****
             **** DENSITY FILE WAS UPDATED (/Users/lailaal-madhagi/Desktop/Testing_XAS_Analysis_code/DimethylCarbonate//Results_dir_DimethylCarbonate_geom_element_O_2019-11-10_19-14-55//GTE1_DimethylCarbonate_geom_2019-11-10_19-15-10//freq.scfp.tmp) ****
             **** ENERGY FILE WAS UPDATED (/Users/lailaal-madhagi/Desktop/Testing_XAS_Analysis_code/DimethylCarbonate//Results_dir_DimethylCarbonate_geom_element_O_2019-11-10_19-14-55//GTE1_DimethylCarbonate_geom_2019-11-10_19-15-10//freq.en.tmp) ****
----------------
ORBITAL ENERGIES
----------------

  NO   OCC          E(Eh)            E(eV) 
   0   2.0000     -19.187046      -522.1061 
   1   2.0000     -19.186987      -522.1045 
   2   2.0000     -19.127116      -520.4753 
   3   2.0000     -10.348973      -281.6099 
   4   2.0000     -10.232211      -278.4326 
   5   2.0000     -10.232196      -278.4322 
   6   2.0000      -1.134501       -30.8713 
   7   2.0000      -1.050112       -28.5750 
   8   2.0000      -1.010240       -27.4900 
   9   2.0000      -0.752872       -20.4867 
  10   2.0000      -0.692681       -18.8488 
  11   2.0000      -0.575260       -15.6536 
  12   2.0000      -0.539030       -14.6678 
  13   2.0000      -0.500271       -13.6131 
  14   2.0000      -0.482454       -13.1282 
  15   2.0000      -0.455834       -12.4039 
  16   2.0000      -0.439591       -11.9619 
  17   2.0000      -0.429357       -11.6834 
  18   2.0000      -0.395412       -10.7597 
  19   2.0000      -0.373728       -10.1697 
  20   2.0000      -0.353790        -9.6271 
  21   2.0000      -0.301049        -8.1920 
  22   2.0000      -0.299918        -8.1612 
  23   2.0000      -0.280548        -7.6341 
  24   0.0000       0.045144         1.2284 
  25   0.0000       0.099424         2.7055 
  26   0.0000       0.118717         3.2305 
  27   0.0000       0.122793         3.3414 
  28   0.0000       0.154114         4.1936 
  29   0.0000       0.158458         4.3119 
  30   0.0000       0.169966         4.6250 
  31   0.0000       0.170248         4.6327 
  32   0.0000       0.178845         4.8666 
  33   0.0000       0.251770         6.8510 
  34   0.0000       0.339185         9.2297 
  35   0.0000       0.396300        10.7839 
  36   0.0000       0.507353        13.8058 
  37   0.0000       0.509813        13.8727 
  38   0.0000       0.525124        14.2893 
  39   0.0000       0.545978        14.8568 
  40   0.0000       0.554508        15.0889 
  41   0.0000       0.581199        15.8152 
  42   0.0000       0.602609        16.3978 
  43   0.0000       0.636896        17.3308 
  44   0.0000       0.679844        18.4995 
  45   0.0000       0.722557        19.6618 
  46   0.0000       0.838670        22.8214 
  47   0.0000       0.843198        22.9446 
  48   0.0000       0.844047        22.9677 
  49   0.0000       0.858938        23.3729 
  50   0.0000       0.888262        24.1708 
  51   0.0000       0.924686        25.1620 
  52   0.0000       0.930601        25.3229 
  53   0.0000       0.962983        26.2041 
  54   0.0000       0.963260        26.2116 
  55   0.0000       0.995178        27.0802 
  56   0.0000       1.031053        28.0564 
  57   0.0000       1.072972        29.1970 
  58   0.0000       1.092067        29.7166 
  59   0.0000       1.113853        30.3095 
  60   0.0000       1.120273        30.4842 
  61   0.0000       1.313329        35.7375 
  62   0.0000       1.362571        37.0774 
  63   0.0000       1.365506        37.1573 
  64   0.0000       1.474885        40.1337 
  65   0.0000       1.494879        40.6777 
  66   0.0000       1.533727        41.7348 
  67   0.0000       1.535439        41.7814 
  68   0.0000       1.654617        45.0244 
  69   0.0000       1.728822        47.0436 
  70   0.0000       1.743932        47.4548 
  71   0.0000       1.787560        48.6420 
  72   0.0000       1.818275        49.4778 
  73   0.0000       1.875502        51.0350 
  74   0.0000       1.942927        52.8697 
  75   0.0000       2.009108        54.6706 
  76   0.0000       2.043223        55.5989 
  77   0.0000       2.057983        56.0006 
  78   0.0000       2.067484        56.2591 
  79   0.0000       2.097389        57.0729 
  80   0.0000       2.098329        57.0984 
  81   0.0000       2.151339        58.5409 
  82   0.0000       2.190589        59.6090 
  83   0.0000       2.283814        62.1457 
  84   0.0000       2.308861        62.8273 
  85   0.0000       2.320926        63.1556 
  86   0.0000       2.332059        63.4585 
  87   0.0000       2.534003        68.9537 
  88   0.0000       2.620096        71.2964 
  89   0.0000       2.694557        73.3226 
  90   0.0000       2.742963        74.6398 
  91   0.0000       2.761880        75.1546 
  92   0.0000       2.770717        75.3950 
  93   0.0000       2.961961        80.5991 
  94   0.0000       3.189004        86.7772 
  95   0.0000       3.205348        87.2220 
------------------
MOLECULAR ORBITALS
------------------
                      0         1         2         3         4         5   
                 -19.18705 -19.18699 -19.12712 -10.34897 -10.23221 -10.23220
                   2.00000   2.00000   2.00000   2.00000   2.00000   2.00000
                  --------  --------  --------  --------  --------  --------
  0O   1s        -0.334646 -0.937229  0.000362 -0.000168 -0.000103  0.000038
  0O   2s        -0.010483 -0.028955 -0.000302 -0.001571 -0.000851  0.000060
  0O   1pz       -0.000151 -0.000344  0.000058 -0.000017 -0.000001 -0.000013
  0O   1px       -0.000111 -0.000017 -0.000333  0.000413 -0.000150  0.000075
  0O   1py       -0.000808 -0.001679  0.000058  0.000197 -0.000107 -0.000013
  0O   3s         0.007722  0.022938  0.002084  0.007084  0.002369  0.001261
  0O   2pz        0.000609  0.000809 -0.000715  0.000363  0.000461 -0.000200
  0O   2px       -0.000307  0.001583  0.002959  0.003167 -0.000319  0.000945
  0O   2py        0.002747  0.004994 -0.001471  0.003900  0.002024 -0.000331
  0O   1dz2      -0.000261 -0.000430  0.000047 -0.001263 -0.000791  0.000512
  0O   1dxz      -0.000068 -0.000107 -0.000077  0.000014 -0.000473  0.000328
  0O   1dyz       0.000148  0.000089 -0.000123  0.000138  0.000278 -0.000169
  0O   1dx2y2    -0.000156  0.000233  0.000548  0.000337  0.000696 -0.000536
  0O   1dxy      -0.000104  0.000164 -0.000067  0.001792 -0.000815  0.000578
  1C   1s         0.000046 -0.000098  0.000287 -0.995011  0.000030 -0.000130
  1C   2s         0.000275 -0.000581  0.000470 -0.036651  0.000187 -0.000799
  1C   1pz       -0.000110  0.000040  0.000041  0.000043  0.000020 -0.000016
  1C   1px        0.000648  0.000273 -0.000015 -0.000016 -0.000131 -0.000023
  1C   1py       -0.000096  0.000378  0.000188  0.000198  0.000007 -0.000093
  1C   3s         0.004086 -0.008625  0.008808  0.000599 -0.000561  0.002396
  1C   2pz       -0.001915  0.000970  0.002935  0.000439 -0.000897  0.000299
  1C   2px        0.010422  0.004235 -0.001099 -0.000164  0.006747  0.001386
  1C   2py       -0.002254  0.007563  0.013485  0.002019  0.000199  0.002383
  1C   1dz2      -0.000080  0.000075  0.000348  0.002397  0.000069 -0.000277
  1C   1dxz       0.000166  0.000125 -0.000027  0.000541 -0.000002 -0.000085
  1C   1dyz      -0.000078 -0.000033 -0.000416 -0.001024 -0.000009  0.000076
  1C   1dx2y2    -0.000078 -0.000229  0.001192  0.000537 -0.000012  0.000131
  1C   1dxy       0.000820  0.000347  0.000209 -0.000012 -0.000100  0.000016
  2O   1s         0.937219 -0.334676  0.000362 -0.000168  0.000075  0.000080
  2O   2s         0.029046 -0.010228 -0.000302 -0.001571  0.000736  0.000431
  2O   1pz        0.000416 -0.000092 -0.000018  0.000083  0.000032  0.000021
  2O   1px       -0.000374 -0.000003  0.000318 -0.000437 -0.000115 -0.000137
  2O   1py        0.001762 -0.000446  0.000128  0.000106  0.000079  0.000007
  2O   3s        -0.022641  0.008553  0.002084  0.007082 -0.002682  0.000082
  2O   2pz       -0.001358  0.000350 -0.000056  0.001173 -0.000388 -0.000177
  2O   2px        0.001918 -0.001386 -0.002670 -0.003742  0.000400 -0.000778
  2O   2py       -0.005289  0.000756 -0.002073  0.003160 -0.001610 -0.001382
  2O   1dz2       0.000496 -0.000059  0.000032 -0.001120  0.000531  0.000901
  2O   1dxz       0.000135 -0.000072 -0.000002 -0.000725  0.000025  0.000030
  2O   1dyz      -0.000167 -0.000034 -0.000154  0.000443 -0.000070 -0.000080
  2O   1dx2y2    -0.000090  0.000316  0.000485  0.000951 -0.000177 -0.000397
  2O   1dxy      -0.000019 -0.000068  0.000259 -0.001436 -0.000629 -0.001184
  3O   1s        -0.000228  0.000482  0.995172  0.000050 -0.000002  0.000007
  3O   2s        -0.000213  0.000449  0.030669 -0.000501  0.000014 -0.000058
  3O   1pz       -0.000004 -0.000036 -0.000518 -0.000212  0.000006  0.000033
  3O   1px        0.000140  0.000079  0.000194  0.000079 -0.000111 -0.000038
  3O   1py        0.000076 -0.000120 -0.002379 -0.000973 -0.000044  0.000132
  3O   3s         0.001150 -0.002428 -0.025240  0.004477  0.000380 -0.001624
  3O   2pz        0.000282  0.000251  0.001575 -0.000966  0.000081  0.000034
  3O   2px       -0.002783 -0.001362 -0.000589  0.000362 -0.000716 -0.000173
  3O   2py       -0.000507  0.000297  0.007236 -0.004440 -0.000092  0.000048
  3O   1dz2      -0.000066  0.000050  0.000082 -0.001005  0.000051 -0.000242
  3O   1dxz       0.000171  0.000104  0.000004 -0.000109  0.000041 -0.000059
  3O   1dyz      -0.000065 -0.000055 -0.000072  0.000726 -0.000028  0.000074
  3O   1dx2y2    -0.000138 -0.000094  0.000174 -0.001458 -0.000034  0.000050
  3O   1dxy       0.000789  0.000364  0.000029 -0.000228  0.000106  0.000048
  4C   1s        -0.000055  0.000069  0.000001  0.000092 -0.845411  0.525105
  4C   2s        -0.000594  0.000533 -0.000084  0.000620 -0.031316  0.019025
  4C   1pz        0.000082  0.000146 -0.000072  0.000054  0.000269 -0.000150
  4C   1px       -0.000531 -0.000747  0.000177 -0.000115 -0.001456  0.000746
  4C   1py        0.000037  0.000205 -0.000228  0.000184  0.000321 -0.000222
  4C   3s        -0.000711 -0.006202  0.001927 -0.002266  0.022293 -0.012848
  4C   2pz        0.000137  0.000358 -0.000070 -0.000106  0.000250 -0.000213
  4C   2px        0.000741 -0.002131  0.000273 -0.001874  0.000533  0.000595
  4C   2py        0.001164  0.000299 -0.000155 -0.001780  0.001572 -0.000631
  4C   1dz2      -0.000036 -0.000053  0.000033  0.000061  0.000237 -0.000163
  4C   1dxz      -0.000001 -0.000017 -0.000028  0.000061  0.000158 -0.000103
  4C   1dyz       0.000007  0.000083  0.000000  0.000070 -0.000082  0.000049
  4C   1dx2y2     0.000002 -0.000197  0.000042 -0.000409 -0.000250  0.000185
  4C   1dxy       0.000041 -0.000138 -0.000142 -0.000049  0.000295 -0.000170
  5H   1s         0.000172  0.000373 -0.000080 -0.000174  0.000779 -0.000481
  5H   2s         0.000911  0.000472 -0.000196 -0.000693 -0.003651  0.002615
  6H   1s        -0.000013  0.000469 -0.000126  0.000347  0.000440 -0.000379
  6H   2s         0.000123  0.000793 -0.000492  0.000474 -0.004692  0.002895
  7H   1s        -0.000013  0.000469 -0.000126  0.000348  0.000440 -0.000379
  7H   2s         0.000123  0.000793 -0.000492  0.000475 -0.004692  0.002894
  8C   1s        -0.000019  0.000087  0.000001  0.000092  0.525163  0.845375
  8C   2s        -0.000036  0.000797 -0.000084  0.000620  0.019642  0.030933
  8C   1pz        0.000044  0.000017 -0.000035  0.000031  0.000048  0.000045
  8C   1px       -0.000869  0.000045 -0.000137  0.000084 -0.000927 -0.001235
  8C   1py       -0.000373  0.000113 -0.000261  0.000206 -0.000392 -0.000613
  8C   3s         0.005250 -0.003378  0.001927 -0.002266 -0.014291 -0.021397
  8C   2pz       -0.000109 -0.000338 -0.000010 -0.000575 -0.000323 -0.000257
  8C   2px       -0.001003  0.002005 -0.000243  0.002130  0.000912 -0.000087
  8C   2py       -0.001201 -0.000291 -0.000210 -0.001351 -0.000953 -0.001304
  8C   1dz2       0.000069 -0.000014  0.000020  0.000064 -0.000160 -0.000281
  8C   1dxz      -0.000011  0.000033  0.000038  0.000047  0.000003 -0.000009
  8C   1dyz      -0.000058  0.000030 -0.000027  0.000076  0.000012  0.000017
  8C   1dx2y2     0.000171 -0.000161 -0.000013 -0.000398  0.000060  0.000149
  8C   1dxy      -0.000026  0.000066  0.000145 -0.000110  0.000241  0.000388
  9H   1s        -0.000398  0.000103 -0.000080 -0.000175 -0.000485 -0.000777
  9H   2s        -0.000942 -0.000406 -0.000196 -0.000694  0.002114  0.003962
 10H   1s        -0.000354  0.000307 -0.000126  0.000348 -0.000226 -0.000535
 10H   2s        -0.000692  0.000407 -0.000492  0.000475  0.002924  0.004674
 11H   1s        -0.000354  0.000307 -0.000126  0.000348 -0.000226 -0.000535
 11H   2s        -0.000692  0.000407 -0.000492  0.000474  0.002923  0.004674
                      6         7         8         9        10        11   
                  -1.13450  -1.05011  -1.01024  -0.75287  -0.69268  -0.57526
                   2.00000   2.00000   2.00000   2.00000   2.00000   2.00000
                  --------  --------  --------  --------  --------  --------
  0O   1s        -0.119799 -0.145858  0.074122 -0.000323 -0.042197  0.054979
  0O   2s         0.259708  0.321805 -0.164654 -0.001116  0.100956 -0.133021
  0O   1pz        0.010942  0.018647 -0.003336  0.027886 -0.014159 -0.009839
  0O   1px        0.030192 -0.018193 -0.001679 -0.225951  0.148810  0.212828
  0O   1py        0.073454  0.078171 -0.017328 -0.017276  0.031758  0.095907
  0O   3s         0.263175  0.329095 -0.170714  0.004074  0.122078 -0.170769
  0O   2pz        0.006574  0.010506 -0.001082  0.012685 -0.007489 -0.002674
  0O   2px        0.013643 -0.010337  0.000971 -0.096713  0.072231  0.099185
  0O   2py        0.041119  0.044052 -0.004629 -0.003710  0.012353  0.054019
  0O   1dz2      -0.007595 -0.006303  0.002009 -0.001027  0.001711 -0.003130
  0O   1dxz      -0.001065 -0.001936  0.001702 -0.003558  0.003213  0.001136
  0O   1dyz       0.001685  0.002355 -0.000018  0.001928 -0.001053  0.000742
  0O   1dx2y2     0.001885  0.000867 -0.005160  0.002589 -0.005077 -0.003017
  0O   1dxy       0.005326 -0.000919  0.002259 -0.013729  0.009726  0.007133
  1C   1s        -0.126718  0.000007 -0.051047  0.075646 -0.000006 -0.079292
  1C   2s         0.245169 -0.000018  0.101088 -0.167265  0.000024  0.181671
  1C   1pz       -0.003283  0.020001  0.055389  0.032259  0.018403 -0.026128
  1C   1px        0.001230 -0.170855 -0.020748 -0.012064 -0.157052  0.009803
  1C   1py       -0.015145 -0.018281  0.254557  0.148248 -0.016810 -0.120111
  1C   3s         0.024917 -0.000076  0.027859 -0.086131 -0.000003  0.126963
  1C   2pz        0.002407 -0.004502 -0.003940  0.003313  0.000023 -0.002030
  1C   2px       -0.000853  0.038621  0.001436 -0.001256 -0.000362  0.000678
  1C   2py        0.011103  0.004144 -0.018120  0.015234 -0.000142 -0.009471
  1C   1dz2      -0.016771 -0.001100 -0.003695  0.007037 -0.000930 -0.003806
  1C   1dxz      -0.003968  0.005698  0.001731  0.001401  0.004777 -0.000902
  1C   1dyz       0.006696 -0.002357  0.008050 -0.003475 -0.001974  0.001506
  1C   1dx2y2    -0.001793 -0.004728 -0.027774  0.003531 -0.003962 -0.000360
  1C   1dxy       0.000453  0.024869 -0.005072  0.000333  0.020847  0.000124
  2O   1s        -0.119785  0.145862  0.074133 -0.000323  0.042206  0.054979
  2O   2s         0.259696 -0.321839 -0.164698 -0.001120 -0.100974 -0.133039
  2O   1pz        0.019359 -0.015932 -0.004071 -0.024852 -0.020934  0.041377
  2O   1px       -0.041540 -0.005238  0.004452  0.224821  0.151340 -0.224668
  2O   1py        0.065773 -0.080680 -0.016681  0.030932  0.000344  0.049146
  2O   3s         0.263075 -0.329012 -0.170662  0.004072 -0.122173 -0.170687
  2O   2pz        0.010523 -0.008958 -0.000945 -0.009809 -0.009478  0.021403
  2O   2px       -0.020032 -0.003074 -0.000227  0.095657  0.073039 -0.106300
  2O   2py        0.037483 -0.045448 -0.004717  0.016846  0.003181  0.032118
  2O   1dz2      -0.007195  0.006419  0.002293 -0.002254 -0.002637 -0.002484
  2O   1dxz      -0.003103  0.001318  0.000223  0.002762  0.001557 -0.002215
  2O   1dyz       0.002531 -0.002107  0.000592 -0.000680 -0.000912  0.002133
  2O   1dx2y2     0.003578 -0.000355 -0.003934 -0.002660  0.001114 -0.000232
  2O   1dxy      -0.003585 -0.001762 -0.004188  0.013874  0.011103 -0.007502
  3O   1s        -0.079540  0.000011 -0.181135 -0.021390  0.000000  0.039855
  3O   2s         0.172312 -0.000029  0.395473  0.047624 -0.000008 -0.091378
  3O   1pz       -0.017378  0.002401 -0.030639  0.001628  0.002097 -0.010237
  3O   1px        0.006506 -0.020485  0.011466 -0.000608 -0.017864  0.003839
  3O   1py       -0.079860 -0.002181 -0.140786  0.007473 -0.001914 -0.047070
  3O   3s         0.147458 -0.000003  0.364185  0.051580  0.000066 -0.125357
  3O   2pz       -0.006439  0.002120 -0.009254  0.001987  0.001130 -0.005510
  3O   2px        0.002400 -0.018172  0.003479 -0.000752 -0.009655  0.002051
  3O   2py       -0.029612 -0.001950 -0.042530  0.009108 -0.001056 -0.025299
  3O   1dz2      -0.002606 -0.000234 -0.003514 -0.000077 -0.000191 -0.001384
  3O   1dxz      -0.000002  0.001200 -0.000103 -0.000167  0.000987 -0.000157
  3O   1dyz       0.002592 -0.000494  0.003253 -0.000343 -0.000409  0.000981
  3O   1dx2y2    -0.006746 -0.000996 -0.008078  0.001547 -0.000819 -0.001930
  3O   1dxy      -0.001150  0.005237 -0.001360  0.000297  0.004307 -0.000299
  4C   1s        -0.030398 -0.050066  0.021071 -0.117651  0.128741 -0.063141
  4C   2s         0.058757  0.091872 -0.041861  0.233394 -0.260754  0.128032
  4C   1pz       -0.008527 -0.013664  0.006955 -0.008752 -0.005763  0.045641
  4C   1px        0.043272  0.063788 -0.026846  0.023287  0.044354 -0.149542
  4C   1py       -0.012143 -0.023200  0.015598 -0.026630  0.001843  0.120550
  4C   3s         0.009786  0.041164 -0.015122  0.194825 -0.230781  0.143914
  4C   2pz        0.000464  0.000530 -0.000267  0.000871 -0.004360  0.015768
  4C   2px       -0.005693  0.005839  0.006115 -0.003170  0.028615 -0.055961
  4C   2py       -0.001621  0.006458  0.002866  0.001846 -0.001529  0.038576
  4C   1dz2      -0.004207 -0.005930  0.002021 -0.001830 -0.002841  0.010757
  4C   1dxz      -0.002681 -0.003959  0.001770 -0.001124 -0.002120  0.006940
  4C   1dyz       0.001016  0.001439 -0.000687  0.001266  0.000049 -0.004279
  4C   1dx2y2     0.005593  0.008276 -0.003148 -0.000324  0.006533 -0.008992
  4C   1dxy      -0.003918 -0.006116  0.003833 -0.003267 -0.002324  0.013744
  5H   1s         0.008673  0.016987 -0.008592  0.077730 -0.102760  0.056863
  5H   2s        -0.000171  0.005696  0.002110  0.018682 -0.026569  0.019366
  6H   1s         0.010532  0.016106 -0.006246  0.068475 -0.093033  0.096601
  6H   2s         0.002139  0.000323  0.001608  0.012334 -0.023915  0.041331
  7H   1s         0.010531  0.016102 -0.006243  0.068451 -0.092997  0.096578
  7H   2s         0.002137  0.000313  0.001615  0.012293 -0.023861  0.041322
  8C   1s        -0.030391  0.050063  0.021075 -0.117655 -0.128750 -0.063132
  8C   2s         0.058740 -0.091845 -0.041852  0.233377  0.260762  0.128035
  8C   1pz        0.001273 -0.000681  0.001030 -0.003852 -0.004531  0.013313
  8C   1px       -0.040558  0.058936  0.023864 -0.018572  0.043905  0.127461
  8C   1py       -0.021093  0.036307  0.021021 -0.031089  0.007610  0.150160
  8C   3s         0.009796 -0.041215 -0.015167  0.194877  0.230781  0.143830
  8C   2pz       -0.000890 -0.002014  0.001191  0.000169 -0.002250  0.003512
  8C   2px        0.005882  0.006779 -0.006455  0.002808  0.027845  0.048646
  8C   2py       -0.000430 -0.005069  0.001514  0.002464  0.007595  0.049819
  8C   1dz2      -0.004653  0.006617  0.002411 -0.002115  0.003157  0.012124
  8C   1dxz      -0.000383  0.000425 -0.000238  0.000331  0.000471 -0.000151
  8C   1dyz       0.000072  0.000014  0.000140  0.000667  0.000627 -0.001367
  8C   1dx2y2     0.003691 -0.005352 -0.001487 -0.001531 -0.005172 -0.003126
  8C   1dxy       0.006092 -0.009286 -0.004921  0.003097 -0.004828 -0.017115
  9H   1s         0.008668 -0.016985 -0.008594  0.077734  0.102767  0.056840
  9H   2s        -0.000209 -0.005657  0.002112  0.018624  0.026543  0.019424
 10H   1s         0.010532 -0.016101 -0.006240  0.068459  0.093017  0.096585
 10H   2s         0.002142 -0.000314  0.001626  0.012304  0.023885  0.041364
 11H   1s         0.010533 -0.016103 -0.006242  0.068472  0.093032  0.096585
 11H   2s         0.002156 -0.000343  0.001604  0.012368  0.023947  0.041358
                     12        13        14        15        16        17   
                  -0.53903  -0.50027  -0.48245  -0.45583  -0.43959  -0.42936
                   2.00000   2.00000   2.00000   2.00000   2.00000   2.00000
                  --------  --------  --------  --------  --------  --------
  0O   1s         0.038803 -0.000000  0.021572  0.000002 -0.004001 -0.025945
  0O   2s        -0.089854  0.000017 -0.050368  0.000012  0.011352  0.057436
  0O   1pz        0.013245  0.260731  0.060208  0.205620  0.020982 -0.064817
  0O   1px        0.205818  0.036267 -0.128839  0.028628 -0.011370  0.277364
  0O   1py        0.203030 -0.053771  0.204907 -0.042371  0.094336 -0.127142
  0O   3s        -0.138745 -0.000069 -0.057844 -0.000071  0.024477  0.111113
  0O   2pz        0.008370  0.153977  0.037249  0.128789  0.010114 -0.036688
  0O   2px        0.095373  0.021436 -0.065051  0.017957  0.001126  0.150061
  0O   2py        0.104859 -0.031783  0.136685 -0.026566  0.049903 -0.076594
  0O   1dz2      -0.003029  0.005348 -0.003265  0.005617  0.000497  0.002757
  0O   1dxz       0.001975  0.002264  0.000125 -0.005105 -0.000837  0.002919
  0O   1dyz       0.003415  0.015563  0.004894  0.011298  0.002074 -0.004797
  0O   1dx2y2    -0.013711  0.003597 -0.014112  0.001692 -0.005154  0.007119
  0O   1dxy       0.004167  0.001873 -0.004424  0.002807 -0.007753  0.014784
  1C   1s        -0.000001 -0.000001 -0.056863  0.000019  0.056423  0.000021
  1C   2s         0.000015  0.000002  0.135288 -0.000062 -0.135277 -0.000067
  1C   1pz        0.034555  0.269490  0.038478  0.000096 -0.036542  0.011430
  1C   1px       -0.294902  0.037556 -0.014410 -0.000010  0.013743 -0.097183
  1C   1py       -0.031571 -0.055578  0.176868 -0.000077 -0.168119 -0.010465
  1C   3s         0.000061  0.000079  0.053086  0.000010 -0.087195  0.000001
  1C   2pz        0.007617  0.120122  0.012255  0.000052  0.007215 -0.000067
  1C   2px       -0.064907  0.016643 -0.004487 -0.000074 -0.002684  0.000786
  1C   2py       -0.006893 -0.024728  0.056259  0.000021  0.033061  0.000112
  1C   1dz2      -0.000495 -0.001621 -0.000230  0.003258 -0.002335 -0.001223
  1C   1dxz       0.002520  0.000220 -0.001769 -0.015810 -0.002091  0.006274
  1C   1dyz      -0.001043 -0.004098 -0.004232 -0.002109 -0.002951 -0.002592
  1C   1dx2y2    -0.002093 -0.000835  0.017995 -0.002591  0.015949 -0.005196
  1C   1dxy       0.011016 -0.000672  0.003413  0.003078  0.003114  0.027384
  2O   1s        -0.038797  0.000015  0.021566 -0.000018 -0.004030  0.025941
  2O   2s         0.089842 -0.000028 -0.050326  0.000026  0.011423 -0.057415
  2O   1pz       -0.064778  0.260827  0.034136 -0.205472  0.020223  0.002917
  2O   1px        0.235038  0.036223  0.093481 -0.028567 -0.004311  0.252089
  2O   1py       -0.155882 -0.053755  0.228671  0.042348  0.094925  0.183876
  2O   3s         0.138706 -0.000077 -0.057943  0.000161  0.024596 -0.111116
  2O   2pz       -0.032458  0.154048  0.024694 -0.128699  0.011376  0.003345
  2O   2px        0.110698  0.021382  0.041781 -0.017896 -0.009360  0.135084
  2O   2py       -0.082909 -0.031770  0.148091  0.026556  0.048722  0.107179
  2O   1dz2       0.002464  0.006625 -0.003427 -0.003777 -0.000078 -0.003921
  2O   1dxz       0.000957 -0.003891  0.000972 -0.003830  0.002152  0.003098
  2O   1dyz      -0.004630  0.014745  0.004546 -0.012477  0.000844  0.002320
  2O   1dx2y2     0.011275  0.002580 -0.014808 -0.003149 -0.007626 -0.012122
  2O   1dxy       0.008645  0.003071 -0.000732 -0.001069  0.005303  0.011477
  3O   1s         0.000002  0.000006  0.088273 -0.000022 -0.054812 -0.000021
  3O   2s         0.000001 -0.000003 -0.199302  0.000056  0.123917  0.000052
  3O   1pz        0.017148  0.161542 -0.062798  0.000096  0.070064 -0.004434
  3O   1px       -0.146333  0.022499  0.023488 -0.000025 -0.026228  0.038458
  3O   1py       -0.015644 -0.033328 -0.288558  0.000091  0.321682  0.004233
  3O   3s        -0.000053 -0.000085 -0.332575  0.000040  0.194338  0.000054
  3O   2pz        0.009424  0.086281 -0.031965  0.000063  0.039370 -0.002839
  3O   2px       -0.080415  0.012036  0.011901 -0.000002 -0.014738  0.024613
  3O   2py       -0.008581 -0.017765 -0.146795  0.000063  0.180672  0.002707
  3O   1dz2      -0.000568 -0.005258 -0.008461  0.000408  0.006493 -0.000044
  3O   1dxz       0.002915  0.000717 -0.000907 -0.001977  0.000200  0.000233
  3O   1dyz      -0.001203 -0.013328  0.006128 -0.000272 -0.005959 -0.000104
  3O   1dx2y2    -0.002416 -0.002719 -0.012356 -0.000319  0.014704 -0.000188
  3O   1dxy       0.012712 -0.002183 -0.001931  0.000385  0.002475  0.001022
  4C   1s        -0.021171 -0.000002  0.005815 -0.000003  0.000102  0.000782
  4C   2s         0.039715 -0.000015 -0.011171 -0.000026  0.001497 -0.006399
  4C   1pz        0.043984  0.177339 -0.008503  0.285275  0.024957  0.019153
  4C   1px       -0.054846  0.024691  0.159127  0.039727  0.135232 -0.272864
  4C   1py        0.176265 -0.036577  0.065963 -0.058771  0.212737 -0.090823
  4C   3s         0.056264  0.000051 -0.015373  0.000084 -0.003069  0.002307
  4C   2pz        0.017585  0.076572 -0.000859  0.130989  0.011299  0.005147
  4C   2px       -0.010415  0.010635  0.047587  0.018202  0.061486 -0.109606
  4C   2py        0.078400 -0.015855  0.028101 -0.027064  0.097030 -0.049256
  4C   1dz2       0.008873  0.000410 -0.001259  0.003318  0.007521  0.000934
  4C   1dxz       0.004466  0.006784 -0.003242  0.003788 -0.000849  0.005403
  4C   1dyz      -0.004739  0.005682 -0.000487  0.011306 -0.002084 -0.000802
  4C   1dx2y2    -0.000583  0.002120  0.009867  0.002901  0.003862 -0.010443
  4C   1dxy       0.009793 -0.000594 -0.007357  0.000905 -0.010522  0.017439
  5H   1s        -0.028751  0.000017 -0.091435 -0.000000 -0.152262  0.151972
  5H   2s        -0.014461 -0.000006 -0.069749 -0.000019 -0.113339  0.120915
  6H   1s         0.073915 -0.078999  0.000489 -0.136192  0.060911 -0.007757
  6H   2s         0.037330 -0.054479 -0.010270 -0.096685  0.049299 -0.001076
  7H   1s         0.073937  0.078961  0.000548  0.136163  0.060880 -0.007889
  7H   2s         0.037405  0.054477 -0.010212  0.096705  0.049399 -0.001235
  8C   1s         0.021157  0.000004  0.005821  0.000003  0.000113 -0.000773
  8C   2s        -0.039726 -0.000036 -0.011214  0.000023  0.001434  0.006305
  8C   1pz       -0.034611  0.177442  0.029544 -0.285203  0.060448  0.045700
  8C   1px       -0.025380  0.024577 -0.167041 -0.039557 -0.167091 -0.283092
  8C   1py       -0.184816 -0.036592  0.031103  0.058886  0.180387  0.031629
  8C   3s        -0.056111  0.000058 -0.015290 -0.000085 -0.002997 -0.002135
  8C   2pz       -0.016611  0.076776  0.010674 -0.131141  0.027430  0.021151
  8C   2px        0.002407  0.010630 -0.051238 -0.018204 -0.075870 -0.115609
  8C   2py       -0.079192 -0.015926  0.017450  0.027199  0.082142  0.025089
  8C   1dz2      -0.009753  0.003317 -0.002061 -0.005122  0.006586 -0.002607
  8C   1dxz       0.000123 -0.007299  0.000878  0.004941  0.003970  0.003232
  8C   1dyz       0.002856  0.003814 -0.002186 -0.010149 -0.004072 -0.002766
  8C   1dx2y2    -0.003206 -0.000177  0.006449 -0.001482 -0.000155  0.003281
  8C   1dxy       0.010177  0.002148  0.010602 -0.002599  0.010535  0.020212
  9H   1s         0.028762 -0.000024 -0.091427 -0.000021 -0.152161 -0.152151
  9H   2s         0.014454 -0.000071 -0.069780  0.000066 -0.113379 -0.121209
 10H   1s        -0.073914  0.079017  0.000493 -0.136131  0.060922  0.007826
 10H   2s        -0.037437  0.054463 -0.010250 -0.096600  0.049457  0.001191
 11H   1s        -0.073917 -0.079035  0.000523  0.136189  0.060868  0.007902
 11H   2s        -0.037402 -0.054425 -0.010220  0.096600  0.049375  0.001248
                     18        19        20        21        22        23   
                  -0.39541  -0.37373  -0.35379  -0.30105  -0.29992  -0.28055
                   2.00000   2.00000   2.00000   2.00000   2.00000   2.00000
                  --------  --------  --------  --------  --------  --------
  0O   1s        -0.000003  0.042845  0.032367 -0.000003  0.000008  0.001991
  0O   2s         0.000009 -0.095429 -0.074850 -0.000010 -0.000035 -0.004879
  0O   1pz       -0.087850  0.059494  0.067752 -0.293139 -0.411040  0.040702
  0O   1px       -0.012159 -0.081379 -0.021816 -0.040769 -0.057243  0.051042
  0O   1py        0.018116  0.233575  0.313961  0.060444  0.084704  0.231957
  0O   3s         0.000008 -0.194791 -0.094689  0.000072  0.000008  0.038062
  0O   2pz       -0.060147  0.036335  0.043637 -0.224579 -0.304968  0.031980
  0O   2px       -0.008319 -0.047249  0.007707 -0.031254 -0.042467  0.037278
  0O   2py        0.012412  0.144405  0.217010  0.046365  0.062893  0.180434
  0O   1dz2       0.000594 -0.006635 -0.006795 -0.002206 -0.005173 -0.002466
  0O   1dxz      -0.010334 -0.000378 -0.000166 -0.002859 -0.002773 -0.000187
  0O   1dyz      -0.005415  0.003942  0.003229 -0.007704 -0.015433  0.002945
  0O   1dx2y2    -0.002550 -0.007670 -0.005750 -0.002019 -0.003636 -0.007577
  0O   1dxy       0.001400  0.001315  0.003726 -0.000551 -0.001744 -0.002703
  1C   1s         0.000004  0.000006 -0.017483 -0.000002 -0.000004 -0.000005
  1C   2s        -0.000021 -0.000006  0.049436  0.000002  0.000030  0.000013
  1C   1pz       -0.267598  0.020796 -0.043731  0.071840 -0.000047  0.000607
  1C   1px       -0.037290 -0.177101  0.016234  0.009980  0.000016 -0.005256
  1C   1py        0.055157 -0.018818 -0.201018 -0.014790  0.000003 -0.000548
  1C   3s         0.000006  0.000027  0.015038 -0.000022 -0.000122  0.000025
  1C   2pz       -0.130948  0.008027  0.021236  0.035956  0.000018 -0.009585
  1C   2px       -0.018207 -0.068425 -0.008044  0.005102 -0.000000  0.081552
  1C   2py        0.027000 -0.007391  0.097531 -0.007477 -0.000079  0.008566
  1C   1dz2      -0.002772  0.000649 -0.000750  0.015856 -0.006009 -0.002093
  1C   1dxz       0.000373 -0.003348 -0.002826 -0.002143  0.029136  0.010748
  1C   1dyz      -0.007024  0.001390 -0.006392  0.040183  0.003872 -0.004443
  1C   1dx2y2    -0.001429  0.002762  0.027787  0.008202  0.004773 -0.008916
  1C   1dxy      -0.001139 -0.014607  0.005285  0.006565 -0.005688  0.046899
  2O   1s         0.000006 -0.042883  0.032306 -0.000002  0.000005 -0.001992
  2O   2s        -0.000005  0.095528 -0.074715  0.000010 -0.000010  0.004846
  2O   1pz       -0.087911 -0.045134  0.068633 -0.292893  0.411228 -0.056897
  2O   1px       -0.012149 -0.042222 -0.029310 -0.040668  0.057103  0.087639
  2O   1py        0.018189 -0.247179  0.312797  0.060422 -0.084847 -0.217123
  2O   3s        -0.000070  0.194859 -0.094388 -0.000029 -0.000022 -0.037999
  2O   2pz       -0.060181 -0.028195  0.049555 -0.224380  0.305057 -0.044024
  2O   2px       -0.008325 -0.023030 -0.042729 -0.031139  0.042373  0.065961
  2O   2py        0.012441 -0.152222  0.211437  0.046306 -0.062957 -0.169308
  2O   1dz2      -0.003756  0.006433 -0.006399 -0.003543  0.006648  0.002578
  2O   1dxz       0.010763  0.001470 -0.002154  0.003637 -0.004375 -0.000428
  2O   1dyz      -0.002607 -0.004400  0.004054 -0.006828  0.014482 -0.002692
  2O   1dx2y2     0.000900  0.006770 -0.004080 -0.000949  0.002466  0.008071
  2O   1dxy      -0.002703  0.003440 -0.004969 -0.001818  0.003139  0.000033
  3O   1s        -0.000005  0.000016 -0.022489  0.000005 -0.000002 -0.000001
  3O   2s         0.000009 -0.000032  0.056284 -0.000023 -0.000013 -0.000020
  3O   1pz       -0.251912  0.020399  0.053625  0.449175 -0.000139 -0.067233
  3O   1px       -0.035076 -0.174064 -0.020174  0.062564 -0.000099  0.573715
  3O   1py        0.052019 -0.018796  0.246417 -0.092679 -0.000003  0.061349
  3O   3s         0.000031 -0.000047  0.040337  0.000039  0.000104  0.000123
  3O   2pz       -0.151285  0.012734  0.033904  0.325543 -0.000121 -0.046572
  3O   2px       -0.021075 -0.108677 -0.012718  0.045324 -0.000062  0.397416
  3O   2py        0.031223 -0.011737  0.155771 -0.067159 -0.000041  0.042480
  3O   1dz2       0.006913 -0.000483  0.004048 -0.008663 -0.000166  0.001101
  3O   1dxz      -0.000942  0.002462  0.000331  0.001183  0.000809 -0.005661
  3O   1dyz       0.017517 -0.001015 -0.003196 -0.021954  0.000119  0.002331
  3O   1dx2y2     0.003578 -0.002046  0.007015 -0.004485  0.000131  0.004693
  3O   1dxy       0.002866  0.010730  0.001140 -0.003589 -0.000155 -0.024663
  4C   1s        -0.000003 -0.002408 -0.006097 -0.000001 -0.000005 -0.013058
  4C   2s        -0.000032  0.007065  0.020951 -0.000016 -0.000015  0.033292
  4C   1pz        0.260881 -0.052750 -0.041583  0.070421  0.149670 -0.001805
  4C   1px        0.036268  0.003792  0.014453  0.009777  0.020855  0.012703
  4C   1py       -0.053783 -0.252970 -0.191904 -0.014523 -0.030863 -0.000337
  4C   3s         0.000083  0.000748  0.001426  0.000021  0.000063  0.053762
  4C   2pz        0.123162 -0.018895 -0.014951  0.007707  0.042972  0.003125
  4C   2px        0.017083  0.008353 -0.006274  0.001030  0.005946 -0.047545
  4C   2py       -0.025434 -0.086227 -0.076994 -0.001590 -0.008858 -0.017107
  4C   1dz2       0.006803 -0.014425 -0.010972  0.006097  0.009748  0.000874
  4C   1dxz      -0.006229 -0.002412 -0.001916 -0.009134 -0.015886 -0.000498
  4C   1dyz       0.013695  0.001534  0.000361  0.009854  0.014899 -0.001914
  4C   1dx2y2     0.002042  0.009876  0.010326  0.000837  0.000984  0.006815
  4C   1dxy       0.003424  0.012280  0.010747  0.003461  0.005675  0.000949
  5H   1s         0.000047  0.140330  0.111822  0.000022  0.000016  0.010324
  5H   2s         0.000029  0.133046  0.097320  0.000004 -0.000003 -0.029321
  6H   1s        -0.140397 -0.095870 -0.073200 -0.060692 -0.110972  0.001673
  6H   2s        -0.104000 -0.087926 -0.069563 -0.096851 -0.123416 -0.033047
  7H   1s         0.140343 -0.095983 -0.073241  0.060672  0.110928  0.001695
  7H   2s         0.103979 -0.088119 -0.069672  0.096833  0.123362 -0.033068
  8C   1s        -0.000011  0.002426 -0.006098  0.000006 -0.000002  0.013054
  8C   2s         0.000012 -0.007177  0.021005  0.000029 -0.000036 -0.033252
  8C   1pz        0.260824  0.056700 -0.041841  0.070349 -0.149738 -0.001107
  8C   1px        0.036078 -0.037177  0.016786  0.009792 -0.020808  0.012405
  8C   1py       -0.053731  0.249622 -0.191342 -0.014544  0.030905  0.003113
  8C   3s         0.000073 -0.000650  0.001339 -0.000146  0.000101 -0.053846
  8C   2pz        0.123207  0.018611 -0.017856  0.007625 -0.042909  0.008185
  8C   2px        0.017046 -0.005672  0.018485  0.001057 -0.005949 -0.049217
  8C   2py       -0.025455  0.086550 -0.074170 -0.001572  0.008853  0.006632
  8C   1dz2       0.004569  0.013600 -0.010247  0.002579 -0.003590 -0.000839
  8C   1dxz       0.004683  0.006711 -0.005559  0.007947 -0.014079  0.000360
  8C   1dyz       0.015145 -0.003320  0.001871  0.012118 -0.018895  0.001968
  8C   1dx2y2     0.003835 -0.013474  0.013353  0.003637 -0.005899 -0.006710
  8C   1dxy       0.001296  0.006540 -0.005241  0.000124  0.000166 -0.001544
  9H   1s        -0.000067 -0.140449  0.111643  0.000039 -0.000040 -0.010362
  9H   2s        -0.000104 -0.133249  0.097295  0.000078 -0.000070  0.029063
 10H   1s         0.140355  0.096005 -0.073104  0.060624 -0.110996 -0.001653
 10H   2s         0.103937  0.088173 -0.069558  0.096785 -0.123461  0.033083
 11H   1s        -0.140315  0.095964 -0.073066 -0.060648  0.111014 -0.001618
 11H   2s        -0.103901  0.088113 -0.069519 -0.096733  0.123442  0.033124
                     24        25        26        27        28        29   
                   0.04514   0.09942   0.11872   0.12279   0.15411   0.15846
                   0.00000   0.00000   0.00000   0.00000   0.00000   0.00000
                  --------  --------  --------  --------  --------  --------
  0O   1s         0.000027  0.070747  0.047025  0.009353 -0.002510 -0.034642
  0O   2s        -0.000040 -0.142083 -0.092655 -0.029650  0.006396  0.063754
  0O   1pz        0.227512 -0.029544 -0.031778  0.002427 -0.014603  0.050657
  0O   1px        0.031633  0.034379  0.096402  0.003174  0.091196 -0.204030
  0O   1py       -0.046947 -0.119487 -0.088775  0.014539 -0.008772  0.106714
  0O   3s        -0.000313 -0.784204 -0.514834 -0.075196  0.003683  0.457094
  0O   2pz        0.213166 -0.061522 -0.062284  0.000835 -0.029600  0.088555
  0O   2px        0.029698  0.075438  0.246717 -0.003902  0.117730 -0.361301
  0O   2py       -0.044100 -0.246782 -0.135138  0.001916 -0.063394  0.183135
  0O   1dz2       0.002127  0.009440 -0.004787  0.004132 -0.003752 -0.000039
  0O   1dxz      -0.022255  0.001300 -0.003291  0.002018 -0.001502 -0.001342
  0O   1dyz      -0.009475 -0.005203 -0.001250 -0.000970  0.004726 -0.000008
  0O   1dx2y2    -0.005020  0.007823  0.014778 -0.004122 -0.009531  0.003321
  0O   1dxy       0.003335 -0.000333 -0.000284  0.001790 -0.008491 -0.004270
  1C   1s        -0.000032 -0.060041 -0.015705  0.000192  0.045345 -0.000111
  1C   2s         0.000087  0.046903  0.069763 -0.000084 -0.059250  0.000063
  1C   1pz       -0.571274 -0.023588 -0.021023  0.001156  0.010496 -0.000461
  1C   1px       -0.079499  0.008872  0.008133 -0.006903 -0.004341  0.003930
  1C   1py        0.117760 -0.109041 -0.097675 -0.000528  0.047256  0.000289
  1C   3s         0.000289  0.957063 -0.116858 -0.003704 -0.533945  0.001336
  1C   2pz       -0.520259 -0.006888 -0.033403  0.008014 -0.016125  0.020141
  1C   2px       -0.072569  0.002777  0.013153 -0.066052  0.005419 -0.172521
  1C   2py        0.107369 -0.032681 -0.154085 -0.006390 -0.074542 -0.018595
  1C   1dz2       0.005436  0.011452  0.005419 -0.000208 -0.013132  0.000107
  1C   1dxz      -0.000735  0.004049  0.003115  0.000870 -0.003993 -0.000336
  1C   1dyz       0.013756 -0.001222  0.002511 -0.000357  0.002948  0.000116
  1C   1dx2y2     0.002803 -0.012737 -0.018861 -0.000709  0.008145  0.000207
  1C   1dxy       0.002249 -0.002923 -0.003851  0.003878  0.002219 -0.001340
  2O   1s         0.000035  0.070644  0.047172 -0.009770 -0.002826  0.034730
  2O   2s        -0.000088 -0.141975 -0.092828  0.030631  0.006852 -0.064046
  2O   1pz        0.227524 -0.023849 -0.011227 -0.003531  0.006409 -0.005395
  2O   1px        0.031600 -0.014287 -0.080885  0.005439 -0.087137 -0.183085
  2O   1py       -0.047006 -0.124748 -0.107868 -0.012736 -0.027598 -0.148304
  2O   3s        -0.000271 -0.782679 -0.517265  0.079632  0.008561 -0.457660
  2O   2pz        0.213173 -0.048702 -0.007838  0.000146 -0.003481 -0.008213
  2O   2px        0.029507 -0.033523 -0.221761 -0.004553 -0.102966 -0.325155
  2O   2py       -0.044104 -0.258144 -0.185642 -0.001158 -0.086211 -0.256351
  2O   1dz2      -0.007198  0.009258 -0.005033 -0.004407 -0.004429  0.000438
  2O   1dxz       0.022948  0.001877 -0.001831 -0.000799  0.001560 -0.000771
  2O   1dyz      -0.003447 -0.005443 -0.001877  0.000495  0.003512  0.000910
  2O   1dx2y2     0.002389  0.007347  0.013552  0.003080 -0.012116 -0.001461
  2O   1dxy      -0.005451  0.002353  0.006075  0.003531  0.004889 -0.005217
  3O   1s         0.000010  0.032324 -0.013500 -0.000127 -0.003868  0.000008
  3O   2s        -0.000024 -0.069373  0.033458  0.000324 -0.009436  0.000009
  3O   1pz        0.371139  0.010292 -0.002563 -0.012458 -0.007763  0.008493
  3O   1px        0.051663 -0.003498  0.000778  0.105417  0.003150 -0.072618
  3O   1py       -0.076537  0.048131 -0.011589  0.011089 -0.035640 -0.007670
  3O   3s        -0.000135 -0.346364  0.162451  0.000987  0.184227 -0.000268
  3O   2pz        0.386902  0.040155 -0.016846 -0.009129 -0.023433  0.006100
  3O   2px        0.053880 -0.014881  0.006091  0.075914  0.008925 -0.051862
  3O   2py       -0.079722  0.185347 -0.077021  0.007496 -0.107512 -0.005346
  3O   1dz2       0.002720  0.011381 -0.000603  0.000203 -0.007588  0.000120
  3O   1dxz      -0.000366  0.001470  0.000248 -0.001256 -0.002266 -0.000513
  3O   1dyz       0.006880 -0.007616  0.001215  0.000532  0.001814  0.000185
  3O   1dx2y2     0.001406  0.014033 -0.004180  0.000968  0.004214  0.000382
  3O   1dxy       0.001118  0.002099 -0.000756 -0.005450  0.001160 -0.002081
  4C   1s         0.000008  0.015074 -0.118602  0.093328 -0.001911  0.052909
  4C   2s         0.000004  0.002515  0.178404 -0.119225 -0.000048 -0.072553
  4C   1pz        0.041489 -0.057359 -0.019605 -0.029849  0.026248  0.003504
  4C   1px        0.005870  0.243738  0.080981  0.151658  0.171787 -0.239747
  4C   1py       -0.008554 -0.113875 -0.040419 -0.042445  0.241667 -0.139719
  4C   3s        -0.000179 -0.492855  1.653422 -1.541055 -0.034310 -0.646162
  4C   2pz        0.166269 -0.162508 -0.042072 -0.097046  0.082493  0.042508
  4C   2px        0.023325  0.621112  0.182362  0.374513  0.532432 -0.826518
  4C   2py       -0.034473 -0.371703 -0.081105 -0.219474  0.755199 -0.335724
  4C   1dz2      -0.006446  0.008374  0.005668  0.003909 -0.006461 -0.003458
  4C   1dxz       0.009028  0.005091  0.003658  0.001864  0.001576 -0.006223
  4C   1dyz      -0.010842 -0.001510 -0.000822 -0.001263  0.000817  0.001202
  4C   1dx2y2    -0.001062 -0.012210 -0.009387 -0.002705 -0.002176  0.012816
  4C   1dxy      -0.003588  0.006011  0.004319  0.002340  0.013743 -0.016804
  5H   1s        -0.000039  0.010411 -0.015090  0.019862  0.085433 -0.068071
  5H   2s         0.000025  0.257812 -0.684058  0.743927  1.280758 -0.749812
  6H   1s         0.042805  0.031183 -0.010412  0.037668 -0.028241  0.003514
  6H   2s         0.206430  0.501178 -0.639037  0.825370 -0.503699  0.483552
  7H   1s        -0.042761  0.031165 -0.010388  0.037663 -0.028322  0.003881
  7H   2s        -0.206030  0.500199 -0.639087  0.824851 -0.506215  0.491188
  8C   1s        -0.000051  0.014515 -0.118560 -0.093669 -0.001761 -0.052909
  8C   2s         0.000000  0.003003  0.178195  0.119598  0.000289  0.072774
  8C   1pz        0.041451 -0.003260 -0.001535 -0.004369  0.071179  0.054505
  8C   1px        0.005661 -0.220079 -0.073334  0.144009 -0.208452 -0.257865
  8C   1py       -0.008605 -0.163110 -0.057587  0.074717  0.203979  0.085895
  8C   3s         0.000795 -0.483024  1.652762  1.548104 -0.037412  0.645288
  8C   2pz        0.166260 -0.026448 -0.001017  0.015287  0.221450  0.154317
  8C   2px        0.022940 -0.546635 -0.166470  0.337048 -0.645672 -0.864077
  8C   2py       -0.034477 -0.494181 -0.122852  0.295410  0.639335  0.152498
  8C   1dz2      -0.002996  0.009121  0.006233 -0.004255 -0.005376  0.005170
  8C   1dxz      -0.007746  0.001224  0.000842 -0.000521 -0.004567 -0.002330
  8C   1dyz      -0.013076  0.000082  0.000332  0.000716  0.003395  0.002336
  8C   1dx2y2    -0.003819 -0.009026 -0.007056  0.001676  0.002937 -0.005740
  8C   1dxy      -0.000316 -0.010862 -0.008000  0.003665 -0.013023 -0.020714
  9H   1s        -0.000043  0.010232 -0.015172 -0.020114  0.085689  0.067670
  9H   2s        -0.000355  0.252334 -0.686815 -0.750230  1.292266  0.746560
 10H   1s        -0.042797  0.030921 -0.010244 -0.037862 -0.028597 -0.003654
 10H   2s        -0.206286  0.495537 -0.637230 -0.829398 -0.511432 -0.488936
 11H   1s         0.042810  0.030918 -0.010197 -0.037830 -0.028717 -0.003381
 11H   2s         0.205911  0.494687 -0.634756 -0.827102 -0.511020 -0.482097
                     30        31        32        33        34        35   
                   0.16997   0.17025   0.17885   0.25177   0.33918   0.39630
                   0.00000   0.00000   0.00000   0.00000   0.00000   0.00000
                  --------  --------  --------  --------  --------  --------
  0O   1s        -0.039692  0.003248  0.000018 -0.031168  0.048980  0.039356
  0O   2s         0.064932 -0.005386 -0.000112  0.059562 -0.115865 -0.131244
  0O   1pz        0.042170  0.068106  0.121809 -0.007336 -0.007263  0.019698
  0O   1px       -0.177507  0.024776  0.016965  0.264727 -0.236347 -0.163939
  0O   1py        0.056039 -0.019565 -0.025179  0.142784 -0.194657 -0.015409
  0O   3s         0.573695 -0.046627  0.000126  0.452465 -0.729934 -0.368190
  0O   2pz        0.079435  0.136311  0.182452 -0.014694 -0.038923  0.108050
  0O   2px       -0.369320  0.050187  0.025174  0.587000 -0.342560 -0.653963
  0O   2py        0.078509 -0.036235 -0.037689  0.324924 -0.420030  0.082771
  0O   1dz2      -0.004989  0.000215 -0.001539 -0.016691 -0.002844 -0.024536
  0O   1dxz      -0.002344  0.010489  0.003845 -0.005687  0.008752 -0.012915
  0O   1dyz       0.005305  0.006101 -0.001376  0.005213  0.001805  0.001674
  0O   1dx2y2    -0.004888  0.003155  0.000244  0.006909 -0.024168  0.040187
  0O   1dxy      -0.012043 -0.000261 -0.001053 -0.002106  0.028840 -0.005375
  1C   1s         0.000229 -0.000005 -0.000007  0.136792 -0.000031 -0.050431
  1C   2s        -0.000462  0.000018  0.000055 -0.138592  0.000036  0.278188
  1C   1pz       -0.010679  0.000163 -0.209959  0.010819  0.082683 -0.083005
  1C   1px        0.092802 -0.007436 -0.029156 -0.004196 -0.706363  0.031138
  1C   1py        0.010318 -0.000632  0.043220  0.050138 -0.075519 -0.381810
  1C   3s        -0.001675  0.000135 -0.000095 -2.584565  0.000566 -0.412897
  1C   2pz       -0.007620  0.000160 -0.105970  0.001577  0.163170 -0.489257
  1C   2px        0.065975 -0.004431 -0.014396 -0.000760 -1.391625  0.182850
  1C   2py        0.007006 -0.000495  0.021357  0.007780 -0.148300 -2.248874
  1C   1dz2       0.000422  0.002633 -0.003060 -0.036416  0.002441  0.025142
  1C   1dxz      -0.002553 -0.012776  0.000458 -0.007259 -0.012456  0.008956
  1C   1dyz       0.000501 -0.001794 -0.007733  0.017991  0.005150 -0.002386
  1C   1dx2y2     0.001162 -0.002207 -0.001582 -0.018275  0.010333 -0.029145
  1C   1dxy      -0.006341  0.003031 -0.001281 -0.001745 -0.054417 -0.006740
  2O   1s         0.039551 -0.003233  0.000048 -0.031167 -0.048971  0.039337
  2O   2s        -0.064628  0.005331 -0.000100  0.059567  0.115851 -0.131123
  2O   1pz       -0.001969 -0.070721  0.122275  0.056752  0.065707 -0.018726
  2O   1px       -0.167417  0.004035  0.016873 -0.283370 -0.263603  0.163548
  2O   1py       -0.092782  0.022485 -0.025402  0.084165  0.141037  0.019683
  2O   3s        -0.572597  0.046445 -0.000554  0.452532  0.730075 -0.367915
[...]
     33       0.123437  -0.051246   0.243430   0.332518  -0.275098  -0.332259
     34      -0.261078  -0.190917  -0.198875  -0.028804   0.204021   0.131371
     35      -0.335092  -0.409446  -0.155281   0.053162   0.084462   0.082949
                 12         13         14         15         16         17    
      0      -0.205326   0.090795   0.026692   0.012417  -0.255620  -0.291263
      1       0.021924   0.321955  -0.039259   0.241557   0.141778   0.058264
      2       0.033133   0.053697   0.191250   0.048105   0.064815   0.052532
      3       0.008519   0.144748  -0.118383   0.013803  -0.212669  -0.002411
      4      -0.104624   0.015467   0.175544  -0.167798  -0.022814   0.029038
      5      -0.022664  -0.016665  -0.851259  -0.036503   0.024804   0.006262
      6       0.198127   0.141337   0.026747  -0.050937  -0.228697   0.276696
      7       0.065189  -0.297340  -0.039621   0.234714  -0.193285   0.118865
      8      -0.014276  -0.081031   0.191335   0.055509  -0.008157  -0.013918
      9       0.009642  -0.283798   0.035302   0.022789   0.030220  -0.003972
     10      -0.117682  -0.030256  -0.052697  -0.281007   0.003028   0.048750
     11      -0.025678   0.033200   0.254980  -0.061133  -0.003568   0.010623
     12      -0.325589  -0.018580   0.001632   0.118338   0.361827   0.170261
     13       0.031442   0.012634  -0.002583   0.004808  -0.145250  -0.161187
     14       0.051768   0.005169   0.012936  -0.015490  -0.080273  -0.056852
     15      -0.246773   0.318383  -0.011645   0.459401   0.226877  -0.286922
     16      -0.034478  -0.261653   0.017224  -0.272178  -0.043331   0.198190
     17       0.027121  -0.098311  -0.084225  -0.120076  -0.040589   0.080560
     18      -0.365050  -0.268987   0.115968  -0.165843   0.272103   0.331335
     19       0.008745  -0.062219  -0.028260  -0.083105  -0.108123  -0.017271
     20       0.044008   0.012763  -0.052384  -0.013108  -0.030424   0.022754
     21      -0.362959  -0.266105  -0.124563  -0.161040   0.264202   0.312003
     22       0.005306  -0.066814   0.040057  -0.090458  -0.096500   0.011140
     23       0.060222   0.035128  -0.004767   0.022850  -0.086408  -0.113771
     24       0.314943  -0.016011   0.001876  -0.117364   0.332067  -0.141062
     25       0.099958  -0.016212  -0.002609  -0.020585   0.219498  -0.194367
     26      -0.023087  -0.001156   0.012829   0.012050  -0.000779  -0.020513
     27       0.248084   0.270925  -0.011487  -0.407335   0.215244   0.250074
     28       0.018389   0.324964   0.017547  -0.364600   0.089908   0.255690
     29      -0.030664   0.029435  -0.084262  -0.018721  -0.011302   0.018022
     30       0.357696  -0.274946   0.108770   0.176707   0.251371  -0.325169
     31       0.082314   0.009080   0.065167  -0.054431   0.151525  -0.056992
     32      -0.023961   0.028119  -0.032185  -0.016685   0.026217  -0.039231
     33       0.355576  -0.271815  -0.116739   0.171717   0.243530  -0.306281
     34       0.085867   0.004528  -0.053207  -0.047046   0.163117  -0.085256
     35      -0.040163   0.050516  -0.025316  -0.052559  -0.029917   0.097426
                 18         19         20         21         22         23    
      0       0.005951   0.005808  -0.025265  -0.089399   0.159968  -0.022655
      1      -0.008884  -0.008699  -0.060098  -0.080126   0.063798   0.000502
      2       0.042985   0.042166  -0.008905  -0.004090  -0.009123   0.003248
      3       0.000001  -0.000281  -0.019712  -0.001735  -0.520777   0.002583
      4       0.000006   0.000440  -0.002103   0.022311  -0.055626  -0.029904
      5       0.000004  -0.002065   0.002306   0.004838   0.061015  -0.006534
      6      -0.005973   0.005897  -0.034529   0.100730   0.167654   0.022043
      7       0.008896  -0.008709   0.053664  -0.059789  -0.028834   0.005298
      8      -0.042925   0.042181   0.015892  -0.026344  -0.029258  -0.001970
      9       0.000005   0.000423   0.011943  -0.005705   0.057940  -0.002431
     10      -0.000004  -0.000616   0.001304   0.069970   0.006189   0.029723
     11       0.000009   0.003073  -0.001395   0.015224  -0.006796   0.006471
     12      -0.012788  -0.012901   0.051385   0.084525  -0.070660  -0.067711
     13       0.019027   0.019164   0.092945   0.080630   0.048660   0.013178
     14      -0.092122  -0.092958   0.012063   0.004868   0.019847   0.012117
     15       0.027197   0.027210   0.447791   0.438511   0.308322   0.347195
     16      -0.039979  -0.040117  -0.227885  -0.208417  -0.229398  -0.309405
     17       0.193115   0.194133  -0.109385  -0.103993  -0.089969  -0.111647
     18      -0.379201  -0.378312  -0.316640  -0.311739   0.264784   0.350748
     19       0.186724   0.187182  -0.083503  -0.102896   0.007350   0.047366
     20       0.215364   0.214529  -0.049103  -0.057443  -0.113485  -0.090000
     21       0.411453   0.410532  -0.297478  -0.291241   0.285182   0.363573
     22      -0.235024  -0.235131  -0.112656  -0.133690  -0.023149   0.027332
     23       0.018502   0.017768   0.094082   0.092669   0.033707   0.005957
     24       0.012808  -0.012939   0.065509  -0.096094  -0.061634   0.064204
     25      -0.019034   0.019185  -0.080417   0.061357  -0.062738   0.027288
     26       0.091987  -0.093040  -0.025738   0.026032  -0.004393  -0.003307
     27      -0.026511   0.026932   0.403085  -0.397388   0.265568  -0.290292
     28       0.040023  -0.040117   0.318716  -0.297848   0.290554  -0.376550
     29      -0.192939   0.194344   0.009970  -0.006421   0.023078  -0.037075
     30       0.337606  -0.337713  -0.327755   0.326094   0.258949  -0.349136
     31       0.314821  -0.315440   0.045848  -0.067717   0.081180  -0.049188
     32      -0.105960   0.105250  -0.020956   0.020498  -0.097232   0.089297
     33      -0.370527   0.370103  -0.307492   0.304987   0.279320  -0.362771
     34      -0.266670   0.267506   0.016688  -0.036979   0.050847  -0.029229
     35      -0.127617   0.127341   0.122113  -0.129736   0.049764  -0.006649
                 24         25         26         27         28         29    
      0      -0.045977   0.000946  -0.000903   0.010809  -0.001451  -0.040124
      1      -0.013201  -0.001658   0.001271  -0.006477  -0.011924  -0.070768
      2       0.003653   0.007637  -0.006055  -0.002868  -0.002283  -0.009025
      3       0.094808   0.000229  -0.000208  -0.031708  -0.000808  -0.060649
      4       0.010181  -0.000032   0.000606  -0.003350  -0.001238   0.745869
      5      -0.011095   0.000203  -0.002710   0.003719  -0.000150   0.162301
      6      -0.047389  -0.001016  -0.001104   0.009375   0.003898   0.050795
      7       0.003209   0.001368   0.001525   0.009280  -0.010922  -0.060999
      8       0.007286  -0.006487  -0.007245   0.000631  -0.002812  -0.019637
      9      -0.006976  -0.000020   0.000180   0.005635  -0.000316   0.035952
     10      -0.000790   0.000037  -0.000330   0.000431   0.005829  -0.441534
     11       0.000807  -0.000111   0.001381  -0.000692   0.001253  -0.096086
     12      -0.065367   0.005949  -0.005194   0.013418   0.006521  -0.022500
     13       0.002372  -0.009218   0.007703  -0.038701  -0.040319   0.014441
     14       0.009477   0.044021  -0.036759  -0.010022  -0.009382   0.006133
     15       0.352970  -0.074047   0.063602   0.076349   0.127225   0.167462
     16      -0.323491   0.110541  -0.094240  -0.074831  -0.121142  -0.133513
     17      -0.114252  -0.544723   0.458426  -0.023801  -0.040553  -0.050901
     18       0.334430  -0.317722   0.270336  -0.093615  -0.054547   0.138470
     19       0.104021  -0.172966   0.145829   0.292824   0.317138   0.051604
     20      -0.021043  -0.041724   0.034816   0.367079   0.378371  -0.047369
     21       0.331647   0.305344  -0.257703  -0.172984  -0.136876   0.148611
     22       0.104601   0.196854  -0.165017   0.405280   0.434233   0.036686
     23      -0.028513  -0.054981   0.046381  -0.185784  -0.196602   0.025534
     24      -0.064011  -0.005348  -0.006196   0.006939   0.000491   0.019786
     25      -0.016356   0.007714   0.009052   0.043114  -0.038705   0.018961
     26       0.005748  -0.037182  -0.043660   0.008013  -0.008122   0.001168
     27       0.295027   0.064756   0.076194   0.068383  -0.101695  -0.143052
     28       0.394227  -0.093385  -0.111051   0.097509  -0.140891  -0.166783
     29       0.037455   0.459461   0.543525   0.009500  -0.013986  -0.014638
     30       0.344038   0.290121   0.344590  -0.036507  -0.008064  -0.143239
     31      -0.031556  -0.106901  -0.125368  -0.452436   0.424490   0.005455
     32      -0.050869  -0.018038  -0.021582   0.221736  -0.199986   0.059614
     33       0.346440  -0.276912  -0.329804  -0.116164   0.066207  -0.153230
     34      -0.031336   0.088193   0.103837  -0.332351   0.312643   0.020451
     35      -0.058412   0.099615   0.118159  -0.362601   0.344113  -0.013162
                 30         31         32         33         34         35    
      0       0.002098   0.001660  -0.000047  -0.000045  -0.000108  -0.000113
      1      -0.000042   0.000103   0.000072   0.000074  -0.000376  -0.000279
      2      -0.000300  -0.000209  -0.000352  -0.000360  -0.000061  -0.000041
      3      -0.003204   0.000190   0.000014  -0.000067  -0.001088   0.000571
      4      -0.000233  -0.003563  -0.000025   0.000083   0.000825   0.001456
      5       0.000399  -0.000761   0.000108  -0.000424   0.000323   0.000221
      6       0.002151  -0.001519   0.000066  -0.000019   0.000081   0.000206
      7       0.000499  -0.000221  -0.000100   0.000031  -0.000099  -0.000418
      8      -0.000195   0.000165   0.000481  -0.000148  -0.000032  -0.000115
      9       0.000003  -0.000127   0.000006  -0.000023   0.000283  -0.000121
     10      -0.000048   0.001563  -0.000007   0.000036  -0.000360  -0.000591
     11      -0.000011   0.000340   0.000043  -0.000166  -0.000114  -0.000106
     12       0.022830   0.024392   0.006670   0.011228   0.040804   0.008179
     13      -0.018768  -0.020115  -0.009679  -0.016286   0.082773   0.016444
     14      -0.007197  -0.007706   0.047254   0.079537   0.011168   0.002211
     15      -0.192421  -0.204667   0.000235   0.000376  -0.553995  -0.110224
     16      -0.235411  -0.249410  -0.002935  -0.004977  -0.680323  -0.135508
     17      -0.021739  -0.022919   0.008434   0.014227  -0.063081  -0.012581
     18      -0.095560  -0.102078  -0.077054  -0.129374   0.072320   0.014396
     19       0.304843   0.324054   0.260290   0.437836  -0.202492  -0.039971
     20      -0.291371  -0.309468  -0.236701  -0.398131   0.210757   0.041772
     21       0.000853   0.000364  -0.001928  -0.003467   0.003435   0.000749
     22       0.163216   0.173597  -0.143114  -0.240779  -0.099521  -0.019586
     23       0.402822   0.428148  -0.329402  -0.554062  -0.281057  -0.055694
     24       0.020478  -0.019371  -0.011137   0.006626   0.010606  -0.053622
     25       0.025006  -0.023719   0.016471  -0.009803  -0.014445   0.072459
     26       0.002240  -0.002131  -0.079479   0.047281  -0.004487   0.022551
     27      -0.239565   0.225557  -0.000708   0.000413  -0.130363   0.655749
     28       0.200871  -0.188337   0.001887  -0.001116   0.109638  -0.552151
     29       0.074670  -0.070138  -0.014815   0.008837   0.040704  -0.204887
     30      -0.060561   0.057472   0.073099  -0.043316   0.009223  -0.046633
     31      -0.179293   0.168983   0.248508  -0.147728   0.021072  -0.104845
     32      -0.420288   0.395493   0.546893  -0.325122   0.055017  -0.275226
     33       0.041903  -0.038957   0.059002  -0.035215  -0.004303   0.021092
     34      -0.332278   0.312959  -0.444704   0.264400   0.040885  -0.204178
     35       0.318258  -0.299518   0.405551  -0.241104  -0.042503   0.213092


-----------
IR SPECTRUM
-----------

 Mode    freq (cm**-1)   T**2         TX         TY         TZ
-------------------------------------------------------------------
   6:       115.82    0.004981  ( -0.004810   0.016487  -0.068452)
   7:       119.22    7.310187  ( -0.364886   0.537562  -2.624514)
   8:       135.49    3.120737  (  0.238700  -0.357811   1.713397)
   9:       203.33    0.000039  (  0.000499   0.004136  -0.004634)
  10:       237.41    6.595046  ( -0.207761   2.501325   0.543372)
  11:       350.30   27.094283  ( -5.140849  -0.551190   0.601785)
  12:       518.31    1.247180  ( -0.085631   1.087599   0.238693)
  13:       696.42    0.053932  ( -0.229295  -0.021042   0.030208)
  14:       787.92   29.382594  ( -0.733605   1.086174  -5.259719)
  15:       936.86   25.805606  (  0.402124  -4.948363  -1.075919)
  16:      1016.44   75.256726  (  8.568323   0.914172  -1.002428)
  17:      1159.98    4.052387  (  0.160733  -1.960187  -0.429207)
  18:      1186.59    0.000009  (  0.001067  -0.002039  -0.001886)
  19:      1190.94    1.477188  ( -0.160570   0.242699  -1.180044)
  20:      1215.76   15.945853  (  3.944472   0.420178  -0.458739)
  21:      1243.01    2.291951  ( -0.109654   1.475617   0.320126)
  22:      1337.07  804.150765  (-28.008043  -2.992020   3.278431)
  23:      1488.25    7.224370  (  0.230188  -2.616378  -0.570919)
  24:      1510.85   71.659963  (  8.359374   0.902549  -0.982976)
  25:      1513.43    0.085259  ( -0.003202   0.065981  -0.284422)
  26:      1513.88   11.564506  (  0.468498  -0.687114   3.297407)
  27:      1525.91    1.820415  (  1.337247   0.072629  -0.164043)
  28:      1526.99    6.982477  ( -0.170769   2.576069   0.563189)
  29:      1834.84  276.433117  ( -1.319401  16.195282   3.522091)
  30:      3071.70   54.951912  (  7.312793   0.867841  -0.849604)
  31:      3072.71    6.182815  (  0.422359  -2.385722  -0.559248)
  32:      3145.70    2.811084  ( -0.223561   0.342143  -1.626051)
  33:      3146.33   43.295578  (  0.905828  -1.313867   6.383479)
  34:      3179.58   15.581152  (  2.645591   2.921419   0.217516)
  35:      3180.27   19.829878  ( -2.242528   3.693083   1.078000)

The first frequency considered to be a vibration is 6
The total number of vibrations considered is 30


--------------------------
THERMOCHEMISTRY AT 298.15K
--------------------------

Temperature         ... 298.15 K
Pressure            ... 1.00 atm
Total Mass          ... 90.08 AMU

Throughout the following assumptions are being made:
  (1) The electronic state is orbitally nondegenerate
  (2) There are no thermally accessible electronically excited states
  (3) Hindered rotations indicated by low frequency modes are not
      treated as such but are treated as vibrations and this may
      cause some error
  (4) All equations used are the standard statistical mechanics
      equations for an ideal gas
  (5) All vibrations are strictly harmonic

freq.     115.82  E(vib)   ...       0.44 
freq.     119.22  E(vib)   ...       0.44 
freq.     135.49  E(vib)   ...       0.42 
freq.     203.33  E(vib)   ...       0.35 
freq.     237.41  E(vib)   ...       0.32 
freq.     350.30  E(vib)   ...       0.23 
freq.     518.31  E(vib)   ...       0.13 
freq.     696.42  E(vib)   ...       0.07 
freq.     787.92  E(vib)   ...       0.05 
freq.     936.86  E(vib)   ...       0.03 
freq.    1016.44  E(vib)   ...       0.02 
freq.    1159.98  E(vib)   ...       0.01 
freq.    1186.59  E(vib)   ...       0.01 
freq.    1190.94  E(vib)   ...       0.01 
freq.    1215.76  E(vib)   ...       0.01 
freq.    1243.01  E(vib)   ...       0.01 
freq.    1337.07  E(vib)   ...       0.01 
freq.    1488.25  E(vib)   ...       0.00 
freq.    1510.85  E(vib)   ...       0.00 
freq.    1513.43  E(vib)   ...       0.00 
freq.    1513.88  E(vib)   ...       0.00 
freq.    1525.91  E(vib)   ...       0.00 
freq.    1526.99  E(vib)   ...       0.00 
freq.    1834.84  E(vib)   ...       0.00 
freq.    3071.70  E(vib)   ...       0.00 
freq.    3072.71  E(vib)   ...       0.00 
freq.    3145.70  E(vib)   ...       0.00 
freq.    3146.33  E(vib)   ...       0.00 
freq.    3179.58  E(vib)   ...       0.00 
freq.    3180.27  E(vib)   ...       0.00 

------------
INNER ENERGY
------------

The inner energy is: U= E(el) + E(ZPE) + E(vib) + E(rot) + E(trans)
    E(el)   - is the total energy from the electronic structure calculation
              = E(kin-el) + E(nuc-el) + E(el-el) + E(nuc-nuc)
    E(ZPE)  - the the zero temperature vibrational energy from the frequency calculation
    E(vib)  - the the finite temperature correction to E(ZPE) due to population
              of excited vibrational states
    E(rot)  - is the rotational thermal energy
    E(trans)- is the translational thermal energy

Summary of contributions to the inner energy U:
Electronic energy                ...   -343.42376701 Eh
Zero point energy                ...      0.09605049 Eh      60.27 kcal/mol
Thermal vibrational correction   ...      0.00410508 Eh       2.58 kcal/mol
Thermal rotational correction    ...      0.00141627 Eh       0.89 kcal/mol
Thermal translational correction ...      0.00141627 Eh       0.89 kcal/mol
-----------------------------------------------------------------------
Total thermal energy                   -343.32077889 Eh


Summary of corrections to the electronic energy:
(perhaps to be used in another calculation)
Total thermal correction                  0.00693763 Eh       4.35 kcal/mol
Non-thermal (ZPE) correction              0.09605049 Eh      60.27 kcal/mol
-----------------------------------------------------------------------
Total correction                          0.10298812 Eh      64.63 kcal/mol


--------
ENTHALPY
--------

The enthalpy is H = U + kB*T
                kB is Boltzmann's constant
Total free energy                 ...   -343.32077889 Eh 
Thermal Enthalpy correction       ...      0.00094421 Eh       0.59 kcal/mol
-----------------------------------------------------------------------
Total Enthalpy                    ...   -343.31983468 Eh


Note: Rotational entropy computed according to Herzberg 
Infrared and Raman Spectra, Chapter V,1, Van Nostrand Reinhold, 1945 
Point Group:  C1, Symmetry Number:   1  
Rotational constants in cm-1:     0.344656     0.078453     0.065494 

Vibrational entropy computed according to the QRRHO of S. Grimme
Chem.Eur.J. 2012 18 9955


-------
ENTROPY
-------

The entropy contributions are T*S = T*(S(el)+S(vib)+S(rot)+S(trans))
     S(el)   - electronic entropy
     S(vib)  - vibrational entropy
     S(rot)  - rotational entropy
     S(trans)- translational entropy
The entropies will be listed as mutliplied by the temperature to get
units of energy

Electronic entropy                ...      0.00000000 Eh      0.00 kcal/mol
Vibrational entropy               ...      0.00737568 Eh      4.63 kcal/mol
Rotational entropy                ...      0.01250210 Eh      7.85 kcal/mol
Translational entropy             ...      0.01872325 Eh     11.75 kcal/mol
-----------------------------------------------------------------------
Final entropy term                ...      0.03860103 Eh     24.22 kcal/mol


-------------------
GIBBS FREE ENTHALPY
-------------------

The Gibbs free enthalpy is G = H - T*S

Total enthalpy                    ...   -343.31983468 Eh 
Total entropy correction          ...     -0.03860103 Eh    -24.22 kcal/mol
-----------------------------------------------------------------------
Final Gibbs free enthalpy         ...   -343.35843571 Eh

For completeness - the Gibbs free enthalpy minus the electronic energy
G-E(el)                           ...      0.06533130 Eh     41.00 kcal/mol


Timings for individual modules:

Sum of individual times         ...      235.111 sec (=   3.919 min)
GTO integral calculation        ...        0.303 sec (=   0.005 min)   0.1 %
SCF iterations                  ...       15.738 sec (=   0.262 min)   6.7 %
Analytical frequency calculation...      219.070 sec (=   3.651 min)  93.2 %
                             ****ORCA TERMINATED NORMALLY****
TOTAL RUN TIME: 0 days 0 hours 3 minutes 55 seconds 442 msec
