
                                 *****************
                                 * O   R   C   A *
                                 *****************

           --- An Ab Initio, DFT and Semiempirical electronic structure package ---

                  #######################################################
                  #                        -***-                        #
                  #          Department of theory and spectroscopy      #
                  #               Directorship: Frank Neese             #
                  #        Max Planck Institute fuer Kohlenforschung    #
                  #                Kaiser Wilhelm Platz 1               #
                  #                 D-45470 Muelheim/Ruhr               #
                  #                      Germany                        #
                  #                                                     #
                  #                  All rights reserved                #
                  #                        -***-                        #
                  #######################################################


                         Program Version 4.1.0  - RELEASE  -


 With contributions from (in alphabetic order):
   Daniel Aravena         : Magnetic Properties
   Michael Atanasov       : Ab Initio Ligand Field Theory
   Alexander A. Auer      : GIAO ZORA
   Ute Becker             : Parallelization
   Giovanni Bistoni       : ED, Open-shell LED
   Martin Brehm           : Molecular dynamics
   Dmytro Bykov           : SCF Hessian
   Vijay G. Chilkuri      : MRCI spin determinant printing
   Dipayan Datta          : RHF DLPNO-CCSD density
   Achintya Kumar Dutta   : EOM-CC, STEOM-CC
   Dmitry Ganyushin       : Spin-Orbit,Spin-Spin,Magnetic field MRCI
   Miquel Garcia          : C-PCM Hessian
   Yang Guo               : DLPNO-NEVPT2, CIM, IAO-localization
   Andreas Hansen         : Spin unrestricted coupled pair/coupled cluster methods
   Benjamin Helmich-Paris : CASSCF linear response (MC-RPA)
   Lee Huntington         : MR-EOM, pCC
   Robert Izsak           : Overlap fitted RIJCOSX, COSX-SCS-MP3, EOM
   Christian Kollmar      : KDIIS, OOCD, Brueckner-CCSD(T), CCSD density
   Simone Kossmann        : Meta GGA functionals, TD-DFT gradient, OOMP2, MP2 Hessian
   Martin Krupicka        : AUTO-CI
   Lucas Lang             : DCDCAS
   Dagmar Lenk            : GEPOL surface, SMD
   Dimitrios Liakos       : Extrapolation schemes; parallel MDCI
   Dimitrios Manganas     : ROCIS; embedding schemes
   Dimitrios Pantazis     : SARC Basis sets
   Taras Petrenko         : DFT Hessian,TD-DFT gradient, ASA, ECA, R-Raman, ABS, FL, XAS/XES, NRVS
   Peter Pinski           : DLPNO-MP2, DLPNO-MP2 Gradient
   Christoph Reimann      : Effective Core Potentials
   Marius Retegan         : Local ZFS, SOC
   Christoph Riplinger    : Optimizer, TS searches, QM/MM, DLPNO-CCSD(T), (RO)-DLPNO pert. Triples
   Tobias Risthaus        : Range-separated hybrids, TD-DFT gradient, RPA, STAB
   Michael Roemelt        : Restricted open shell CIS
   Masaaki Saitow         : Open-shell DLPNO
   Barbara Sandhoefer     : DKH picture change effects
   Avijit Sen             : IP-ROCIS
   Kantharuban Sivalingam : CASSCF convergence, NEVPT2, FIC-MRCI
   Bernardo de Souza      : ESD, SOC TD-DFT
   Georgi Stoychev        : AutoAux, RI-MP2 NMR
   Willem Van den Heuvel  : Paramagnetic NMR
   Boris Wezisla          : Elementary symmetry handling
   Frank Wennmohs         : Technical directorship


 We gratefully acknowledge several colleagues who have allowed us to
 interface, adapt or use parts of their codes:
   Stefan Grimme, W. Hujo, H. Kruse,             : VdW corrections, initial TS optimization,
                  C. Bannwarth                     DFT functionals, gCP, sTDA/sTD-DF
   Ed Valeev                                     : LibInt (2-el integral package), F12 methods
   Garnet Chan, S. Sharma, J. Yang, R. Olivares  : DMRG
   Ulf Ekstrom                                   : XCFun DFT Library
   Mihaly Kallay                                 : mrcc  (arbitrary order and MRCC methods)
   Andreas Klamt, Michael Diedenhofen            : otool_cosmo (COSMO solvation model)
   Jiri Pittner, Ondrej Demel                    : Mk-CCSD
   Frank Weinhold                                : gennbo (NPA and NBO analysis)
   Christopher J. Cramer and Donald G. Truhlar   : smd solvation model
   Lars Goerigk                                  : TD-DFT with DH, B97 family of functionals
   V. Asgeirsson, H. Jonsson                     : NEB implementation
   FAccTs GmbH                                   : IRC, NEB, NEB-TS, Multilevel


 Your calculation uses the libint2 library for the computation of 2-el integrals
 For citations please refer to: http://libint.valeyev.net

 This ORCA versions uses:
   CBLAS   interface :  Fast vector & matrix operations
   LAPACKE interface :  Fast linear algebra routines
   SCALAPACK package :  Parallel linear algebra routines




***************************************
The coordinates will be read from file: /Users/lailaal-madhagi/Desktop/Testing_XAS_Analysis_code/Dicyanoimidazole//Results_dir_Dicyanoimidazole_geom_element_C_2019-11-10_14-17-23//GTE1_Dicyanoimidazole_geom_2019-11-10_14-17-43//opt.xyz
***************************************


----- Orbital basis set information -----
Your calculation utilizes the basis: 6-31G*
   H-He, Li-Ne : W. J. Hehre, R. Ditchfield and J.A. Pople, J. Chem. Phys. 56, 2257 (1972).
                 Note: He and Ne are unpublished basis sets taken from the Gaussian program.
                 Note: Li and B from J. D. Dill and J. A. Pople, J. Chem. Phys. 62, 2921 (1975).
   Na - Ar     : M. M. Francl, W. J. Pietro, W. J. Hehre, J. S. Binkley, M. S. Gordon, 
                 D. J. DeFrees and J. A. Pople, J. Chem. Phys. 77, 3654 (1982).
   K - Zn      : V. A. Rassolov, J. A. Pople, M. A. Ratner, and T. L. Windus, J. Chem. Phys. 109, 1223 (1998).

================================================================================
                                        WARNINGS
                       Please study these warnings very carefully!
================================================================================


INFO   : the flag for use of LIBINT has been found!

================================================================================
                                       INPUT FILE
================================================================================
NAME = /Users/lailaal-madhagi/Desktop/Testing_XAS_Analysis_code/Dicyanoimidazole//Results_dir_Dicyanoimidazole_geom_element_C_2019-11-10_14-17-23//GTE1_Dicyanoimidazole_geom_2019-11-10_14-17-43//freq.inp
|  1> ! B3LYP 6-31G* TIGHTSCF Grid3 FinalGrid5 Freq 
|  2> !NormalPrint 
|  3> %output 
|  4> Print[P_Basis] 2 
|  5> Print[P_MOS] 1 
|  6> end 
|  7> *xyzfile 0 1 /Users/lailaal-madhagi/Desktop/Testing_XAS_Analysis_code/Dicyanoimidazole//Results_dir_Dicyanoimidazole_geom_element_C_2019-11-10_14-17-23//GTE1_Dicyanoimidazole_geom_2019-11-10_14-17-43//opt.xyz                           ****END OF INPUT****
================================================================================

                       ****************************
                       * Single Point Calculation *
                       ****************************

---------------------------------
CARTESIAN COORDINATES (ANGSTROEM)
---------------------------------
  C     -4.674690    0.896194   -0.023405
  C     -6.066971    0.900664   -0.088215
  N     -6.416053   -0.433180   -0.151427
  C     -5.261220   -1.157377   -0.123253
  N     -4.195582   -0.390310   -0.046544
  H     -7.361909   -0.788102   -0.207669
  C     -3.822697    2.035207    0.056514
  C     -7.015273    1.949067   -0.095502
  N     -7.804320    2.805112   -0.102146
  N     -3.137397    2.972026    0.121524
  H     -5.255288   -2.238349   -0.161047

----------------------------
CARTESIAN COORDINATES (A.U.)
----------------------------
  NO LB      ZA    FRAG     MASS         X           Y           Z
   0 C     6.0000    0    12.011   -8.833884    1.693560   -0.044229
   1 C     6.0000    0    12.011  -11.464914    1.702008   -0.166703
   2 N     7.0000    0    14.007  -12.124583   -0.818591   -0.286155
   3 C     6.0000    0    12.011   -9.942264   -2.187126   -0.232915
   4 N     7.0000    0    14.007   -7.928502   -0.737579   -0.087956
   5 H     1.0000    0     1.008  -13.911993   -1.489297   -0.392438
   6 C     6.0000    0    12.011   -7.223850    3.845983    0.106797
   7 C     6.0000    0    12.011  -13.256944    3.683203   -0.180472
   8 N     7.0000    0    14.007  -14.748027    5.300893   -0.193027
   9 N     7.0000    0    14.007   -5.928822    5.616315    0.229648
  10 H     1.0000    0     1.008   -9.931055   -4.229868   -0.304335

--------------------------------
INTERNAL COORDINATES (ANGSTROEM)
--------------------------------
 C      0   0   0     0.000000000000     0.00000000     0.00000000
 C      1   0   0     1.393796040457     0.00000000     0.00000000
 N      2   1   0     1.380214984321   104.57654593     0.00000000
 C      3   2   1     1.363413091395   107.34636020     0.00000000
 N      4   3   2     1.315241149769   112.19088388     0.00000000
 H      3   2   1     1.011819004090   125.30768181   179.97372897
 C      1   2   3     1.424650927331   126.68610436   180.00474126
 C      2   1   3     1.413675039566   132.27540700   179.99549604
 N      8   2   1     1.164238845024   179.46115183   179.96766878
 N      7   1   2     1.162536756983   179.39012497     0.00000000
 H      4   3   2     1.081648973879   122.32734635   179.99955252

---------------------------
INTERNAL COORDINATES (A.U.)
---------------------------
 C      0   0   0     0.000000000000     0.00000000     0.00000000
 C      1   0   0     2.633892803007     0.00000000     0.00000000
 N      2   1   0     2.608228326300   104.57654593     0.00000000
 C      3   2   1     2.576477350140   107.34636020     0.00000000
 N      4   3   2     2.485445573126   112.19088388     0.00000000
 H      3   2   1     1.912060814828   125.30768181   179.97372897
 C      1   2   3     2.692200089092   126.68610436   180.00474126
 C      2   1   3     2.671458667140   132.27540700   179.99549604
 N      8   2   1     2.200092571568   179.46115183   179.96766878
 N      7   1   2     2.196876091314   179.39012497     0.00000000
 H      4   3   2     2.044020333668   122.32734635   179.99955252

---------------------
BASIS SET INFORMATION
---------------------
There are 3 groups of distinct atoms

 Group   1 Type C   : 10s4p1d contracted to 3s2p1d pattern {631/31/1}
 Group   2 Type N   : 10s4p1d contracted to 3s2p1d pattern {631/31/1}
 Group   3 Type H   : 4s contracted to 2s pattern {31}

Atom   0C    basis set group =>   1
Atom   1C    basis set group =>   1
Atom   2N    basis set group =>   2
Atom   3C    basis set group =>   1
Atom   4N    basis set group =>   2
Atom   5H    basis set group =>   3
Atom   6C    basis set group =>   1
Atom   7C    basis set group =>   1
Atom   8N    basis set group =>   2
Atom   9N    basis set group =>   2
Atom  10H    basis set group =>   3

-------------------------
BASIS SET IN INPUT FORMAT
-------------------------

 # Basis set for element : H 
 NewGTO H 
 S 3 
   1      18.7311370000      0.0334945995
   2       2.8253937000      0.2347269467
   3       0.6401217000      0.8137573184
 S 1 
   1       0.1612778000      1.0000000000
  end;

 # Basis set for element : C 
 NewGTO C 
 S 6 
   1    3047.5249000000      0.0018347002
   2     457.3695100000      0.0140373012
   3     103.9486900000      0.0688426061
   4      29.2101550000      0.2321844206
   5       9.2866630000      0.4679413416
   6       3.1639270000      0.3623120322
 S 3 
   1       7.8682724000     -0.1193324086
   2       1.8812885000     -0.1608542116
   3       0.5442493000      1.1434564826
 P 3 
   1       7.8682724000      0.0689990956
   2       1.8812885000      0.3164239798
   3       0.5442493000      0.7443082524
 S 1 
   1       0.1687144000      1.0000000000
 P 1 
   1       0.1687144000      1.0000000000
 D 1 
   1       0.8000000000      1.0000000000
  end;

 # Basis set for element : N 
 NewGTO N 
 S 6 
   1    4173.5110000000      0.0018347994
   2     627.4579000000      0.0139949958
   3     142.9021000000      0.0685869792
   4      40.2343300000      0.2322409295
   5      12.8202100000      0.4690698576
   6       4.3904370000      0.3604548906
 S 3 
   1      11.6263580000     -0.1149610229
   2       2.7162800000     -0.1691180337
   3       0.7722180000      1.1458522281
 P 3 
   1      11.6263580000      0.0675800232
   2       2.7162800000      0.3239071114
   3       0.7722180000      0.7408952549
 S 1 
   1       0.2120313000      1.0000000000
 P 1 
   1       0.2120313000      1.0000000000
 D 1 
   1       0.8000000000      1.0000000000
  end;

------------------------------------------------------------------------------
                           ORCA GTO INTEGRAL CALCULATION
------------------------------------------------------------------------------

                         BASIS SET STATISTICS AND STARTUP INFO

 # of primitive gaussian shells          ...  143
 # of primitive gaussian functions       ...  251
 # of contracted shells                  ...   58
 # of contracted basis functions         ...  130
 Highest angular momentum                ...    2
 Maximum contraction depth               ...    6
 Integral package used                   ... LIBINT
 Integral threshhold            Thresh   ...  2.500e-11
 Primitive cut-off              TCut     ...  2.500e-12


------------------------------ INTEGRAL EVALUATION ----------------------------


 * One electron integrals 
 Pre-screening matrix                    ... done
 Shell pair data                         ... done (   0.001 sec)

-------------------------------------------------------------------------------
                                 ORCA SCF
-------------------------------------------------------------------------------

------------
SCF SETTINGS
------------
Hamiltonian:
 Density Functional     Method          .... DFT(GTOs)
 Exchange Functional    Exchange        .... B88
   X-Alpha parameter    XAlpha          ....  0.666667
   Becke's b parameter  XBeta           ....  0.004200
 Correlation Functional Correlation     .... LYP
 LDA part of GGA corr.  LDAOpt          .... VWN-5
 Gradients option       PostSCFGGA      .... off
 Hybrid DFT is turned on
   Fraction HF Exchange ScalHFX         ....  0.200000
   Scaling of DF-GGA-X  ScalDFX         ....  0.720000
   Scaling of DF-GGA-C  ScalDFC         ....  0.810000
   Scaling of DF-LDA-C  ScalLDAC        ....  1.000000
   Perturbative correction              ....  0.000000
   Density functional embedding theory  .... OFF
   NL short-range parameter             ....  4.800000


General Settings:
 Integral files         IntName         .... /Users/lailaal-madhagi/Desktop/Testing_XAS_Analysis_code/Dicyanoimidazole//Results_dir_Dicyanoimidazole_geom_element_C_2019-11-10_14-17-23//GTE1_Dicyanoimidazole_geom_2019-11-10_14-17-43//freq
 Hartree-Fock type      HFTyp           .... RHF
 Total Charge           Charge          ....    0
 Multiplicity           Mult            ....    1
 Number of Electrons    NEL             ....   60
 Basis Dimension        Dim             ....  130
 Nuclear Repulsion      ENuc            ....    360.0715349722 Eh

Convergence Acceleration:
 DIIS                   CNVDIIS         .... on
   Start iteration      DIISMaxIt       ....    12
   Startup error        DIISStart       ....  0.200000
   # of expansion vecs  DIISMaxEq       ....     5
   Bias factor          DIISBfac        ....   1.050
   Max. coefficient     DIISMaxC        ....  10.000
 Newton-Raphson         CNVNR           .... off
 SOSCF                  CNVSOSCF        .... on
   Start iteration      SOSCFMaxIt      ....   150
   Startup grad/error   SOSCFStart      ....  0.003300
 Level Shifting         CNVShift        .... on
   Level shift para.    LevelShift      ....    0.2500
   Turn off err/grad.   ShiftErr        ....    0.0010
 Zerner damping         CNVZerner       .... off
 Static damping         CNVDamp         .... on
   Fraction old density DampFac         ....    0.7000
   Max. Damping (<1)    DampMax         ....    0.9800
   Min. Damping (>=0)   DampMin         ....    0.0000
   Turn off err/grad.   DampErr         ....    0.1000
 Fernandez-Rico         CNVRico         .... off

SCF Procedure:
 Maximum # iterations   MaxIter         ....   125
 SCF integral mode      SCFMode         .... Direct
   Integral package                     .... LIBINT
 Reset frequency        DirectResetFreq ....    20
 Integral Threshold     Thresh          ....  2.500e-11 Eh
 Primitive CutOff       TCut            ....  2.500e-12 Eh

Convergence Tolerance:
 Convergence Check Mode ConvCheckMode   .... Total+1el-Energy
 Convergence forced     ConvForced      .... 0
 Energy Change          TolE            ....  1.000e-08 Eh
 1-El. energy change                    ....  1.000e-05 Eh
 Orbital Gradient       TolG            ....  1.000e-05
 Orbital Rotation angle TolX            ....  1.000e-05
 DIIS Error             TolErr          ....  5.000e-07


Diagonalization of the overlap matrix:
Smallest eigenvalue                        ... 5.654e-04
Time for diagonalization                   ...    0.003 sec
Threshold for overlap eigenvalues          ... 1.000e-08
Number of eigenvalues below threshold      ... 0
Time for construction of square roots      ...    0.001 sec
Total time needed                          ...    0.004 sec

-------------------
DFT GRID GENERATION
-------------------

General Integration Accuracy     IntAcc      ...  4.340
Radial Grid Type                 RadialGrid  ... Gauss-Chebyshev
Angular Grid (max. acc.)         AngularGrid ... Lebedev-194
Angular grid pruning method      GridPruning ... 3 (G Style)
Weight generation scheme         WeightScheme... Becke
Basis function cutoff            BFCut       ...    1.0000e-11
Integration weight cutoff        WCut        ...    1.0000e-14
Grids for H and He will be reduced by one unit

# of grid points (after initial pruning)     ...  32766 (   0.0 sec)
# of grid points (after weights+screening)   ...  30895 (   0.0 sec)
nearest neighbour list constructed           ...    0.0 sec
Grid point re-assignment to atoms done       ...    0.0 sec
Grid point division into batches done        ...    0.1 sec
Reduced shell lists constructed in    0.2 sec

Total number of grid points                  ...    30895
Total number of batches                      ...      488
Average number of points per batch           ...       63
Average number of grid points per atom       ...     2809
Average number of shells per batch           ...    38.42 (66.24%)
Average number of basis functions per batch  ...    88.61 (68.16%)
Average number of large shells per batch     ...    29.73 (77.38%)
Average number of large basis fcns per batch ...    68.40 (77.19%)
Maximum spatial batch extension              ...  17.73, 19.35, 22.17 au
Average spatial batch extension              ...   3.32,  3.25,  3.84 au

Time for grid setup =    0.225 sec

------------------------------
INITIAL GUESS: MODEL POTENTIAL
------------------------------
Loading Hartree-Fock densities                     ... done
Calculating cut-offs                               ... done
Setting up the integral package                    ... done
Initializing the effective Hamiltonian             ... done
Starting the Coulomb interaction                   ... done (   0.0 sec)
Reading the grid                                   ... done
Mapping shells                                     ... done
Starting the XC term evaluation                    ... done (   0.2 sec)
  promolecular density results
     # of electrons  =     59.998383882
     EX              =    -52.487630730
     EC              =     -2.073024286
     EX+EC           =    -54.560655016
Transforming the Hamiltonian                       ... done (   0.0 sec)
Diagonalizing the Hamiltonian                      ... done (   0.0 sec)
Back transforming the eigenvectors                 ... done (   0.0 sec)
Now organizing SCF variables                       ... done
                      ------------------
                      INITIAL GUESS DONE (   0.5 sec)
                      ------------------
--------------
SCF ITERATIONS
--------------
               ***  Starting incremental Fock matrix formation  ***

                         ----------------------------
                         !        ITERATION     0   !
                         ----------------------------
   Total Energy        :    -410.199358771141 Eh
   Energy Change       :    -410.199358771141 Eh
   MAX-DP              :       0.100839135085
   RMS-DP              :       0.004525914797
   Actual Damping      :       0.7000
   Actual Level Shift  :       0.2500 Eh
   Int. Num. El.       :    59.99963730 (UP=   29.99981865 DN=   29.99981865)
   Exchange            :   -42.70099697
   Correlation         :    -2.46478653


                         ----------------------------
                         !        ITERATION     1   !
                         ----------------------------
   Total Energy        :    -410.333363908683 Eh
   Energy Change       :      -0.134005137542 Eh
   MAX-DP              :       0.053834978937
   RMS-DP              :       0.002596150704
   Actual Damping      :       0.7000
   Actual Level Shift  :       0.2500 Eh
   Int. Num. El.       :    59.99960712 (UP=   29.99980356 DN=   29.99980356)
   Exchange            :   -42.42991562
   Correlation         :    -2.45614173

                               ***Turning on DIIS***

                         ----------------------------
                         !        ITERATION     2   !
                         ----------------------------
   Total Energy        :    -410.369599757753 Eh
   Energy Change       :      -0.036235849070 Eh
   MAX-DP              :       0.071763003643
   RMS-DP              :       0.003257728088
   Actual Damping      :       0.0000
   Actual Level Shift  :       0.2500 Eh
   Int. Num. El.       :    59.99958438 (UP=   29.99979219 DN=   29.99979219)
   Exchange            :   -42.26309201
   Correlation         :    -2.45034432
   DIIS-Error          :       0.040243577134


                         ----------------------------
                         !        ITERATION     3   !
                         ----------------------------
   Total Energy        :    -410.451064551096 Eh
   Energy Change       :      -0.081464793343 Eh
   MAX-DP              :       0.048297666774
   RMS-DP              :       0.002170850494
   Actual Damping      :       0.0000
   Actual Level Shift  :       0.2500 Eh
   Int. Num. El.       :    59.99954824 (UP=   29.99977412 DN=   29.99977412)
   Exchange            :   -42.03533036
   Correlation         :    -2.44115877
   DIIS-Error          :       0.043296720048
   DIIS coefficients:
      0.49960   0.50040


                         ----------------------------
                         !        ITERATION     4   !
                         ----------------------------
   Total Energy        :    -410.457723758046 Eh
   Energy Change       :      -0.006659206950 Eh
   MAX-DP              :       0.012712699097
   RMS-DP              :       0.000580732253
   Actual Damping      :       0.0000
   Actual Level Shift  :       0.2500 Eh
   Int. Num. El.       :    59.99956481 (UP=   29.99978241 DN=   29.99978241)
   Exchange            :   -42.14356802
   Correlation         :    -2.44482560
   DIIS-Error          :       0.041876342419
   DIIS coefficients:
      0.30057   0.24638   0.45305


                         ----------------------------
                         !        ITERATION     5   !
                         ----------------------------
   Total Energy        :    -410.461653669177 Eh
   Energy Change       :      -0.003929911131 Eh
   MAX-DP              :       0.003740198431
   RMS-DP              :       0.000163303571
   Actual Damping      :       0.0000
   Actual Level Shift  :       0.2500 Eh
   Int. Num. El.       :    59.99956859 (UP=   29.99978430 DN=   29.99978430)
   Exchange            :   -42.14698196
   Correlation         :    -2.44522298
   DIIS-Error          :       0.008227211497
   DIIS coefficients:
      0.08578   0.09588  -0.04691   0.86525


                         ----------------------------
                         !        ITERATION     6   !
                         ----------------------------
   Total Energy        :    -410.461878252819 Eh
   Energy Change       :      -0.000224583642 Eh
   MAX-DP              :       0.001408473048
   RMS-DP              :       0.000057597875
   Actual Damping      :       0.0000
   Actual Level Shift  :       0.2500 Eh
   Int. Num. El.       :    59.99956901 (UP=   29.99978450 DN=   29.99978450)
   Exchange            :   -42.15047515
   Correlation         :    -2.44543314
   DIIS-Error          :       0.003674040886
   DIIS coefficients:
      0.01421   0.02593  -0.07400   0.25172   0.78213

                      *** Initiating the SOSCF procedure ***
                           *** Shutting down DIIS ***
                      *** Re-Reading the Fockian *** 
                      *** Removing any level shift *** 

                         ----------------------------
                         !        ITERATION     7   !
                         ----------------------------
   Total Energy        :    -410.461906198800 Eh
   Energy Change       :      -0.000027945981 Eh
   MAX-DP              :       0.000930147908
   RMS-DP              :       0.000027224181
   Orbital gradient    :       0.000155892234
   Orbital Rotation    :       0.000155892234
   Actual Damping      :       0.0000
   Int. Num. El.       :    59.99956880 (UP=   29.99978440 DN=   29.99978440)
   Exchange            :   -42.14965776
   Correlation         :    -2.44541355

               *** Restarting incremental Fock matrix formation ***

                         ----------------------------
                         !        ITERATION     8   !
                         ----------------------------
   Total Energy        :    -410.461907274679 Eh
   Energy Change       :      -0.000001075880 Eh
   MAX-DP              :       0.000955664879
   RMS-DP              :       0.000034252042
   Orbital gradient    :       0.000227676081
   Orbital Rotation    :       0.000664883385
   Actual Damping      :       0.0000
   Int. Num. El.       :    59.99956869 (UP=   29.99978435 DN=   29.99978435)
   Exchange            :   -42.14931007
   Correlation         :    -2.44540533


                         ----------------------------
                         !        ITERATION     9   !
                         ----------------------------
   Total Energy        :    -410.461903989028 Eh
   Energy Change       :       0.000003285652 Eh
   MAX-DP              :       0.000630138586
   RMS-DP              :       0.000023587115
   Orbital gradient    :       0.000654777063
   Orbital Rotation    :       0.000545363637
   Actual Damping      :       0.0000
   Int. Num. El.       :    59.99956866 (UP=   29.99978433 DN=   29.99978433)
   Exchange            :   -42.14943458
   Correlation         :    -2.44540482


                         ----------------------------
                         !        ITERATION    10   !
                         ----------------------------
   Total Energy        :    -410.461908020049 Eh
   Energy Change       :      -0.000004031021 Eh
   MAX-DP              :       0.000244631021
   RMS-DP              :       0.000009179473
   Orbital gradient    :       0.000073844741
   Orbital Rotation    :       0.000164061229
   Actual Damping      :       0.0000
   Int. Num. El.       :    59.99956867 (UP=   29.99978433 DN=   29.99978433)
   Exchange            :   -42.14924758
   Correlation         :    -2.44540256


                         ----------------------------
                         !        ITERATION    11   !
                         ----------------------------
   Total Energy        :    -410.461907791972 Eh
   Energy Change       :       0.000000228077 Eh
   MAX-DP              :       0.000179524728
   RMS-DP              :       0.000006239002
   Orbital gradient    :       0.000116892445
   Orbital Rotation    :       0.000112301076
   Actual Damping      :       0.0000
   Int. Num. El.       :    59.99956870 (UP=   29.99978435 DN=   29.99978435)
   Exchange            :   -42.14945150
   Correlation         :    -2.44540788


                         ----------------------------
                         !        ITERATION    12   !
                         ----------------------------
   Total Energy        :    -410.461908099790 Eh
   Energy Change       :      -0.000000307818 Eh
   MAX-DP              :       0.000097854759
   RMS-DP              :       0.000002771794
   Orbital gradient    :       0.000018290733
   Orbital Rotation    :       0.000066537551
   Actual Damping      :       0.0000
   Int. Num. El.       :    59.99956868 (UP=   29.99978434 DN=   29.99978434)
   Exchange            :   -42.14931695
   Correlation         :    -2.44540443


                         ----------------------------
                         !        ITERATION    13   !
                         ----------------------------
   Total Energy        :    -410.461908077455 Eh
   Energy Change       :       0.000000022334 Eh
   MAX-DP              :       0.000065072357
   RMS-DP              :       0.000001874164
   Orbital gradient    :       0.000044117003
   Orbital Rotation    :       0.000035200555
   Actual Damping      :       0.0000
   Int. Num. El.       :    59.99956868 (UP=   29.99978434 DN=   29.99978434)
   Exchange            :   -42.14931672
   Correlation         :    -2.44540412


                         ----------------------------
                         !        ITERATION    14   !
                         ----------------------------
   Total Energy        :    -410.461908105739 Eh
   Energy Change       :      -0.000000028284 Eh
   MAX-DP              :       0.000024087960
   RMS-DP              :       0.000000818714
   Orbital gradient    :       0.000006577488
   Orbital Rotation    :       0.000028171520
   Actual Damping      :       0.0000
   Int. Num. El.       :    59.99956868 (UP=   29.99978434 DN=   29.99978434)
   Exchange            :   -42.14931529
   Correlation         :    -2.44540429

                 **** Energy Check signals convergence ****
              ***Rediagonalizing the Fockian in SOSCF/NRSCF***

               *****************************************************
               *                     SUCCESS                       *
               *           SCF CONVERGED AFTER  15 CYCLES          *
               *****************************************************

Setting up the final grid:

General Integration Accuracy     IntAcc      ...  5.010
Radial Grid Type                 RadialGrid  ... Gauss-Chebyshev
Angular Grid (max. acc.)         AngularGrid ... Lebedev-434
Angular grid pruning method      GridPruning ... 3 (G Style)
Weight generation scheme         WeightScheme... Becke
Basis function cutoff            BFCut       ...    1.0000e-11
Integration weight cutoff        WCut        ...    1.0000e-14
Grids for H and He will be reduced by one unit

# of grid points (after initial pruning)     ... 109234 (   0.0 sec)
# of grid points (after weights+screening)   ... 102269 (   0.1 sec)
nearest neighbour list constructed           ...    0.0 sec
Grid point re-assignment to atoms done       ...    0.0 sec
Grid point division into batches done        ...    0.6 sec
Reduced shell lists constructed in    1.0 sec

Total number of grid points                  ...   102269
Total number of batches                      ...     1603
Average number of points per batch           ...       63
Average number of grid points per atom       ...     9297
Average number of shells per batch           ...    35.55 (61.30%)
Average number of basis functions per batch  ...    81.53 (62.72%)
Average number of large shells per batch     ...    27.25 (76.66%)
Average number of large basis fcns per batch ...    62.63 (76.82%)
Maximum spatial batch extension              ...  20.66, 19.21, 24.08 au
Average spatial batch extension              ...   2.25,  2.23,  2.50 au

Final grid set up in    1.2 sec
Final integration                            ... done (   0.7 sec)
Change in XC energy                          ...    -0.000113513
Integrated number of electrons               ...    59.999993124
Previous integrated no of electrons          ...    59.999568680

----------------
TOTAL SCF ENERGY
----------------

Total Energy       :         -410.46202162 Eh          -11169.23944 eV

Components:
Nuclear Repulsion  :          360.07153497 Eh            9798.04459 eV
Electronic Energy  :         -770.53355659 Eh          -20967.28403 eV
One Electron Energy:        -1267.40633971 Eh          -34487.87983 eV
Two Electron Energy:          496.87278312 Eh           13520.59580 eV

Virial components:
Potential Energy   :         -818.32566182 Eh          -22267.77333 eV
Kinetic Energy     :          407.86364021 Eh           11098.53389 eV
Virial Ratio       :            2.00637071


DFT components:
N(Alpha)           :       29.999996562222 electrons
N(Beta)            :       29.999996562222 electrons
N(Total)           :       59.999993124443 electrons
E(X)               :      -42.149437534621 Eh       
E(C)               :       -2.445406300745 Eh       
E(XC)              :      -44.594843835365 Eh       
DFET-embed. en.    :        0.000000000000 Eh       

---------------
SCF CONVERGENCE
---------------

  Last Energy change         ...    1.9372e-09  Tolerance :   1.0000e-08
  Last MAX-Density change    ...    1.6107e-05  Tolerance :   1.0000e-07
  Last RMS-Density change    ...    5.5582e-07  Tolerance :   5.0000e-09
  Last Orbital Gradient      ...    1.2930e-05  Tolerance :   1.0000e-05
  Last Orbital Rotation      ...    1.8987e-05  Tolerance :   1.0000e-05

             **** THE GBW FILE WAS UPDATED (/Users/lailaal-madhagi/Desktop/Testing_XAS_Analysis_code/Dicyanoimidazole//Results_dir_Dicyanoimidazole_geom_element_C_2019-11-10_14-17-23//GTE1_Dicyanoimidazole_geom_2019-11-10_14-17-43//freq.gbw) ****
             **** DENSITY FILE WAS UPDATED (/Users/lailaal-madhagi/Desktop/Testing_XAS_Analysis_code/Dicyanoimidazole//Results_dir_Dicyanoimidazole_geom_element_C_2019-11-10_14-17-23//GTE1_Dicyanoimidazole_geom_2019-11-10_14-17-43//freq.scfp.tmp) ****
             **** ENERGY FILE WAS UPDATED (/Users/lailaal-madhagi/Desktop/Testing_XAS_Analysis_code/Dicyanoimidazole//Results_dir_Dicyanoimidazole_geom_element_C_2019-11-10_14-17-23//GTE1_Dicyanoimidazole_geom_2019-11-10_14-17-43//freq.en.tmp) ****
----------------
ORBITAL ENERGIES
----------------

  NO   OCC          E(Eh)            E(eV) 
   0   2.0000     -14.445687      -393.0871 
   1   2.0000     -14.367142      -390.9498 
   2   2.0000     -14.366183      -390.9237 
   3   2.0000     -14.350069      -390.4852 
   4   2.0000     -10.295502      -280.1549 
   5   2.0000     -10.291388      -280.0429 
   6   2.0000     -10.279885      -279.7299 
   7   2.0000     -10.256841      -279.1028 
   8   2.0000     -10.238496      -278.6036 
   9   2.0000      -1.075420       -29.2637 
  10   2.0000      -0.938505       -25.5380 
  11   2.0000      -0.928211       -25.2579 
  12   2.0000      -0.910396       -24.7731 
  13   2.0000      -0.823967       -22.4213 
  14   2.0000      -0.710082       -19.3223 
  15   2.0000      -0.669740       -18.2246 
  16   2.0000      -0.660166       -17.9640 
  17   2.0000      -0.542808       -14.7706 
  18   2.0000      -0.533932       -14.5290 
  19   2.0000      -0.495493       -13.4831 
  20   2.0000      -0.489847       -13.3294 
  21   2.0000      -0.387279       -10.5384 
  22   2.0000      -0.385123       -10.4797 
  23   2.0000      -0.380270       -10.3477 
  24   2.0000      -0.371170       -10.1000 
  25   2.0000      -0.368819       -10.0361 
  26   2.0000      -0.346843        -9.4381 
  27   2.0000      -0.323058        -8.7909 
  28   2.0000      -0.319164        -8.6849 
  29   2.0000      -0.273536        -7.4433 
  30   0.0000      -0.076475        -2.0810 
  31   0.0000      -0.013187        -0.3588 
  32   0.0000      -0.012536        -0.3411 
  33   0.0000       0.015466         0.4208 
  34   0.0000       0.040764         1.1092 
  35   0.0000       0.066143         1.7998 
  36   0.0000       0.110533         3.0078 
  37   0.0000       0.153664         4.1814 
  38   0.0000       0.157374         4.2824 
  39   0.0000       0.178915         4.8685 
  40   0.0000       0.213232         5.8023 
  41   0.0000       0.235505         6.4084 
  42   0.0000       0.286360         7.7922 
  43   0.0000       0.329388         8.9631 
  44   0.0000       0.365855         9.9554 
  45   0.0000       0.400574        10.9002 
  46   0.0000       0.458839        12.4856 
  47   0.0000       0.472816        12.8660 
  48   0.0000       0.488744        13.2994 
  49   0.0000       0.516201        14.0465 
  50   0.0000       0.522179        14.2092 
  51   0.0000       0.537246        14.6192 
  52   0.0000       0.552783        15.0420 
  53   0.0000       0.572524        15.5792 
  54   0.0000       0.601288        16.3619 
  55   0.0000       0.616830        16.7848 
  56   0.0000       0.639382        17.3985 
  57   0.0000       0.641708        17.4618 
  58   0.0000       0.652658        17.7597 
  59   0.0000       0.663405        18.0522 
  60   0.0000       0.681490        18.5443 
  61   0.0000       0.705274        19.1915 
  62   0.0000       0.748296        20.3622 
  63   0.0000       0.762748        20.7554 
  64   0.0000       0.802980        21.8502 
  65   0.0000       0.808037        21.9878 
  66   0.0000       0.813682        22.1414 
  67   0.0000       0.819349        22.2956 
  68   0.0000       0.823393        22.4057 
  69   0.0000       0.854344        23.2479 
  70   0.0000       0.871266        23.7084 
  71   0.0000       0.879635        23.9361 
  72   0.0000       0.940378        25.5890 
  73   0.0000       0.976323        26.5671 
  74   0.0000       0.995378        27.0856 
  75   0.0000       1.117952        30.4210 
  76   0.0000       1.171617        31.8813 
  77   0.0000       1.189810        32.3764 
  78   0.0000       1.233207        33.5573 
  79   0.0000       1.245674        33.8965 
  80   0.0000       1.287121        35.0243 
  81   0.0000       1.298847        35.3434 
  82   0.0000       1.330165        36.1956 
  83   0.0000       1.403797        38.1993 
  84   0.0000       1.410920        38.3931 
  85   0.0000       1.438229        39.1362 
  86   0.0000       1.488515        40.5046 
  87   0.0000       1.494695        40.6727 
  88   0.0000       1.509237        41.0684 
  89   0.0000       1.518965        41.3331 
  90   0.0000       1.528968        41.6053 
  91   0.0000       1.563721        42.5510 
  92   0.0000       1.660010        45.1712 
  93   0.0000       1.681903        45.7669 
  94   0.0000       1.726762        46.9876 
  95   0.0000       1.733064        47.1591 
  96   0.0000       1.749325        47.6015 
  97   0.0000       1.819894        49.5218 
  98   0.0000       1.852400        50.4064 
  99   0.0000       1.863601        50.7112 
 100   0.0000       1.918161        52.1958 
 101   0.0000       1.944517        52.9130 
 102   0.0000       1.963077        53.4180 
 103   0.0000       1.981347        53.9152 
 104   0.0000       1.994637        54.2768 
 105   0.0000       2.001268        54.4573 
 106   0.0000       2.041475        55.5514 
 107   0.0000       2.074231        56.4427 
 108   0.0000       2.159929        58.7747 
 109   0.0000       2.176474        59.2249 
 110   0.0000       2.223127        60.4944 
 111   0.0000       2.242222        61.0140 
 112   0.0000       2.277819        61.9826 
 113   0.0000       2.334955        63.5374 
 114   0.0000       2.472780        67.2878 
 115   0.0000       2.516639        68.4812 
 116   0.0000       2.538439        69.0744 
 117   0.0000       2.550449        69.4012 
 118   0.0000       2.590156        70.4817 
 119   0.0000       2.719389        73.9983 
 120   0.0000       2.732511        74.3554 
 121   0.0000       2.769650        75.3660 
 122   0.0000       2.805560        76.3432 
 123   0.0000       2.857704        77.7621 
 124   0.0000       2.887301        78.5674 
 125   0.0000       2.893447        78.7347 
 126   0.0000       3.038676        82.6866 
 127   0.0000       3.228238        87.8448 
 128   0.0000       3.291541        89.5674 
 129   0.0000       3.547913        96.5436 
------------------
MOLECULAR ORBITALS
------------------
                      0         1         2         3         4         5   
                 -14.44569 -14.36714 -14.36618 -14.35007 -10.29550 -10.29139
                   2.00000   2.00000   2.00000   2.00000   2.00000   2.00000
                  --------  --------  --------  --------  --------  --------
  0C   1s        -0.000000  0.000034  0.000132 -0.000192  0.014412  0.000429
  0C   2s         0.000096  0.000245  0.000040 -0.000503 -0.001289 -0.000028
  0C   1pz        0.000000  0.000006  0.000005  0.000029  0.000049  0.000011
  0C   1px       -0.000249  0.000075 -0.000234  0.000342  0.001388  0.000309
  0C   1py        0.000337  0.000077  0.000442  0.000367 -0.000441 -0.000095
  0C   3s         0.005865  0.003030  0.010886  0.025785  0.004614 -0.003106
  0C   2pz       -0.000588 -0.000685 -0.000905  0.001502  0.000463 -0.000102
  0C   2px       -0.004925 -0.006851 -0.003632  0.016248  0.001328  0.000799
  0C   2py       -0.010139 -0.010349 -0.020828  0.021079  0.011369 -0.003965
  0C   1dz2       0.000078  0.000032  0.000213 -0.000517  0.000647 -0.000215
  0C   1dxz      -0.000002 -0.000001  0.000028  0.000059 -0.000111  0.000003
  0C   1dyz      -0.000016  0.000000 -0.000004  0.000078 -0.000011  0.000020
  0C   1dx2y2     0.000176 -0.000008  0.000522 -0.000255 -0.001096 -0.000267
  0C   1dxy      -0.000099  0.000045  0.000591  0.000810 -0.000203 -0.000048
  1C   1s        -0.000096 -0.000195 -0.000012  0.000022  0.994901 -0.001868
  1C   2s         0.000151 -0.000552 -0.000272  0.000150  0.036722 -0.000216
  1C   1pz       -0.000016 -0.000003 -0.000019 -0.000003 -0.000049 -0.000021
  1C   1px       -0.000072 -0.000356 -0.000164 -0.000101 -0.000583 -0.000366
  1C   1py       -0.000372  0.000382 -0.000334  0.000042 -0.000617 -0.000118
  1C   3s        -0.008991  0.027002 -0.001709  0.000751 -0.022003  0.002091
  1C   2pz        0.000368 -0.000137  0.000150  0.000015 -0.000321  0.000049
  1C   2px       -0.006816 -0.020053 -0.006547  0.006439  0.005259  0.006551
  1C   2py        0.019487  0.022661  0.012912 -0.008103 -0.016060 -0.007261
  1C   1dz2      -0.000138 -0.000506 -0.000058  0.000009 -0.001305 -0.000292
  1C   1dxz      -0.000004  0.000007  0.000001 -0.000002  0.000069  0.000016
  1C   1dyz       0.000044 -0.000006  0.000009 -0.000002  0.000070  0.000027
  1C   1dx2y2    -0.000568 -0.000088 -0.000105 -0.000002 -0.000406 -0.000194
  1C   1dxy       0.000333 -0.000847  0.000041 -0.000041 -0.000507  0.000038
  2N   1s        -0.995352  0.000103  0.000133 -0.000021  0.000207  0.000163
  2N   2s        -0.034056 -0.000410 -0.000362 -0.000024  0.001226  0.000831
  2N   1pz       -0.000052  0.000001 -0.000001 -0.000004 -0.000023  0.000002
  2N   1px       -0.000849 -0.000015 -0.000176 -0.000065  0.000030 -0.000472
  2N   1py       -0.000358  0.000045  0.000215 -0.000027 -0.000694  0.000673
  2N   3s         0.035987  0.004369  0.002229 -0.002832 -0.010819 -0.006695
  2N   2pz        0.000611  0.000156  0.000034 -0.000022 -0.000499 -0.000419
  2N   2px        0.008658  0.002706 -0.000826 -0.000237 -0.006912 -0.007424
  2N   2py        0.005922  0.000853  0.002061 -0.000305 -0.005053 -0.002107
  2N   1dz2      -0.000111 -0.000008 -0.000156 -0.000127  0.001208  0.001222
  2N   1dxz       0.000005  0.000007  0.000017  0.000013 -0.000073 -0.000083
  2N   1dyz       0.000020  0.000005  0.000030  0.000008 -0.000156  0.000004
  2N   1dx2y2    -0.000189  0.000045 -0.000158  0.000033  0.001183 -0.000598
  2N   1dxy       0.000142  0.000122  0.000324  0.000023 -0.000867  0.001232
  3C   1s        -0.000094 -0.000049  0.000170 -0.000065  0.001710  0.994976
  3C   2s         0.000434 -0.000400 -0.000455 -0.000457 -0.000199  0.035597
  3C   1pz        0.000001  0.000006 -0.000023 -0.000004 -0.000008  0.000047
  3C   1px        0.000014  0.000178 -0.000327 -0.000051 -0.000268 -0.000539
  3C   1py       -0.000002 -0.000077 -0.000213 -0.000035  0.000123  0.002031
  3C   3s        -0.011161  0.000526  0.011419  0.001509  0.007243 -0.010508
  3C   2pz       -0.000141  0.000056  0.000335  0.000073  0.000304  0.000132
  3C   2px        0.002055  0.000207  0.002067 -0.000197  0.001123  0.000055
  3C   2py       -0.006693  0.001309  0.006757  0.002323  0.007148  0.003678
  3C   1dz2      -0.000221 -0.000063  0.000455 -0.000109 -0.000381 -0.001300
  3C   1dxz       0.000013 -0.000001 -0.000099  0.000005  0.000023  0.000120
  3C   1dyz      -0.000040  0.000005 -0.000062  0.000014  0.000027  0.000072
  3C   1dx2y2     0.000493 -0.000087 -0.000491 -0.000125 -0.000150  0.000270
  3C   1dxy      -0.000776 -0.000049 -0.001110  0.000061 -0.000038  0.000050
  4N   1s         0.000163  0.004083  0.995424  0.000501  0.000008  0.000082
  4N   2s         0.000301  0.000279  0.034281 -0.000295  0.000006  0.000567
  4N   1pz       -0.000015  0.000001 -0.000106 -0.000002 -0.000000  0.000070
  4N   1px       -0.000160  0.000053 -0.002745 -0.000078 -0.000008  0.000924
  4N   1py       -0.000225 -0.000056  0.000627  0.000051  0.000011  0.000772
  4N   3s        -0.001053 -0.004164 -0.038134  0.002773 -0.000565 -0.006141
  4N   2pz       -0.000100  0.000014  0.000272 -0.000063  0.000156  0.000146
  4N   2px       -0.000727  0.000918  0.010445 -0.001470  0.001437  0.003774
  4N   2py       -0.001878 -0.000811 -0.006064  0.000160  0.002508 -0.000855
  4N   1dz2       0.000126 -0.000103  0.000179 -0.000023 -0.000024  0.001178
  4N   1dxz       0.000008  0.000011  0.000001  0.000002 -0.000007 -0.000157
  4N   1dyz      -0.000002  0.000007  0.000018 -0.000008 -0.000008 -0.000103
  4N   1dx2y2     0.000189  0.000027 -0.000091  0.000101 -0.000026 -0.000528
  4N   1dxy       0.000257  0.000038  0.000549 -0.000128 -0.000220 -0.001056
  5H   1s         0.000951  0.000210 -0.000271  0.000079 -0.000677 -0.000897
  5H   2s        -0.001083  0.000581  0.000200  0.000110 -0.002063 -0.001972
  6C   1s         0.000005 -0.000048 -0.000065  0.000571 -0.000105 -0.000022
  6C   2s         0.000273 -0.000331 -0.000740  0.001202 -0.000267 -0.000134
  6C   1pz       -0.000014 -0.000008 -0.000002 -0.000137  0.000022 -0.000001
  6C   1px       -0.000222 -0.000119 -0.000126 -0.001426  0.000389  0.000038
  6C   1py       -0.000101 -0.000059  0.000120 -0.001996  0.000121 -0.000087
  6C   3s         0.005420  0.006400  0.008404  0.000963 -0.006237  0.001957
  6C   2pz       -0.000149 -0.000364 -0.000510  0.002577  0.000260 -0.000144
  6C   2px       -0.001513 -0.003837 -0.006798  0.027204  0.002889 -0.002321
  6C   2py       -0.002239 -0.005250 -0.005491  0.037089  0.003543 -0.001008
  6C   1dz2      -0.000018 -0.000039 -0.000080  0.001377 -0.000096  0.000009
  6C   1dxz       0.000008  0.000006  0.000026 -0.000161 -0.000006  0.000002
  6C   1dyz       0.000007  0.000008 -0.000006 -0.000219  0.000003 -0.000003
  6C   1dx2y2     0.000019 -0.000020  0.000379  0.000717 -0.000153  0.000063
  6C   1dxy       0.000149  0.000099  0.000051 -0.002335 -0.000172  0.000003
  7C   1s         0.000081  0.000593  0.000026 -0.000047  0.003599 -0.000103
  7C   2s         0.000854  0.001346  0.000062 -0.000337 -0.002472 -0.000282
  7C   1pz       -0.000007  0.000013 -0.000008  0.000004 -0.000001 -0.000005
  7C   1px       -0.000065  0.001623 -0.000227  0.000119 -0.000692 -0.000006
  7C   1py       -0.000102 -0.001772  0.000082 -0.000033  0.000899 -0.000123
  7C   3s        -0.008900 -0.002082 -0.008299  0.005633  0.016075  0.005520
  7C   2pz       -0.000169 -0.000265 -0.000054  0.000029  0.000148  0.000055
  7C   2px       -0.007953 -0.032688 -0.004074  0.004061  0.008204  0.003575
  7C   2py        0.005709  0.035751  0.003856 -0.004537 -0.006659 -0.003173
  7C   1dz2       0.000107  0.001429  0.000038 -0.000035  0.000969 -0.000022
  7C   1dxz      -0.000024 -0.000017 -0.000002  0.000001 -0.000010  0.000001
  7C   1dyz       0.000005  0.000022  0.000009 -0.000002 -0.000004  0.000000
  7C   1dx2y2    -0.000327  0.000215 -0.000102  0.000010  0.000361 -0.000003
  7C   1dxy       0.000009  0.002502  0.000155 -0.000079  0.001465 -0.000028
  8N   1s         0.000176  0.995536 -0.004068  0.000439  0.000021 -0.000011
  8N   2s         0.000439  0.035302 -0.000032 -0.000279  0.000661 -0.000146
  8N   1pz       -0.000006  0.000022 -0.000001 -0.000000  0.000008  0.000002
  8N   1px       -0.000109  0.002574  0.000003  0.000004  0.000476  0.000037
  8N   1py       -0.000019 -0.002794 -0.000020 -0.000010 -0.000398  0.000014
  8N   3s        -0.005107 -0.053330 -0.001601  0.003204  0.002299  0.002048
  8N   2pz        0.000033 -0.000093  0.000005  0.000007 -0.000034 -0.000013
  8N   2px       -0.000263 -0.010672  0.000025  0.000507 -0.000586  0.000054
  8N   2py        0.001296  0.011487  0.000100 -0.000487 -0.000186 -0.000428
  8N   1dz2      -0.000015 -0.000510 -0.000040  0.000012 -0.000133  0.000012
  8N   1dxz       0.000004  0.000006 -0.000000  0.000000  0.000000 -0.000002
  8N   1dyz      -0.000001 -0.000007 -0.000000 -0.000000  0.000001  0.000002
  8N   1dx2y2     0.000052 -0.000082 -0.000017  0.000012 -0.000065 -0.000045
  8N   1dxy      -0.000003 -0.000889 -0.000073  0.000020 -0.000207  0.000024
  9N   1s        -0.000012 -0.000487 -0.000553  0.995540  0.000004 -0.000007
  9N   2s        -0.000010 -0.000309 -0.000357  0.035252  0.000096 -0.000085
  9N   1pz        0.000003  0.000000 -0.000005 -0.000211 -0.000000 -0.000002
  9N   1px        0.000041  0.000003 -0.000122 -0.002232 -0.000007 -0.000065
  9N   1py        0.000033 -0.000002  0.000006 -0.003048 -0.000002  0.000020
  9N   3s         0.000318  0.003282  0.004323 -0.052487 -0.001602  0.001162
  9N   2pz        0.000007 -0.000038 -0.000039  0.000869  0.000011 -0.000005
  9N   2px        0.000005 -0.000418  0.000066  0.009161  0.000157  0.000277
  9N   2py        0.000185 -0.000536 -0.001191  0.012529  0.000109 -0.000520
  9N   1dz2       0.000032  0.000017  0.000010 -0.000495 -0.000013 -0.000003
  9N   1dxz      -0.000002 -0.000002 -0.000004  0.000057 -0.000002 -0.000004
  9N   1dyz      -0.000006 -0.000003  0.000001  0.000078  0.000005  0.000002
  9N   1dx2y2     0.000054  0.000015 -0.000053 -0.000268 -0.000077 -0.000083
  9N   1dxy      -0.000049 -0.000029 -0.000007  0.000827  0.000026 -0.000022
 10H   1s         0.000087  0.000067 -0.000066  0.000099  0.000270 -0.001419
 10H   2s        -0.001653  0.000603  0.001612  0.000994  0.002535  0.005196
                      6         7         8         9        10        11   
                 -10.27989 -10.25684 -10.23850  -1.07542  -0.93851  -0.92821
                   2.00000   2.00000   2.00000   2.00000   2.00000   2.00000
                  --------  --------  --------  --------  --------  --------
  0C   1s         0.994944 -0.000168 -0.003153 -0.065867 -0.068257 -0.051651
  0C   2s         0.036859  0.000127 -0.002886  0.125171  0.134368  0.103658
  0C   1pz       -0.000001 -0.000000 -0.000123 -0.003576 -0.000315  0.000306
  0C   1px        0.000064 -0.000138 -0.001365 -0.028693  0.048641  0.019315
  0C   1py       -0.000104  0.000174 -0.001679 -0.063340 -0.073052 -0.016755
  0C   3s        -0.023720 -0.002669  0.022846  0.047818  0.031235  0.024353
  0C   2pz       -0.000329  0.000674  0.001338 -0.002648  0.000324 -0.000300
  0C   2px        0.002840  0.008681  0.015920 -0.040201 -0.017849 -0.012624
  0C   2py       -0.013100  0.007629  0.016870 -0.021861  0.032882  0.008223
  0C   1dz2      -0.001194  0.000102  0.000949 -0.008842 -0.007310 -0.005112
  0C   1dxz       0.000086 -0.000038 -0.000117  0.000635  0.000025  0.000166
  0C   1dyz       0.000098 -0.000023 -0.000145  0.000755  0.000702  0.000378
  0C   1dx2y2    -0.000405 -0.000229  0.000351 -0.003299 -0.010345 -0.004047
  0C   1dxy       0.000218 -0.000527 -0.001594  0.002022 -0.002393 -0.001681
  1C   1s        -0.014526  0.003668  0.000109 -0.081885  0.043679 -0.011027
  1C   2s        -0.002581  0.003238 -0.000491  0.158851 -0.087792  0.025503
  1C   1pz       -0.000075 -0.000016 -0.000022 -0.002460  0.004874  0.003184
  1C   1px       -0.001277 -0.001590 -0.000270  0.013996  0.079778  0.017838
  1C   1py       -0.000450  0.001642 -0.000269 -0.088558  0.032977  0.066848
  1C   3s         0.013449 -0.024017  0.001042  0.013325 -0.013015 -0.052365
  1C   2pz        0.000410  0.000187  0.000264  0.000659 -0.001404 -0.000527
  1C   2px        0.001147  0.019840  0.007763 -0.018128 -0.002557  0.022268
  1C   2py        0.010112 -0.020954 -0.002791  0.042925 -0.036420 -0.044380
  1C   1dz2       0.000632 -0.001042 -0.000112 -0.010198  0.004612 -0.000713
  1C   1dxz      -0.000096  0.000018  0.000004  0.000519 -0.000134  0.000111
  1C   1dyz       0.000006 -0.000012 -0.000022  0.000850 -0.000703 -0.000451
  1C   1dx2y2    -0.001066 -0.000134  0.000227 -0.006535  0.007628  0.005857
  1C   1dxy       0.000156 -0.001712 -0.000446 -0.000058 -0.003289 -0.006207
  2N   1s         0.000017  0.000050 -0.000053 -0.144761  0.097818  0.072639
  2N   2s         0.000179  0.000698 -0.000537  0.294820 -0.208624 -0.154808
  2N   1pz        0.000009  0.000005 -0.000006  0.003852  0.001260  0.000982
  2N   1px        0.000172 -0.000102 -0.000062  0.065688  0.043781  0.009113
  2N   1py        0.000029  0.000280 -0.000090  0.022283 -0.021706  0.016079
  2N   3s        -0.001041 -0.004105  0.001007  0.331380 -0.235903 -0.171248
  2N   2pz       -0.000063 -0.000178  0.000061  0.003310  0.000110  0.000256
  2N   2px       -0.002677 -0.002348 -0.000117  0.052270  0.018057  0.007492
  2N   2py        0.001758 -0.001945  0.001891  0.024886 -0.020839 -0.002557
  2N   1dz2      -0.000009  0.000202 -0.000210 -0.014463  0.006643  0.004934
  2N   1dxz       0.000010 -0.000040  0.000012  0.001532 -0.000605 -0.000557
  2N   1dyz       0.000013 -0.000027  0.000020  0.000877 -0.000628 -0.000325
  2N   1dx2y2    -0.000001 -0.000172 -0.000139  0.005087  0.001292 -0.001958
  2N   1dxy       0.000274 -0.000443  0.000045  0.003649 -0.003782 -0.001998
  3C   1s        -0.000578 -0.000011 -0.000055 -0.097668 -0.033370  0.004457
  3C   2s        -0.000304  0.000357 -0.000413  0.190226  0.065991 -0.008555
  3C   1pz        0.000004 -0.000002  0.000005  0.002389  0.007268  0.003940
  3C   1px        0.000022 -0.000074  0.000089 -0.024783  0.124066  0.078248
  3C   1py        0.000097  0.000034  0.000011  0.100266  0.042258  0.008444
  3C   3s         0.006015 -0.001532  0.002499  0.017486  0.029245 -0.010499
  3C   2pz        0.000147 -0.000038  0.000056 -0.001630  0.000377  0.000141
  3C   2px       -0.001410 -0.000189 -0.000159 -0.000538  0.008963  0.005726
  3C   2py        0.006017 -0.000830  0.001786 -0.045605 -0.000940 -0.003472
  3C   1dz2      -0.000316  0.000094 -0.000138 -0.012876 -0.003642  0.000783
  3C   1dxz       0.000018 -0.000010  0.000014  0.000905  0.000682  0.000152
  3C   1dyz       0.000019 -0.000003  0.000013  0.000686  0.001147  0.000519
  3C   1dx2y2    -0.000098 -0.000053 -0.000003 -0.000768 -0.004297 -0.002952
  3C   1dxy      -0.000082  0.000011  0.000083 -0.002819  0.016553  0.009926
  4N   1s         0.000193  0.000021 -0.000014 -0.086705 -0.119412 -0.054769
  4N   2s         0.001295  0.000188 -0.000478  0.172154  0.247812  0.115243
  4N   1pz       -0.000008  0.000001 -0.000019 -0.003729 -0.002900 -0.000544
  4N   1px        0.000370 -0.000026 -0.000220 -0.091854 -0.086089 -0.032256
  4N   1py       -0.000721  0.000069 -0.000252  0.015472  0.031349  0.027116
  4N   3s        -0.010796  0.001559  0.001155  0.176671  0.254029  0.113139
  4N   2pz        0.000027 -0.000071 -0.000013 -0.001729 -0.000551 -0.000089
  4N   2px        0.003697 -0.000909 -0.000730 -0.044687 -0.035670 -0.012888
  4N   2py       -0.004113 -0.000803  0.000597  0.010116  0.031375  0.014476
  4N   1dz2       0.001196  0.000144 -0.000126 -0.008294 -0.006778 -0.002729
  4N   1dxz      -0.000019 -0.000004  0.000009  0.000863  0.000408  0.000051
  4N   1dyz      -0.000055 -0.000014 -0.000016  0.000345  0.000387  0.000161
  4N   1dx2y2     0.000874  0.000153  0.000227  0.004302 -0.001615 -0.002244
  4N   1dxy       0.001056  0.000009 -0.000330 -0.000269 -0.001849 -0.001830
  5H   1s        -0.000317  0.000217 -0.000057  0.062636 -0.075600 -0.052489
  5H   2s        -0.000382 -0.001237  0.000381  0.004431 -0.003772 -0.001835
  6C   1s         0.003156  0.000974  0.995102 -0.010707 -0.046156 -0.060938
  6C   2s        -0.001977  0.000751  0.038100  0.020649  0.085431  0.112512
  6C   1pz        0.000056 -0.000009  0.000041 -0.000782  0.000741  0.002040
  6C   1px        0.000525 -0.000220  0.000368 -0.008145  0.011751  0.021827
  6C   1py        0.000883  0.000041  0.000664 -0.011379  0.005504  0.029001
  6C   3s         0.011830 -0.006972 -0.018233  0.023533  0.024667  0.043683
  6C   2pz       -0.000405  0.000337  0.002048 -0.001355 -0.001439 -0.002111
  6C   2px       -0.005712  0.003547  0.021489 -0.009245 -0.010066 -0.020899
  6C   2py       -0.003933  0.004856  0.029642 -0.026270 -0.027544 -0.032251
  6C   1dz2       0.001004  0.000038 -0.001756 -0.001242 -0.004052 -0.005135
  6C   1dxz      -0.000099 -0.000000  0.000208  0.000116  0.000358  0.000560
  6C   1dyz      -0.000149 -0.000007  0.000280  0.000220  0.000664  0.000784
  6C   1dx2y2     0.000664  0.000090 -0.000886 -0.001277 -0.003891 -0.002893
  6C   1dxy      -0.001368 -0.000032  0.003019  0.002107  0.005945  0.007859
  7C   1s        -0.000201 -0.995116  0.000879 -0.016299  0.091206 -0.125469
  7C   2s         0.000088 -0.038327 -0.000647  0.033143 -0.168436  0.226894
  7C   1pz       -0.000014  0.000005 -0.000013 -0.000087  0.000938 -0.000652
  7C   1px       -0.000315  0.000480 -0.000259  0.010342  0.057526 -0.105886
  7C   1py        0.000026 -0.000489 -0.000038 -0.016193 -0.049492  0.121686
  7C   3s        -0.006496  0.022361  0.004611 -0.013181 -0.051702  0.110789
  7C   2pz       -0.000088  0.000205 -0.000002 -0.000498  0.000366  0.000818
  7C   2px       -0.004630  0.026762  0.002765 -0.009180 -0.018870  0.074277
  7C   2py        0.003634 -0.029620 -0.003705 -0.002026  0.035252 -0.075168
  7C   1dz2      -0.000094  0.001803 -0.000024 -0.001848  0.007442 -0.009450
  7C   1dxz      -0.000001 -0.000022 -0.000004 -0.000026 -0.000059  0.000218
  7C   1dyz       0.000021  0.000028  0.000007  0.000017 -0.000013 -0.000151
  7C   1dx2y2    -0.000266  0.000265 -0.000140 -0.001418  0.002871  0.000061
  7C   1dxy       0.000118  0.003162  0.000006 -0.003112  0.011611 -0.015568
  8N   1s         0.000009  0.000335 -0.000013 -0.004653  0.089708 -0.145361
  8N   2s         0.000127 -0.000827 -0.000133  0.008784 -0.181623  0.293104
  8N   1pz       -0.000002  0.000016 -0.000000 -0.000009 -0.000474  0.000952
  8N   1px       -0.000038  0.001912  0.000019  0.003441 -0.068000  0.111385
  8N   1py       -0.000004 -0.002088 -0.000027 -0.004825  0.076577 -0.120430
  8N   3s        -0.002398  0.030946  0.002122  0.010894 -0.182221  0.319320
  8N   2pz        0.000011  0.000070  0.000008  0.000185 -0.000310  0.000248
  8N   2px       -0.000072  0.007413  0.000309  0.004927 -0.025354  0.039842
  8N   2py        0.000394 -0.007833 -0.000194 -0.001261  0.024828 -0.045682
  8N   1dz2      -0.000016 -0.000848  0.000013 -0.000278  0.004656 -0.007472
  8N   1dxz      -0.000002  0.000012 -0.000000  0.000012 -0.000066  0.000118
  8N   1dyz      -0.000000 -0.000014  0.000000 -0.000006  0.000048 -0.000090
  8N   1dx2y2    -0.000035 -0.000090 -0.000004  0.000090  0.000824 -0.001007
  8N   1dxy      -0.000048 -0.001473  0.000021 -0.000425  0.007731 -0.012462
  9N   1s         0.000031  0.000010 -0.000352 -0.002784 -0.035738 -0.054977
  9N   2s         0.000793  0.000124  0.000747  0.004199  0.071066  0.110240
  9N   1pz       -0.000036  0.000002  0.000157 -0.000189 -0.002298 -0.003522
  9N   1px       -0.000429  0.000026  0.001653 -0.001774 -0.023613 -0.037149
  9N   1py       -0.000440  0.000013  0.002274 -0.003018 -0.033926 -0.050720
  9N   3s         0.000576 -0.002388 -0.029738  0.020250  0.082573  0.120132
  9N   2pz        0.000044  0.000015  0.000594 -0.000353 -0.001036 -0.001367
  9N   2px        0.000974  0.000124  0.006291 -0.005643 -0.012163 -0.014954
  9N   2py       -0.000035  0.000267  0.008528 -0.002490 -0.013256 -0.018950
  9N   1dz2      -0.000146 -0.000028  0.000842 -0.000100 -0.001799 -0.002753
  9N   1dxz       0.000011  0.000004 -0.000097  0.000025  0.000200  0.000319
  9N   1dyz       0.000024  0.000004 -0.000133  0.000009  0.000284  0.000429
  9N   1dx2y2    -0.000169  0.000003  0.000452  0.000210 -0.001055 -0.001378
  9N   1dxy       0.000190  0.000053 -0.001406  0.000209  0.002920  0.004521
 10H   1s         0.000251  0.000009  0.000005  0.021683  0.007496 -0.004588
 10H   2s         0.002099 -0.000218  0.000601 -0.018161 -0.001711 -0.002426
                     12        13        14        15        16        17   
                  -0.91040  -0.82397  -0.71008  -0.66974  -0.66017  -0.54281
                   2.00000   2.00000   2.00000   2.00000   2.00000   2.00000
                  --------  --------  --------  --------  --------  --------
  0C   1s         0.004686 -0.106232  0.105171  0.027264 -0.002645  0.008745
  0C   2s        -0.006327  0.212828 -0.217381 -0.055041  0.002453 -0.020958
  0C   1pz        0.002579 -0.001391 -0.009747  0.001361  0.009692  0.009218
  0C   1px        0.000374 -0.070323 -0.141260  0.138066  0.090470  0.025173
  0C   1py        0.072526  0.053615 -0.089568 -0.143779  0.154990  0.227105
  0C   3s        -0.059671  0.161473 -0.194085 -0.009452  0.022434  0.042153
  0C   2pz       -0.001793  0.000004 -0.000632 -0.000418  0.003568 -0.005566
  0C   2px       -0.016218 -0.008499 -0.012801  0.010733  0.024034 -0.079562
  0C   2py       -0.029457  0.011381 -0.000806 -0.026449  0.069106 -0.052915
  0C   1dz2       0.000687 -0.006770  0.004714 -0.000547  0.001038  0.000997
  0C   1dxz       0.000345  0.000991 -0.000451 -0.000681 -0.000237  0.000664
  0C   1dyz       0.000042  0.000173 -0.000598 -0.000143 -0.000149  0.000670
  0C   1dx2y2     0.004582  0.008534  0.002239 -0.008032 -0.001202  0.002585
  0C   1dxy       0.005270  0.001246 -0.004923 -0.009846 -0.002707  0.017617
  1C   1s        -0.018606 -0.136043 -0.084404  0.022705 -0.008344 -0.007982
  1C   2s         0.037916  0.274049  0.176008 -0.043089  0.012420  0.022220
  1C   1pz       -0.001469  0.002939 -0.004485 -0.009504  0.003446 -0.009818
  1C   1px       -0.016193  0.033879 -0.126413 -0.176536 -0.130550 -0.018582
  1C   1py       -0.020378  0.038389  0.040156 -0.036525  0.270556 -0.255055
  1C   3s         0.036749  0.189170  0.128737 -0.048351  0.054811 -0.024490
  1C   2pz        0.000013  0.000966 -0.000616 -0.002735  0.000079 -0.002679
  1C   2px       -0.009904 -0.003583  0.000676 -0.069822 -0.028875 -0.118848
  1C   2py        0.013453  0.032260 -0.018417  0.015005  0.040445  0.080846
  1C   1dz2      -0.001613 -0.008937 -0.004473  0.000937  0.001904 -0.001424
  1C   1dxz       0.000148  0.000935 -0.000200  0.000241  0.000124  0.000602
  1C   1dyz       0.000391  0.000221 -0.000019  0.000311 -0.000551  0.001285
  1C   1dx2y2    -0.002783  0.006254 -0.004647  0.000533  0.008301 -0.005766
  1C   1dxy       0.004171 -0.002272 -0.009773  0.008354 -0.003045  0.021346
  2N   1s        -0.044176  0.033072  0.044757 -0.032527  0.013723 -0.003702
  2N   2s         0.096060 -0.075794 -0.099111  0.069335 -0.033450  0.005588
  2N   1pz       -0.000860  0.004515  0.009346 -0.012308 -0.014526  0.008141
  2N   1px       -0.026142 -0.028089  0.085344 -0.340403 -0.169427 -0.078236
  2N   1py        0.009929  0.165349  0.153445  0.098618 -0.189242  0.334028
  2N   3s         0.099046 -0.068034 -0.141028  0.111848 -0.039225  0.073366
  2N   2pz       -0.000568  0.002332  0.003962 -0.005511 -0.006828  0.005820
  2N   2px       -0.014848 -0.004678  0.031715 -0.153342 -0.083744 -0.015827
  2N   2py        0.003505  0.072626  0.070992  0.046177 -0.083253  0.186278
  2N   1dz2      -0.002645  0.000784  0.001534 -0.003510 -0.001479  0.000368
  2N   1dxz       0.000258 -0.000236 -0.000615  0.000774 -0.000179 -0.000176
  2N   1dyz       0.000281  0.000588 -0.000028  0.000433 -0.000285  0.000372
  2N   1dx2y2    -0.000599 -0.008944 -0.007418  0.004538 -0.000166 -0.006037
  2N   1dxy       0.002113  0.006823 -0.004231  0.008109 -0.008098  0.003823
  3C   1s         0.025483  0.099863 -0.036712  0.093230 -0.073530 -0.026397
  3C   2s        -0.050659 -0.205403  0.076423 -0.196436  0.153395  0.052655
  3C   1pz       -0.004117  0.000076  0.007389  0.008597 -0.003821  0.007544
  3C   1px       -0.068353  0.012953  0.137485  0.161714  0.045573  0.252433
  3C   1py       -0.026470 -0.014681  0.028207  0.030324 -0.168886 -0.119453
  3C   3s        -0.028914 -0.123429  0.074624 -0.143076  0.151947  0.099444
  3C   2pz       -0.000310  0.000339  0.001086  0.002408 -0.002190  0.002439
  3C   2px       -0.005881  0.001028  0.016939  0.031466 -0.002266  0.074068
  3C   2py       -0.001116  0.008236  0.008345  0.026262 -0.059129 -0.028873
  3C   1dz2       0.002710  0.008545 -0.002404  0.006438 -0.002498  0.000087
  3C   1dxz      -0.000436 -0.000952  0.000211  0.000424  0.000744 -0.000134
  3C   1dyz      -0.000645 -0.000371  0.000630  0.000089  0.000339  0.000533
  3C   1dx2y2     0.002006 -0.005138 -0.004793  0.007934  0.005461 -0.007324
  3C   1dxy      -0.008750 -0.000617  0.006736  0.016275  0.008163  0.006031
  4N   1s         0.061842  0.031984 -0.021684 -0.089585 -0.015066  0.009072
  4N   2s        -0.130036 -0.070695  0.048873  0.202341  0.031740 -0.015200
  4N   1pz        0.002492  0.005592 -0.008736  0.003501 -0.002355 -0.009072
  4N   1px        0.052027  0.046710 -0.072906  0.020081  0.028664 -0.003899
  4N   1py        0.001981  0.096875 -0.151188  0.072506 -0.104695 -0.252146
  4N   3s        -0.122378 -0.066196  0.048164  0.207654  0.067568 -0.102009
  4N   2pz        0.000454  0.001572 -0.002505  0.001715 -0.000499 -0.001980
  4N   2px        0.016664  0.014017 -0.020490  0.016772  0.009163  0.032839
  4N   2py       -0.009110  0.026112 -0.043852  0.026686 -0.026411 -0.099481
  4N   1dz2       0.003090 -0.000015  0.000542  0.001521  0.001951  0.001447
  4N   1dxz      -0.000297 -0.000646  0.000668 -0.000552 -0.000012  0.000441
  4N   1dyz      -0.000176 -0.000276  0.000019  0.000017  0.000651  0.000792
  4N   1dx2y2    -0.000785 -0.005948  0.009143 -0.006986 -0.005970 -0.001509
  4N   1dxy      -0.000298 -0.010440  0.008049 -0.002926  0.012016  0.017730
  5H   1s         0.037208 -0.038651 -0.103176  0.172519  0.099895 -0.023757
  5H   2s         0.000593 -0.003116 -0.029668  0.057532  0.034653 -0.007373
  6C   1s        -0.136725 -0.011928  0.061912  0.017728 -0.037099 -0.057097
  6C   2s         0.247629  0.029804 -0.130739 -0.034822  0.077974  0.119881
  6C   1pz        0.010405 -0.007531  0.012097  0.003630 -0.006561 -0.008167
  6C   1px        0.106989 -0.086185  0.122450  0.058478 -0.074917 -0.100169
  6C   1py        0.153478 -0.099515  0.181025  0.025591 -0.086953 -0.099313
  6C   3s         0.107032  0.015039 -0.109043 -0.025556  0.054934  0.190602
  6C   2pz       -0.005676  0.000120  0.001804  0.001660  0.000520 -0.005070
  6C   2px       -0.062601 -0.000536  0.018194  0.027434  0.004836 -0.056754
  6C   2py       -0.078114  0.004027  0.027032  0.011024  0.008417 -0.068792
  6C   1dz2      -0.009917 -0.001721  0.004247  0.000996 -0.002198 -0.001529
  6C   1dxz       0.001180  0.000303 -0.000468 -0.000356  0.000260  0.000310
  6C   1dyz       0.001521  0.000205 -0.000679 -0.000062  0.000282  0.000265
  6C   1dx2y2    -0.004302  0.001207  0.002624 -0.003746 -0.000414  0.000767
  6C   1dxy       0.016275  0.003031 -0.006963 -0.002840  0.002846  0.004245
  7C   1s         0.022883 -0.023413 -0.052560 -0.008809 -0.066437  0.056634
  7C   2s        -0.039766  0.053738  0.108411  0.021242  0.138984 -0.114644
  7C   1pz        0.000221  0.001220  0.000299 -0.001938  0.001722 -0.003354
  7C   1px        0.037634  0.117895  0.109830 -0.007399  0.141204 -0.122320
  7C   1py       -0.043560 -0.121460 -0.136902 -0.045309 -0.138091  0.066440
  7C   3s        -0.019804  0.019974  0.106807  0.005702  0.131904 -0.219852
  7C   2pz       -0.000188 -0.000043  0.000064 -0.001008  0.000296 -0.001817
  7C   2px       -0.018872 -0.002999  0.032493 -0.031469  0.015171 -0.101578
  7C   2py        0.019687  0.002742 -0.041120  0.013043 -0.011649  0.082898
  7C   1dz2       0.001301 -0.002510 -0.003331 -0.000645 -0.003755  0.001535
  7C   1dxz      -0.000025  0.000080 -0.000027 -0.000109  0.000155 -0.000128
  7C   1dyz       0.000041 -0.000044  0.000014  0.000152 -0.000054  0.000201
  7C   1dx2y2    -0.000145  0.000348 -0.002099 -0.003373  0.000885 -0.003115
  7C   1dxy       0.002468 -0.003954 -0.005631 -0.000110 -0.005403  0.003984
  8N   1s         0.037172  0.048912  0.035172  0.006593  0.039543 -0.027849
  8N   2s        -0.075044 -0.102505 -0.076397 -0.011998 -0.083561  0.063881
  8N   1pz       -0.000243 -0.000198 -0.000296 -0.000673  0.000092 -0.001205
  8N   1px       -0.027969 -0.030759 -0.017251 -0.010611 -0.009300 -0.022217
  8N   1py        0.030144  0.035092  0.014462 -0.005084  0.014934 -0.004919
  8N   3s        -0.084154 -0.094742 -0.055804 -0.040093 -0.103100  0.029672
  8N   2pz       -0.000068  0.000007 -0.000001 -0.000182  0.000042 -0.000506
  8N   2px       -0.010212 -0.004772  0.001704 -0.006923 -0.002388 -0.017296
  8N   2py        0.011585  0.006538 -0.002311  0.003980  0.004318  0.008450
  8N   1dz2       0.001913  0.002024  0.001021  0.000182  0.000864  0.000076
  8N   1dxz      -0.000030 -0.000018 -0.000041 -0.000061  0.000009 -0.000093
  8N   1dyz       0.000024  0.000013  0.000026  0.000063 -0.000011  0.000099
  8N   1dx2y2     0.000249  0.000580 -0.000346 -0.001397  0.000645 -0.002272
  8N   1dxy       0.003217  0.003356  0.001638  0.000532  0.001376  0.000527
  9N   1s        -0.162725  0.042012 -0.045701 -0.011033  0.023715  0.028637
  9N   2s         0.328602 -0.087728  0.097447  0.025287 -0.049144 -0.063667
  9N   1pz       -0.010251  0.002286 -0.001819 -0.000174  0.000627 -0.000517
  9N   1px       -0.108701  0.022774 -0.020595  0.003981  0.004787 -0.010560
  9N   1py       -0.146846  0.034673 -0.024320 -0.010167  0.011444 -0.000817
  9N   3s         0.347942 -0.080627  0.090607  0.007490 -0.070509 -0.052343
  9N   2pz       -0.003605  0.000441 -0.000146  0.000296  0.000291 -0.000671
  9N   2px       -0.037561  0.004613 -0.002329  0.003169  0.002074 -0.009321
  9N   2py       -0.052558  0.006452 -0.001039  0.004097  0.005476 -0.006716
  9N   1dz2      -0.008117  0.001802 -0.001454 -0.000172  0.000536  0.000021
  9N   1dxz       0.000941 -0.000182  0.000184 -0.000052 -0.000041  0.000061
  9N   1dyz       0.001268 -0.000293  0.000219  0.000050 -0.000094 -0.000022
  9N   1dx2y2    -0.004093  0.001403 -0.000447 -0.001304  0.000670  0.001068
  9N   1dxy       0.013392 -0.002851  0.002447 -0.000129 -0.000801  0.000381
 10H   1s        -0.007481 -0.060554  0.018732 -0.091700  0.131695  0.091842
 10H   2s         0.000488 -0.010202  0.004761 -0.031978  0.048618  0.055127
                     18        19        20        21        22        23   
                  -0.53393  -0.49549  -0.48985  -0.38728  -0.38512  -0.38027
                   2.00000   2.00000   2.00000   2.00000   2.00000   2.00000
                  --------  --------  --------  --------  --------  --------
  0C   1s        -0.036174 -0.000032  0.028802  0.008738  0.000004  0.000013
  0C   2s         0.075835  0.000054 -0.064558 -0.019701 -0.000004 -0.000016
  0C   1pz       -0.017237 -0.199738  0.006093  0.001371 -0.067955 -0.233384
  0C   1px       -0.347141  0.009242 -0.032967  0.022972  0.003176  0.010912
  0C   1py       -0.030823  0.006915  0.220135  0.007567  0.002405  0.008236
  0C   3s         0.102901  0.000033 -0.095007 -0.002984 -0.000104 -0.000113
  0C   2pz       -0.005725 -0.100329 -0.003075 -0.001719 -0.048820 -0.127657
  0C   2px       -0.110412  0.004625 -0.082300 -0.012077  0.002304  0.006031
  0C   2py       -0.016795  0.003487  0.023513 -0.033303  0.001693  0.004493
  0C   1dz2       0.000159  0.001002  0.000181  0.000015 -0.000257 -0.001130
  0C   1dxz       0.000201  0.006270  0.000080 -0.000055 -0.008888 -0.007558
  0C   1dyz      -0.000497  0.008052  0.000803 -0.000172  0.007526 -0.008461
  0C   1dx2y2     0.007934  0.000000 -0.007141  0.001007  0.000680  0.000054
  0C   1dxy      -0.004397 -0.000609  0.011923 -0.002882 -0.000039  0.000665
  1C   1s        -0.027315 -0.000023  0.023806 -0.020931 -0.000001 -0.000006
  1C   2s         0.055021  0.000037 -0.054607  0.037421 -0.000001  0.000011
  1C   1pz        0.017646 -0.250901  0.004369 -0.000121  0.161837 -0.017493
  1C   1px        0.331780  0.011794  0.011855 -0.058898 -0.007564  0.000789
  1C   1py        0.059400  0.008769  0.113374  0.074988 -0.005689  0.000610
  1C   3s         0.084033  0.000073 -0.104917  0.243607  0.000068  0.000065
  1C   2pz        0.003535 -0.112525  0.001493 -0.000773  0.092055 -0.018846
  1C   2px        0.027189  0.005313 -0.015992 -0.125725 -0.004241  0.000947
  1C   2py        0.063849  0.003777  0.065934  0.144592 -0.003234  0.000666
  1C   1dz2       0.002481  0.000619  0.000629  0.000165 -0.000349 -0.001612
  1C   1dxz       0.000769 -0.001652 -0.000164 -0.000119 -0.012525 -0.009562
  1C   1dyz      -0.000472  0.012331  0.000077 -0.000061  0.010877 -0.013658
  1C   1dx2y2     0.016507  0.000515 -0.002641 -0.000939  0.000968 -0.000035
  1C   1dxy       0.005697 -0.000509  0.000304 -0.001816 -0.000064  0.000976
  2N   1s         0.014233  0.000012 -0.018250 -0.000003  0.000000  0.000004
  2N   2s        -0.043131 -0.000000  0.038014 -0.001003  0.000010 -0.000012
  2N   1pz       -0.016129 -0.344301 -0.003475 -0.000243 -0.011436  0.280368
  2N   1px       -0.277225  0.015875  0.022944  0.021430  0.000536 -0.013008
  2N   1py       -0.096876  0.012181 -0.122556 -0.034380  0.000398 -0.009847
  2N   3s        -0.017926 -0.000230  0.115454  0.013987 -0.000029 -0.000020
  2N   2pz       -0.006328 -0.218542 -0.000817  0.000333 -0.004903  0.211597
  2N   2px       -0.097030  0.009912  0.027091  0.020836  0.000246 -0.009768
  2N   2py       -0.054296  0.007693 -0.054847 -0.017477  0.000178 -0.007441
  2N   1dz2      -0.004262 -0.001164 -0.000182  0.000244  0.000069  0.000055
  2N   1dxz       0.001390 -0.010448  0.000773 -0.000161 -0.005373  0.002941
  2N   1dyz       0.000689 -0.005227 -0.000409 -0.000055  0.008213 -0.003008
  2N   1dx2y2     0.009847  0.000295  0.014786 -0.001526  0.000538 -0.000246
  2N   1dxy       0.016588  0.000620  0.002264 -0.001992 -0.000196  0.000032
  3C   1s         0.008466 -0.000004  0.009219  0.000007 -0.000002 -0.000003
  3C   2s        -0.024629  0.000010 -0.005654 -0.002370  0.000006 -0.000008
  3C   1pz        0.003147 -0.226148  0.018717 -0.000589 -0.153043  0.118605
  3C   1px        0.136462  0.010495  0.110977 -0.026787  0.007112 -0.005518
  3C   1py       -0.092904  0.007670  0.389125  0.018253  0.005400 -0.004196
  3C   3s        -0.036406  0.000112 -0.058159  0.007842 -0.000025  0.000013
  3C   2pz        0.000728 -0.103537  0.006557  0.000195 -0.095116  0.065803
  3C   2px        0.032481  0.004734  0.065030 -0.006371  0.004395 -0.003041
  3C   2py       -0.022775  0.003612  0.101673  0.013620  0.003331 -0.002277
  3C   1dz2       0.000700 -0.000580  0.002028 -0.000078 -0.000880 -0.000842
  3C   1dxz       0.000387  0.005275  0.001192  0.000152 -0.005685 -0.013016
  3C   1dyz       0.000595 -0.016352 -0.000919 -0.000185 -0.006844  0.003435
  3C   1dx2y2    -0.000449 -0.000836  0.026591  0.003928  0.000025  0.000724
  3C   1dxy       0.013233  0.000573  0.003210 -0.001110  0.000519  0.000302
  4N   1s         0.006744  0.000002 -0.005088 -0.009779 -0.000005  0.000005
  4N   2s        -0.016094 -0.000017  0.014662  0.021780  0.000003 -0.000004
  4N   1pz       -0.005868 -0.197134 -0.016604  0.001495 -0.189924 -0.073963
  4N   1px       -0.065442  0.009274 -0.149111  0.031937  0.008863  0.003453
  4N   1py       -0.080916  0.007111 -0.269286 -0.000910  0.006714  0.002618
  4N   3s        -0.018535  0.000021 -0.004931  0.022932  0.000054 -0.000075
  4N   2pz       -0.002800 -0.101077 -0.005505  0.000975 -0.115232 -0.048572
  4N   2px       -0.034395  0.004741 -0.050148  0.022326  0.005358  0.002281
  4N   2py       -0.034412  0.003611 -0.087158 -0.002492  0.004057  0.001706
  4N   1dz2      -0.001148  0.001203 -0.000502  0.001049  0.000993 -0.000471
  4N   1dxz       0.000174  0.018276  0.001418 -0.000096  0.013528  0.001632
  4N   1dyz      -0.000313 -0.004481 -0.000001  0.000050 -0.001654 -0.009845
  4N   1dx2y2     0.005119 -0.001023  0.018845 -0.001285 -0.000689 -0.000424
  4N   1dxy      -0.004326 -0.000447  0.013646  0.001445 -0.000401  0.000403
  5H   1s         0.172500  0.000010  0.041144 -0.010291  0.000000  0.000010
  5H   2s         0.110607 -0.000048  0.026403 -0.008052  0.000023  0.000027
  6C   1s         0.052380  0.000039 -0.042256  0.002537  0.000000 -0.000015
  6C   2s        -0.112785 -0.000090  0.085834 -0.007087 -0.000005  0.000036
  6C   1pz        0.005878 -0.071252 -0.006067  0.000235 -0.073417 -0.347924
  6C   1px        0.019391  0.003387 -0.105850  0.009785  0.003424  0.016269
  6C   1py        0.140667  0.002572 -0.030621 -0.007340  0.002590  0.012261
  6C   3s        -0.110530 -0.000073  0.146654  0.019210  0.000021  0.000004
  6C   2pz        0.000620 -0.022309 -0.004722 -0.000651 -0.028751 -0.184926
  6C   2px       -0.010788  0.001032 -0.066607 -0.003795  0.001311  0.008625
  6C   2py        0.031656  0.000753 -0.045384 -0.013959  0.000989  0.006506
  6C   1dz2       0.000973  0.000475 -0.000721 -0.000243 -0.000076 -0.000484
  6C   1dxz       0.000180  0.003075  0.000242  0.000026 -0.001092 -0.002557
  6C   1dyz      -0.000302  0.003681  0.000059  0.000026  0.000213 -0.004533
  6C   1dx2y2     0.006021 -0.000014  0.002340 -0.000028  0.000059 -0.000039
  6C   1dxy      -0.000626 -0.000281  0.002029  0.000222  0.000030  0.000302
  7C   1s         0.042554  0.000029 -0.012493  0.071469  0.000007  0.000003
  7C   2s        -0.087112 -0.000072  0.025310 -0.134824 -0.000011 -0.000004
  7C   1pz        0.003466 -0.101887  0.002596  0.002165  0.382148 -0.069389
  7C   1px       -0.015018  0.004699  0.047598  0.172076 -0.017797  0.003270
  7C   1py        0.117570  0.003625  0.012794 -0.165307 -0.013484  0.002433
  7C   3s        -0.145851  0.000019  0.019751 -0.161633  0.000018  0.000016
  7C   2pz        0.001543 -0.043505  0.001166 -0.000677  0.206437 -0.036233
  7C   2px       -0.024888  0.002083  0.014917 -0.147919 -0.009649  0.001700
  7C   2py        0.076214  0.001488  0.014164  0.177197 -0.007257  0.001264
  7C   1dz2       0.001062  0.000006 -0.000324 -0.003165 -0.000200 -0.000120
  7C   1dxz       0.000280 -0.003704  0.000096 -0.000015 -0.007538  0.000625
  7C   1dyz      -0.000241  0.005006 -0.000036 -0.000065  0.006721 -0.002778
  7C   1dx2y2     0.006781  0.000351  0.001599 -0.001048  0.000587 -0.000129
[...]
                  6          7          8          9         10         11    
      0      -0.003090  -0.008552   0.017316  -0.220699  -0.004420  -0.090021
      1      -0.134510  -0.006833   0.012745   0.128820  -0.003309  -0.026248
      2      -0.004676   0.188963  -0.366626  -0.005924   0.090383  -0.005241
      3       0.004594   0.011300   0.017235  -0.220793   0.005212   0.055740
      4      -0.142491   0.008505   0.012945  -0.140930   0.004059  -0.037108
      5      -0.004541  -0.236044  -0.365253  -0.015993  -0.112543   0.001677
      6       0.000051   0.018000  -0.002587   0.043412  -0.015217  -0.041665
      7      -0.135872   0.013950  -0.001753  -0.218171  -0.011697   0.000164
      8      -0.004804  -0.387556   0.055060  -0.006047   0.331414  -0.002491
      9       0.014858  -0.002243  -0.013438   0.198663   0.003304   0.016553
     10      -0.127360  -0.001578  -0.010113   0.014201   0.002383   0.031216
     11      -0.004000   0.043475   0.284134   0.010094  -0.063394   0.001941
     12       0.015964  -0.018787  -0.000886   0.035503   0.011454   0.035792
     13      -0.123501  -0.014483  -0.001002   0.228478   0.008636   0.017930
     14      -0.003656   0.402649   0.019083   0.010283  -0.239557   0.002644
     15       0.006577   0.029169  -0.010201   0.122435  -0.007132  -0.035646
     16      -0.152084   0.022816  -0.007164  -0.427259  -0.005928  -0.011829
     17      -0.005099  -0.631326   0.217256  -0.009929   0.159068  -0.001760
     18      -0.187643  -0.002704   0.008529  -0.213770  -0.026257  -0.587612
     19       0.000476  -0.002390   0.006292   0.120919  -0.019541   0.250012
     20      -0.008550   0.063388  -0.181072  -0.005857   0.546487  -0.019443
     21       0.179884   0.003391   0.007993  -0.215890   0.028841   0.582671
     22       0.010179   0.002531   0.005976  -0.134090   0.022118   0.328196
     23       0.008891  -0.066560  -0.165481  -0.015050  -0.601448   0.039423
     24       0.539179  -0.015013  -0.011774   0.202713  -0.011347  -0.022558
     25       0.340740  -0.011455  -0.008992   0.253674  -0.008399  -0.252120
     26       0.036966   0.316493   0.252535   0.019062   0.235315  -0.010222
     27      -0.564458   0.012896  -0.014173   0.255889   0.009388   0.048552
     28       0.276341   0.010285  -0.010029  -0.224804   0.006621  -0.235609
     29      -0.016812  -0.284237   0.294031   0.003978  -0.207932  -0.005725
     30       0.019651  -0.003023  -0.029437   0.421464   0.007043   0.026152
     31      -0.127272  -0.001954  -0.022014   0.014897   0.005139   0.031005
     32      -0.003984   0.054115   0.622083   0.020903  -0.141683   0.002506
                 12         13         14         15         16         17    
      0       0.055652   0.009163   0.002903  -0.180908  -0.113217  -0.001379
      1       0.107501   0.007122   0.002149   0.132984   0.122239  -0.001033
      2       0.007544  -0.191548  -0.061412  -0.003976  -0.000962   0.029205
      3       0.077579   0.010892   0.003804  -0.190293   0.038273  -0.008333
      4      -0.118325   0.007692   0.002858  -0.164572   0.055365  -0.006303
      5       0.000372  -0.225716  -0.080421  -0.015090   0.003987   0.177937
      6      -0.192233   0.005350  -0.006470  -0.158648  -0.019191   0.005346
      7       0.029427   0.004791  -0.004829  -0.283357   0.232066   0.004020
      8      -0.007147  -0.126779   0.140240  -0.017206   0.007203  -0.115203
      9      -0.263489  -0.009791   0.001342   0.031229  -0.002288  -0.008250
     10      -0.018293  -0.006703   0.001103  -0.036001   0.324621  -0.006253
     11      -0.013819   0.192176  -0.030330   0.000192   0.011270   0.177309
     12      -0.213301   0.005905  -0.001637  -0.179277  -0.048929   0.007717
     13      -0.047489   0.004799  -0.001263   0.210599   0.341001   0.005888
     14      -0.011329  -0.139308   0.035130  -0.000882   0.009890  -0.165569
     15      -0.281073  -0.020665   0.044704  -0.102571  -0.042843   0.034597
     16       0.262901  -0.013785   0.034147  -0.446940   0.308210   0.026178
     17      -0.004729   0.428007  -0.966370  -0.021306   0.009246  -0.746962
     18      -0.017654  -0.020406  -0.001221   0.384634   0.022642   0.000318
     19       0.400776  -0.013976  -0.000736  -0.110261  -0.356711   0.000177
     20       0.011885   0.430426   0.023051   0.014322  -0.011888  -0.005581
     21       0.035677  -0.016987  -0.003636   0.317090   0.105144   0.003170
     22      -0.398131  -0.014309  -0.002854   0.215791  -0.304684   0.002405
     23      -0.014796   0.365114   0.077894   0.022789  -0.006026  -0.067636
     24       0.283953   0.007450   0.001210  -0.019821   0.261855  -0.001122
     25      -0.221510   0.004110   0.000801  -0.107135  -0.244505  -0.000837
     26       0.006382  -0.138640  -0.024470  -0.004825   0.003675   0.024078
     27       0.258762   0.007930   0.000442   0.028446  -0.238483  -0.000100
     28       0.244557   0.005954   0.000281   0.182101  -0.238529  -0.000063
     29       0.021183  -0.154105  -0.009276   0.007660  -0.019383   0.002298
     30      -0.287830  -0.026188   0.006958   0.367966   0.062269  -0.026642
     31      -0.016744  -0.018946   0.005423  -0.035835   0.337337  -0.020205
     32      -0.016528   0.540107  -0.153003   0.015980   0.014637   0.573448
                 18         19         20         21         22         23    
      0      -0.032984  -0.001619   0.077180  -0.143237   0.171036  -0.102043
      1      -0.025002  -0.001250  -0.129906   0.006520  -0.051881   0.041367
      2       0.705795   0.034960  -0.000970  -0.006450   0.006142  -0.003294
      3       0.023946   0.001134  -0.130545  -0.143678   0.126341  -0.018164
      4       0.018140   0.000859  -0.122780   0.014388   0.041003   0.219560
      5      -0.513895  -0.024265  -0.010481  -0.006172   0.007311   0.006883
      6      -0.003980  -0.001852  -0.370571   0.169357   0.059155  -0.040810
      7      -0.003008  -0.001406  -0.046528   0.048318  -0.143740   0.021586
      8       0.087333   0.040389  -0.018855   0.009561  -0.002329  -0.001129
      9      -0.007710   0.008210  -0.030062  -0.055166  -0.138989   0.040247
     10      -0.005820   0.006228   0.382649   0.042861   0.151350   0.024269
     11       0.166398  -0.176609   0.012049  -0.001037  -0.001099   0.002739
     12       0.015849  -0.001322   0.424761   0.037021  -0.131367  -0.023136
     13       0.012054  -0.000990  -0.097834  -0.071631   0.069304  -0.173144
     14      -0.339563   0.028032   0.016360  -0.000804  -0.003668  -0.007194
     15      -0.000186  -0.000609  -0.221389   0.358064   0.329818   0.145128
     16       0.000010  -0.000522  -0.468270  -0.413238  -0.848544  -0.473688
     17       0.004432   0.013948  -0.026871   0.002183  -0.014522  -0.010008
     18       0.010696   0.000389   0.037702   0.030997  -0.034640   0.004129
     19       0.008085   0.000311   0.007227   0.005721   0.006804   0.001437
     20      -0.231116  -0.008624   0.002024   0.001664  -0.001388   0.000248
     21      -0.006585  -0.000564  -0.011848   0.036919  -0.018060   0.003155
     22      -0.004984  -0.000430  -0.011132  -0.004866   0.002619  -0.029134
     23       0.142856   0.012069  -0.000923   0.001547  -0.000749  -0.000884
     24       0.002020   0.000145  -0.002710   0.035293  -0.022673   0.050509
     25       0.001498   0.000101   0.001719  -0.044840   0.028248  -0.050011
     26      -0.043082  -0.003058  -0.000067   0.000065  -0.000059   0.000596
     27      -0.003238  -0.000114   0.027268   0.023701  -0.016740   0.007267
     28      -0.002481  -0.000088   0.039520   0.039631  -0.033129   0.013116
     29       0.067667   0.002412   0.002650   0.002493  -0.001944   0.000800
     30       0.002782  -0.045676  -0.186872  -0.778766  -0.038022   0.806603
     31       0.002113  -0.034509   0.399172   0.039536   0.164624   0.024110
     32      -0.058794   0.980180   0.005417  -0.034913   0.003976   0.038448
                 24         25         26         27         28         29    
      0      -0.026915   0.046622  -0.174609  -0.212846   0.295778   0.011795
      1       0.424589  -0.260134  -0.106854  -0.198550   0.051142   0.026400
      2       0.013768  -0.007029  -0.011926  -0.016957   0.015609   0.001488
      3       0.197971  -0.076435   0.059257   0.232772  -0.341377  -0.089622
      4       0.130313   0.362108   0.133571   0.078035   0.197272   0.104404
      5       0.013796   0.009188   0.007487   0.013593  -0.008957  -0.000495
      6      -0.106323  -0.153618   0.134853  -0.080475   0.048924  -0.004359
      7      -0.184831  -0.002231  -0.222161  -0.087992  -0.181098   0.004936
      8      -0.011439  -0.007214  -0.001562  -0.006829  -0.004121  -0.000032
      9      -0.020773   0.007359  -0.241911   0.337032   0.141512   0.010360
     10      -0.101151  -0.297128   0.081091   0.161010   0.112295  -0.004299
     11      -0.004552  -0.010143  -0.008416   0.021379   0.010555   0.000326
     12       0.129390   0.121641   0.122094  -0.171369  -0.116946  -0.001778
     13      -0.067949   0.287179   0.034879  -0.048461  -0.090179  -0.007345
     14       0.003611   0.015804   0.006929  -0.009697  -0.008627  -0.000342
     15      -0.149975  -0.007734  -0.244231  -0.193067  -0.287628  -0.007156
     16      -0.121788  -0.473482   0.787644   0.184656   0.679332  -0.004132
     17      -0.011405  -0.016977   0.016442  -0.002556   0.010549  -0.000484
     18      -0.004164  -0.007292   0.013995   0.003970  -0.024965  -0.093313
     19      -0.041236   0.021115   0.004089   0.008211   0.010897  -0.126284
     20      -0.001685   0.000417   0.000805   0.000495  -0.000794  -0.008807
     21      -0.013700  -0.002493   0.001209  -0.026520   0.018297   0.534523
     22      -0.007951  -0.040861  -0.005003  -0.013747   0.004179  -0.584089
     23      -0.000918  -0.001566  -0.000122  -0.001719   0.000998   0.004356
     24      -0.000823   0.069350   0.007503  -0.011022   0.058606  -0.380476
     25       0.007695  -0.068607  -0.004562   0.020089  -0.067669   0.412855
     26       0.000235   0.000819   0.000190   0.000197   0.000353  -0.003204
     27      -0.068583   0.025074   0.024319   0.043801  -0.024668   0.066931
     28      -0.083604   0.026756   0.036190   0.060560  -0.041590   0.091484
     29      -0.006133   0.002113   0.002406   0.004175  -0.002615   0.006345
     30      -0.783970  -0.475862   0.307399  -0.747541  -0.302155  -0.003990
     31      -0.131459  -0.343866   0.101589   0.174242   0.130798  -0.013425
     32      -0.041043  -0.034307   0.017912  -0.028613  -0.009448  -0.000647
                  30         31         32    
      0      -0.083822   0.000400   0.001173
      1      -0.098268  -0.002085   0.000169
      2      -0.007408  -0.000055   0.000061
      3      -0.020221  -0.000284   0.000425
      4       0.016404  -0.002049   0.002582
      5      -0.000366  -0.000086   0.000110
      6      -0.002170   0.000692  -0.070425
      7       0.008448  -0.002105  -0.026901
      8       0.000208  -0.000042  -0.004204
      9       0.013912  -0.000675   0.001625
     10       0.004928   0.090353  -0.003049
     11       0.000828   0.003151  -0.000032
     12      -0.003425  -0.001836   0.000883
     13      -0.014935  -0.001380   0.001019
     14      -0.000692  -0.000134   0.000077
     15       0.003162   0.013384   0.930654
     16       0.005126   0.013616   0.353381
     17       0.000373   0.001099   0.055481
     18       0.467076   0.000215  -0.000090
     19       0.635940   0.000213  -0.000214
     20       0.044217   0.000018  -0.000012
     21       0.106652  -0.000306  -0.000002
     22      -0.117572   0.000234  -0.000285
     23       0.000833  -0.000006  -0.000010
     24      -0.075748   0.000129  -0.000007
     25       0.082272  -0.000108   0.000010
     26      -0.000638   0.000002  -0.000000
     27      -0.333592  -0.000086   0.000067
     28      -0.455406  -0.000095   0.000111
     29      -0.031607  -0.000007   0.000007
     30       0.000323   0.009658  -0.002466
     31       0.010047  -0.995063   0.014069
     32       0.000382  -0.034591   0.000379


-----------
IR SPECTRUM
-----------

 Mode    freq (cm**-1)   T**2         TX         TY         TZ
-------------------------------------------------------------------
   6:       107.55    3.560880  ( -0.040385  -1.885411  -0.066898)
   7:       155.54    6.024961  (  0.114632   0.087461  -2.450341)
   8:       186.47    2.395313  (  0.073475   0.056572  -1.544899)
   9:       209.65    5.411275  ( -1.585114  -1.696871  -0.138981)
  10:       463.58    0.013259  (  0.005829   0.004562  -0.114908)
  11:       482.32    1.448834  ( -0.481079   1.103205   0.018299)
  12:       520.51    1.291400  ( -0.642587   0.937165  -0.014312)
  13:       530.35   31.722613  ( -0.261799  -0.190723   5.622962)
  14:       570.01   95.413763  (  0.442387   0.339028  -9.752083)
  15:       637.63    6.559758  (  2.067264  -1.511442   0.041483)
  16:       659.42    0.044589  (  0.156517   0.141259   0.011729)
  17:       668.18    3.299867  (  0.080107   0.061081  -1.813758)
  18:       742.44    0.520255  ( -0.034486  -0.025171   0.720022)
  19:       843.44    8.871959  ( -0.138577  -0.102067   2.973607)
  20:       954.50    2.843161  ( -1.633380  -0.408711  -0.090482)
  21:      1105.91   23.257277  ( -4.460483  -1.813121  -0.271961)
  22:      1151.88   25.788670  (  4.073605  -3.031072   0.083737)
  23:      1276.82    9.075930  (  2.612370   1.490439   0.173329)
  24:      1300.72   21.714018  ( -0.218283   4.652176   0.153724)
  25:      1385.59   29.431407  (  2.785416  -4.655282  -0.034782)
  26:      1454.14    9.604540  ( -1.580618   2.665667   0.020233)
  27:      1514.10   16.359681  (  1.887582   3.570934   0.212488)
  28:      1585.08   15.237619  (  2.466229   3.017704   0.220898)
  29:      2346.28   26.939426  (  4.258515  -2.965752   0.093762)
  30:      2360.93   12.252223  (  3.385940   0.867243   0.188469)
  31:      3283.32    0.773524  (  0.842059  -0.251945   0.031379)
  32:      3633.26  103.384234  (  8.836046   4.996684   0.584530)

The first frequency considered to be a vibration is 6
The total number of vibrations considered is 27


--------------------------
THERMOCHEMISTRY AT 298.15K
--------------------------

Temperature         ... 298.15 K
Pressure            ... 1.00 atm
Total Mass          ... 118.10 AMU

Throughout the following assumptions are being made:
  (1) The electronic state is orbitally nondegenerate
  (2) There are no thermally accessible electronically excited states
  (3) Hindered rotations indicated by low frequency modes are not
      treated as such but are treated as vibrations and this may
      cause some error
  (4) All equations used are the standard statistical mechanics
      equations for an ideal gas
  (5) All vibrations are strictly harmonic

freq.     107.55  E(vib)   ...       0.45 
freq.     155.54  E(vib)   ...       0.40 
freq.     186.47  E(vib)   ...       0.37 
freq.     209.65  E(vib)   ...       0.34 
freq.     463.58  E(vib)   ...       0.16 
freq.     482.32  E(vib)   ...       0.15 
freq.     520.51  E(vib)   ...       0.13 
freq.     530.35  E(vib)   ...       0.13 
freq.     570.01  E(vib)   ...       0.11 
freq.     637.63  E(vib)   ...       0.09 
freq.     659.42  E(vib)   ...       0.08 
freq.     668.18  E(vib)   ...       0.08 
freq.     742.44  E(vib)   ...       0.06 
freq.     843.44  E(vib)   ...       0.04 
freq.     954.50  E(vib)   ...       0.03 
freq.    1105.91  E(vib)   ...       0.02 
freq.    1151.88  E(vib)   ...       0.01 
freq.    1276.82  E(vib)   ...       0.01 
freq.    1300.72  E(vib)   ...       0.01 
freq.    1385.59  E(vib)   ...       0.00 
freq.    1454.14  E(vib)   ...       0.00 
freq.    1514.10  E(vib)   ...       0.00 
freq.    1585.08  E(vib)   ...       0.00 
freq.    2346.28  E(vib)   ...       0.00 
freq.    2360.93  E(vib)   ...       0.00 
freq.    3283.32  E(vib)   ...       0.00 
freq.    3633.26  E(vib)   ...       0.00 

------------
INNER ENERGY
------------

The inner energy is: U= E(el) + E(ZPE) + E(vib) + E(rot) + E(trans)
    E(el)   - is the total energy from the electronic structure calculation
              = E(kin-el) + E(nuc-el) + E(el-el) + E(nuc-nuc)
    E(ZPE)  - the the zero temperature vibrational energy from the frequency calculation
    E(vib)  - the the finite temperature correction to E(ZPE) due to population
              of excited vibrational states
    E(rot)  - is the rotational thermal energy
    E(trans)- is the translational thermal energy

Summary of contributions to the inner energy U:
Electronic energy                ...   -410.46202162 Eh
Zero point energy                ...      0.06864033 Eh      43.07 kcal/mol
Thermal vibrational correction   ...      0.00425571 Eh       2.67 kcal/mol
Thermal rotational correction    ...      0.00141627 Eh       0.89 kcal/mol
Thermal translational correction ...      0.00141627 Eh       0.89 kcal/mol
-----------------------------------------------------------------------
Total thermal energy                   -410.38629302 Eh


Summary of corrections to the electronic energy:
(perhaps to be used in another calculation)
Total thermal correction                  0.00708826 Eh       4.45 kcal/mol
Non-thermal (ZPE) correction              0.06864033 Eh      43.07 kcal/mol
-----------------------------------------------------------------------
Total correction                          0.07572859 Eh      47.52 kcal/mol


--------
ENTHALPY
--------

The enthalpy is H = U + kB*T
                kB is Boltzmann's constant
Total free energy                 ...   -410.38629302 Eh 
Thermal Enthalpy correction       ...      0.00094421 Eh       0.59 kcal/mol
-----------------------------------------------------------------------
Total Enthalpy                    ...   -410.38534882 Eh


Note: Rotational entropy computed according to Herzberg 
Infrared and Raman Spectra, Chapter V,1, Van Nostrand Reinhold, 1945 
Point Group:  C1, Symmetry Number:   1  
Rotational constants in cm-1:     0.067493     0.063602     0.032745 

Vibrational entropy computed according to the QRRHO of S. Grimme
Chem.Eur.J. 2012 18 9955


-------
ENTROPY
-------

The entropy contributions are T*S = T*(S(el)+S(vib)+S(rot)+S(trans))
     S(el)   - electronic entropy
     S(vib)  - vibrational entropy
     S(rot)  - rotational entropy
     S(trans)- translational entropy
The entropies will be listed as mutliplied by the temperature to get
units of energy

Electronic entropy                ...      0.00000000 Eh      0.00 kcal/mol
Vibrational entropy               ...      0.00712709 Eh      4.47 kcal/mol
Rotational entropy                ...      0.01369819 Eh      8.60 kcal/mol
Translational entropy             ...      0.01910684 Eh     11.99 kcal/mol
-----------------------------------------------------------------------
Final entropy term                ...      0.03993213 Eh     25.06 kcal/mol


-------------------
GIBBS FREE ENTHALPY
-------------------

The Gibbs free enthalpy is G = H - T*S

Total enthalpy                    ...   -410.38534882 Eh 
Total entropy correction          ...     -0.03993213 Eh    -25.06 kcal/mol
-----------------------------------------------------------------------
Final Gibbs free enthalpy         ...   -410.42528094 Eh

For completeness - the Gibbs free enthalpy minus the electronic energy
G-E(el)                           ...      0.03674067 Eh     23.06 kcal/mol


Timings for individual modules:

Sum of individual times         ...      564.570 sec (=   9.410 min)
GTO integral calculation        ...        0.312 sec (=   0.005 min)   0.1 %
SCF iterations                  ...       34.544 sec (=   0.576 min)   6.1 %
Analytical frequency calculation...      529.715 sec (=   8.829 min)  93.8 %
                             ****ORCA TERMINATED NORMALLY****
TOTAL RUN TIME: 0 days 0 hours 9 minutes 24 seconds 877 msec
