
                                 *****************
                                 * O   R   C   A *
                                 *****************

           --- An Ab Initio, DFT and Semiempirical electronic structure package ---

                  #######################################################
                  #                        -***-                        #
                  #          Department of theory and spectroscopy      #
                  #               Directorship: Frank Neese             #
                  #        Max Planck Institute fuer Kohlenforschung    #
                  #                Kaiser Wilhelm Platz 1               #
                  #                 D-45470 Muelheim/Ruhr               #
                  #                      Germany                        #
                  #                                                     #
                  #                  All rights reserved                #
                  #                        -***-                        #
                  #######################################################


                         Program Version 4.1.0  - RELEASE  -


 With contributions from (in alphabetic order):
   Daniel Aravena         : Magnetic Properties
   Michael Atanasov       : Ab Initio Ligand Field Theory
   Alexander A. Auer      : GIAO ZORA
   Ute Becker             : Parallelization
   Giovanni Bistoni       : ED, Open-shell LED
   Martin Brehm           : Molecular dynamics
   Dmytro Bykov           : SCF Hessian
   Vijay G. Chilkuri      : MRCI spin determinant printing
   Dipayan Datta          : RHF DLPNO-CCSD density
   Achintya Kumar Dutta   : EOM-CC, STEOM-CC
   Dmitry Ganyushin       : Spin-Orbit,Spin-Spin,Magnetic field MRCI
   Miquel Garcia          : C-PCM Hessian
   Yang Guo               : DLPNO-NEVPT2, CIM, IAO-localization
   Andreas Hansen         : Spin unrestricted coupled pair/coupled cluster methods
   Benjamin Helmich-Paris : CASSCF linear response (MC-RPA)
   Lee Huntington         : MR-EOM, pCC
   Robert Izsak           : Overlap fitted RIJCOSX, COSX-SCS-MP3, EOM
   Christian Kollmar      : KDIIS, OOCD, Brueckner-CCSD(T), CCSD density
   Simone Kossmann        : Meta GGA functionals, TD-DFT gradient, OOMP2, MP2 Hessian
   Martin Krupicka        : AUTO-CI
   Lucas Lang             : DCDCAS
   Dagmar Lenk            : GEPOL surface, SMD
   Dimitrios Liakos       : Extrapolation schemes; parallel MDCI
   Dimitrios Manganas     : ROCIS; embedding schemes
   Dimitrios Pantazis     : SARC Basis sets
   Taras Petrenko         : DFT Hessian,TD-DFT gradient, ASA, ECA, R-Raman, ABS, FL, XAS/XES, NRVS
   Peter Pinski           : DLPNO-MP2, DLPNO-MP2 Gradient
   Christoph Reimann      : Effective Core Potentials
   Marius Retegan         : Local ZFS, SOC
   Christoph Riplinger    : Optimizer, TS searches, QM/MM, DLPNO-CCSD(T), (RO)-DLPNO pert. Triples
   Tobias Risthaus        : Range-separated hybrids, TD-DFT gradient, RPA, STAB
   Michael Roemelt        : Restricted open shell CIS
   Masaaki Saitow         : Open-shell DLPNO
   Barbara Sandhoefer     : DKH picture change effects
   Avijit Sen             : IP-ROCIS
   Kantharuban Sivalingam : CASSCF convergence, NEVPT2, FIC-MRCI
   Bernardo de Souza      : ESD, SOC TD-DFT
   Georgi Stoychev        : AutoAux, RI-MP2 NMR
   Willem Van den Heuvel  : Paramagnetic NMR
   Boris Wezisla          : Elementary symmetry handling
   Frank Wennmohs         : Technical directorship


 We gratefully acknowledge several colleagues who have allowed us to
 interface, adapt or use parts of their codes:
   Stefan Grimme, W. Hujo, H. Kruse,             : VdW corrections, initial TS optimization,
                  C. Bannwarth                     DFT functionals, gCP, sTDA/sTD-DF
   Ed Valeev                                     : LibInt (2-el integral package), F12 methods
   Garnet Chan, S. Sharma, J. Yang, R. Olivares  : DMRG
   Ulf Ekstrom                                   : XCFun DFT Library
   Mihaly Kallay                                 : mrcc  (arbitrary order and MRCC methods)
   Andreas Klamt, Michael Diedenhofen            : otool_cosmo (COSMO solvation model)
   Jiri Pittner, Ondrej Demel                    : Mk-CCSD
   Frank Weinhold                                : gennbo (NPA and NBO analysis)
   Christopher J. Cramer and Donald G. Truhlar   : smd solvation model
   Lars Goerigk                                  : TD-DFT with DH, B97 family of functionals
   V. Asgeirsson, H. Jonsson                     : NEB implementation
   FAccTs GmbH                                   : IRC, NEB, NEB-TS, Multilevel


 Your calculation uses the libint2 library for the computation of 2-el integrals
 For citations please refer to: http://libint.valeyev.net

 This ORCA versions uses:
   CBLAS   interface :  Fast vector & matrix operations
   LAPACKE interface :  Fast linear algebra routines
   SCALAPACK package :  Parallel linear algebra routines




***************************************
The coordinates will be read from file: /Users/lailaal-madhagi/Desktop/Testing_XAS_Analysis_code/Dicyanoimidazole/Dicyanoimidazole_geom.xyz
***************************************


----- Orbital basis set information -----
Your calculation utilizes the basis: 6-31G*
   H-He, Li-Ne : W. J. Hehre, R. Ditchfield and J.A. Pople, J. Chem. Phys. 56, 2257 (1972).
                 Note: He and Ne are unpublished basis sets taken from the Gaussian program.
                 Note: Li and B from J. D. Dill and J. A. Pople, J. Chem. Phys. 62, 2921 (1975).
   Na - Ar     : M. M. Francl, W. J. Pietro, W. J. Hehre, J. S. Binkley, M. S. Gordon, 
                 D. J. DeFrees and J. A. Pople, J. Chem. Phys. 77, 3654 (1982).
   K - Zn      : V. A. Rassolov, J. A. Pople, M. A. Ratner, and T. L. Windus, J. Chem. Phys. 109, 1223 (1998).

================================================================================
                                        WARNINGS
                       Please study these warnings very carefully!
================================================================================


WARNING: Geometry Optimization
  ===> : Switching off AutoStart
         For restart on a previous wavefunction, please use MOREAD

INFO   : the flag for use of LIBINT has been found!

================================================================================
                                       INPUT FILE
================================================================================
NAME = /Users/lailaal-madhagi/Desktop/Testing_XAS_Analysis_code/Dicyanoimidazole//Results_dir_Dicyanoimidazole_geom_element_C_2019-11-10_14-17-23//GTE1_Dicyanoimidazole_geom_2019-11-10_14-17-43//opt.inp
|  1> ! B3LYP 6-31G* TIGHTSCF Grid3 FinalGrid5 Opt 
|  2> !NormalPrint 
|  3> %output 
|  4> Print[P_Basis] 2 
|  5> Print[P_MOS] 1 
|  6> end 
|  7> *xyzfile 0 1 /Users/lailaal-madhagi/Desktop/Testing_XAS_Analysis_code/Dicyanoimidazole/Dicyanoimidazole_geom.xyz                           ****END OF INPUT****
================================================================================

                       *****************************
                       * Geometry Optimization Run *
                       *****************************

Geometry optimization settings:
Update method            Update   .... BFGS
Choice of coordinates    CoordSys .... Z-matrix Internals
Initial Hessian          InHess   .... Almoef's Model

Convergence Tolerances:
Energy Change            TolE     ....  5.0000e-06 Eh
Max. Gradient            TolMAXG  ....  3.0000e-04 Eh/bohr
RMS Gradient             TolRMSG  ....  1.0000e-04 Eh/bohr
Max. Displacement        TolMAXD  ....  4.0000e-03 bohr
RMS Displacement         TolRMSD  ....  2.0000e-03 bohr

------------------------------------------------------------------------------
                        ORCA OPTIMIZATION COORDINATE SETUP
------------------------------------------------------------------------------

The optimization will be done in new redundant internal coordinates
Making redundant internal coordinates   ...  (new redundants) done
Evaluating the initial hessian          ...  (Almloef) done
Evaluating the coordinates              ...  done
Calculating the B-matrix                .... done
Calculating the G-matrix                .... done
Diagonalizing the G-matrix              .... done
The first mode is                       ....   17
The number of degrees of freedom        ....   27

    -----------------------------------------------------------------
                    Redundant Internal Coordinates


    -----------------------------------------------------------------
         Definition                    Initial Value    Approx d2E/dq
    -----------------------------------------------------------------
      1. B(C   1,C   0)                  1.3807         0.646549   
      2. B(N   2,C   1)                  1.3415         0.668696   
      3. B(C   3,N   2)                  1.3468         0.655928   
      4. B(N   4,C   3)                  1.3501         0.647994   
      5. B(N   4,C   0)                  1.3467         0.656027   
      6. B(H   5,N   2)                  1.0442         0.381579   
      7. B(C   6,C   0)                  1.4389         0.522103   
      8. B(C   7,C   1)                  1.4400         0.519911   
      9. B(N   8,C   7)                  1.1573         1.315465   
     10. B(N   9,C   6)                  1.1574         1.315361   
     11. B(H  10,C   3)                  1.0814         0.371650   
     12. A(C   1,C   0,C   6)          127.5752         0.424066   
     13. A(N   4,C   0,C   6)          123.2851         0.422406   
     14. A(C   1,C   0,N   4)          109.1397         0.438935   
     15. A(N   2,C   1,C   7)          123.8095         0.423534   
     16. A(C   0,C   1,N   2)          108.1949         0.440453   
     17. A(C   0,C   1,C   7)          127.9956         0.423747   
     18. A(C   3,N   2,H   5)          127.0278         0.354465   
     19. A(C   1,N   2,H   5)          127.3789         0.355626   
     20. A(C   1,N   2,C   3)          105.5933         0.438699   
     21. A(N   4,C   3,H  10)          123.7296         0.355262   
     22. A(N   2,C   3,H  10)          123.8632         0.355997   
     23. A(N   2,C   3,N   4)          112.4072         0.436219   
     24. A(C   0,N   4,C   3)          104.6649         0.436231   
     25. L(C   0,C   6,N   9,N   4, 2) 180.0023         0.479261   
     26. L(C   0,C   6,N   9,N   4, 1) 179.2000         0.479261   
     27. L(C   1,C   7,N   8,N   2, 2) 180.0003         0.478896   
     28. L(C   1,C   7,N   8,N   2, 1) 179.1450         0.478896   
     29. D(N   2,C   1,C   0,N   4)     -0.0345         0.029084   
     30. D(C   7,C   1,C   0,N   4)    179.9643         0.029084   
     31. D(C   7,C   1,C   0,C   6)     -0.0662         0.029084   
     32. D(N   2,C   1,C   0,C   6)    179.9349         0.029084   
     33. D(C   3,N   2,C   1,C   7)   -179.9641         0.036678   
     34. D(H   5,N   2,C   1,C   0)   -179.9683         0.036678   
     35. D(C   3,N   2,C   1,C   0)      0.0348         0.036678   
     36. D(H   5,N   2,C   1,C   7)      0.0328         0.036678   
     37. D(H  10,C   3,N   2,H   5)     -0.0137         0.035168   
     38. D(H  10,C   3,N   2,C   1)    179.9832         0.035168   
     39. D(N   4,C   3,N   2,H   5)    179.9789         0.035168   
     40. D(N   4,C   3,N   2,C   1)     -0.0241         0.035168   
     41. D(C   0,N   4,C   3,N   2)      0.0032         0.031017   
     42. D(C   3,N   4,C   0,C   6)   -179.9521         0.031855   
     43. D(C   3,N   4,C   0,C   1)      0.0189         0.031855   
     44. D(C   0,N   4,C   3,H  10)    179.9958         0.031017   
    -----------------------------------------------------------------

Number of atoms                         .... 11
Number of degrees of freedom            .... 44

         *************************************************************
         *                GEOMETRY OPTIMIZATION CYCLE   1            *
         *************************************************************
---------------------------------
CARTESIAN COORDINATES (ANGSTROEM)
---------------------------------
  C     -4.678480    0.892090   -0.023340
  C     -6.056760    0.844660   -0.089550
  N     -6.429040   -0.442610   -0.152860
  C     -5.284770   -1.152240   -0.123800
  N     -4.191930   -0.363490   -0.044550
  H     -7.401190   -0.819190   -0.212250
  C     -3.843570    2.061270    0.056120
  C     -6.982550    1.947640   -0.093550
  N     -7.739720    2.822910   -0.097780
  N     -3.158940    2.992200    0.120330
  H     -5.244450   -2.232290   -0.159940

----------------------------
CARTESIAN COORDINATES (A.U.)
----------------------------
  NO LB      ZA    FRAG     MASS         X           Y           Z
   0 C     6.0000    0    12.011   -8.841046    1.685806   -0.044106
   1 C     6.0000    0    12.011  -11.445618    1.596176   -0.169225
   2 N     7.0000    0    14.007  -12.149125   -0.836412   -0.288864
   3 C     6.0000    0    12.011   -9.986768   -2.177418   -0.233948
   4 N     7.0000    0    14.007   -7.921600   -0.686897   -0.084187
   5 H     1.0000    0     1.008  -13.986222   -1.548045   -0.401094
   6 C     6.0000    0    12.011   -7.263295    3.895236    0.106051
   7 C     6.0000    0    12.011  -13.195107    3.680506   -0.176784
   8 N     7.0000    0    14.007  -14.625951    5.334527   -0.184777
   9 N     7.0000    0    14.007   -5.969531    5.654439    0.227391
  10 H     1.0000    0     1.008   -9.910574   -4.218417   -0.302243

--------------------------------
INTERNAL COORDINATES (ANGSTROEM)
--------------------------------
 C      0   0   0     0.000000000000     0.00000000     0.00000000
 C      1   0   0     1.380684296789     0.00000000     0.00000000
 N      2   1   0     1.341515787235   108.19489613     0.00000000
 C      3   2   1     1.346763918955   105.59334863     0.03477812
 N      1   2   3     1.346722652590   109.13969310   359.96550551
 H      3   2   1     1.044229520268   127.37886512   180.03167103
 C      1   2   3     1.438878199189   127.57519044   179.93493469
 C      2   1   3     1.440023612480   127.99557952   179.99881883
 N      8   2   1     1.157333951243   179.14495054   179.99295736
 N      7   1   2     1.157355531330   179.19995246   179.95819907
 H      4   3   2     1.081406401174   123.86318615   179.98322605

---------------------------
INTERNAL COORDINATES (A.U.)
---------------------------
 C      0   0   0     0.000000000000     0.00000000     0.00000000
 C      1   0   0     2.609115198337     0.00000000     0.00000000
 N      2   1   0     2.535097442205   108.19489613     0.00000000
 C      3   2   1     2.545014973872   105.59334863     0.03477812
 N      1   2   3     2.544936991744   109.13969310   359.96550551
 H      3   2   1     1.973307814263   127.37886512   180.03167103
 C      1   2   3     2.719085736536   127.57519044   179.93493469
 C      2   1   3     2.721250253967   127.99557952   179.99881883
 N      8   2   1     2.187044213338   179.14495054   179.99295736
 N      7   1   2     2.187084993792   179.19995246   179.95819907
 H      4   3   2     2.043561937688   123.86318615   179.98322605

---------------------
BASIS SET INFORMATION
---------------------
There are 3 groups of distinct atoms

 Group   1 Type C   : 10s4p1d contracted to 3s2p1d pattern {631/31/1}
 Group   2 Type N   : 10s4p1d contracted to 3s2p1d pattern {631/31/1}
 Group   3 Type H   : 4s contracted to 2s pattern {31}

Atom   0C    basis set group =>   1
Atom   1C    basis set group =>   1
Atom   2N    basis set group =>   2
Atom   3C    basis set group =>   1
Atom   4N    basis set group =>   2
Atom   5H    basis set group =>   3
Atom   6C    basis set group =>   1
Atom   7C    basis set group =>   1
Atom   8N    basis set group =>   2
Atom   9N    basis set group =>   2
Atom  10H    basis set group =>   3

-------------------------
BASIS SET IN INPUT FORMAT
-------------------------

 # Basis set for element : H 
 NewGTO H 
 S 3 
   1      18.7311370000      0.0334945995
   2       2.8253937000      0.2347269467
   3       0.6401217000      0.8137573184
 S 1 
   1       0.1612778000      1.0000000000
  end;

 # Basis set for element : C 
 NewGTO C 
 S 6 
   1    3047.5249000000      0.0018347002
   2     457.3695100000      0.0140373012
   3     103.9486900000      0.0688426061
   4      29.2101550000      0.2321844206
   5       9.2866630000      0.4679413416
   6       3.1639270000      0.3623120322
 S 3 
   1       7.8682724000     -0.1193324086
   2       1.8812885000     -0.1608542116
   3       0.5442493000      1.1434564826
 P 3 
   1       7.8682724000      0.0689990956
   2       1.8812885000      0.3164239798
   3       0.5442493000      0.7443082524
 S 1 
   1       0.1687144000      1.0000000000
 P 1 
   1       0.1687144000      1.0000000000
 D 1 
   1       0.8000000000      1.0000000000
  end;

 # Basis set for element : N 
 NewGTO N 
 S 6 
   1    4173.5110000000      0.0018347994
   2     627.4579000000      0.0139949958
   3     142.9021000000      0.0685869792
   4      40.2343300000      0.2322409295
   5      12.8202100000      0.4690698576
   6       4.3904370000      0.3604548906
 S 3 
   1      11.6263580000     -0.1149610229
   2       2.7162800000     -0.1691180337
   3       0.7722180000      1.1458522281
 P 3 
   1      11.6263580000      0.0675800232
   2       2.7162800000      0.3239071114
   3       0.7722180000      0.7408952549
 S 1 
   1       0.2120313000      1.0000000000
 P 1 
   1       0.2120313000      1.0000000000
 D 1 
   1       0.8000000000      1.0000000000
  end;

------------------------------------------------------------------------------
                           ORCA GTO INTEGRAL CALCULATION
------------------------------------------------------------------------------

                         BASIS SET STATISTICS AND STARTUP INFO

 # of primitive gaussian shells          ...  143
 # of primitive gaussian functions       ...  251
 # of contracted shells                  ...   58
 # of contracted basis functions         ...  130
 Highest angular momentum                ...    2
 Maximum contraction depth               ...    6
 Integral package used                   ... LIBINT
 Integral threshhold            Thresh   ...  2.500e-11
 Primitive cut-off              TCut     ...  2.500e-12


------------------------------ INTEGRAL EVALUATION ----------------------------


 * One electron integrals 
 Pre-screening matrix                    ... done
 Shell pair data                         ... done (   0.001 sec)

-------------------------------------------------------------------------------
                                 ORCA SCF
-------------------------------------------------------------------------------

------------
SCF SETTINGS
------------
Hamiltonian:
 Density Functional     Method          .... DFT(GTOs)
 Exchange Functional    Exchange        .... B88
   X-Alpha parameter    XAlpha          ....  0.666667
   Becke's b parameter  XBeta           ....  0.004200
 Correlation Functional Correlation     .... LYP
 LDA part of GGA corr.  LDAOpt          .... VWN-5
 Gradients option       PostSCFGGA      .... off
 Hybrid DFT is turned on
   Fraction HF Exchange ScalHFX         ....  0.200000
   Scaling of DF-GGA-X  ScalDFX         ....  0.720000
   Scaling of DF-GGA-C  ScalDFC         ....  0.810000
   Scaling of DF-LDA-C  ScalLDAC        ....  1.000000
   Perturbative correction              ....  0.000000
   Density functional embedding theory  .... OFF
   NL short-range parameter             ....  4.800000


General Settings:
 Integral files         IntName         .... /Users/lailaal-madhagi/Desktop/Testing_XAS_Analysis_code/Dicyanoimidazole//Results_dir_Dicyanoimidazole_geom_element_C_2019-11-10_14-17-23//GTE1_Dicyanoimidazole_geom_2019-11-10_14-17-43//opt
 Hartree-Fock type      HFTyp           .... RHF
 Total Charge           Charge          ....    0
 Multiplicity           Mult            ....    1
 Number of Electrons    NEL             ....   60
 Basis Dimension        Dim             ....  130
 Nuclear Repulsion      ENuc            ....    361.3403254351 Eh

Convergence Acceleration:
 DIIS                   CNVDIIS         .... on
   Start iteration      DIISMaxIt       ....    12
   Startup error        DIISStart       ....  0.200000
   # of expansion vecs  DIISMaxEq       ....     5
   Bias factor          DIISBfac        ....   1.050
   Max. coefficient     DIISMaxC        ....  10.000
 Newton-Raphson         CNVNR           .... off
 SOSCF                  CNVSOSCF        .... on
   Start iteration      SOSCFMaxIt      ....   150
   Startup grad/error   SOSCFStart      ....  0.003300
 Level Shifting         CNVShift        .... on
   Level shift para.    LevelShift      ....    0.2500
   Turn off err/grad.   ShiftErr        ....    0.0010
 Zerner damping         CNVZerner       .... off
 Static damping         CNVDamp         .... on
   Fraction old density DampFac         ....    0.7000
   Max. Damping (<1)    DampMax         ....    0.9800
   Min. Damping (>=0)   DampMin         ....    0.0000
   Turn off err/grad.   DampErr         ....    0.1000
 Fernandez-Rico         CNVRico         .... off

SCF Procedure:
 Maximum # iterations   MaxIter         ....   125
 SCF integral mode      SCFMode         .... Direct
   Integral package                     .... LIBINT
 Reset frequency        DirectResetFreq ....    20
 Integral Threshold     Thresh          ....  2.500e-11 Eh
 Primitive CutOff       TCut            ....  2.500e-12 Eh

Convergence Tolerance:
 Convergence Check Mode ConvCheckMode   .... Total+1el-Energy
 Convergence forced     ConvForced      .... 0
 Energy Change          TolE            ....  1.000e-08 Eh
 1-El. energy change                    ....  1.000e-05 Eh
 Orbital Gradient       TolG            ....  1.000e-05
 Orbital Rotation angle TolX            ....  1.000e-05
 DIIS Error             TolErr          ....  5.000e-07


Diagonalization of the overlap matrix:
Smallest eigenvalue                        ... 5.898e-04
Time for diagonalization                   ...    0.004 sec
Threshold for overlap eigenvalues          ... 1.000e-08
Number of eigenvalues below threshold      ... 0
Time for construction of square roots      ...    0.002 sec
Total time needed                          ...    0.006 sec

-------------------
DFT GRID GENERATION
-------------------

General Integration Accuracy     IntAcc      ...  4.340
Radial Grid Type                 RadialGrid  ... Gauss-Chebyshev
Angular Grid (max. acc.)         AngularGrid ... Lebedev-194
Angular grid pruning method      GridPruning ... 3 (G Style)
Weight generation scheme         WeightScheme... Becke
Basis function cutoff            BFCut       ...    1.0000e-11
Integration weight cutoff        WCut        ...    1.0000e-14
Grids for H and He will be reduced by one unit

# of grid points (after initial pruning)     ...  32766 (   0.0 sec)
# of grid points (after weights+screening)   ...  30889 (   0.0 sec)
nearest neighbour list constructed           ...    0.0 sec
Grid point re-assignment to atoms done       ...    0.0 sec
Grid point division into batches done        ...    0.1 sec
Reduced shell lists constructed in    0.2 sec

Total number of grid points                  ...    30889
Total number of batches                      ...      488
Average number of points per batch           ...       63
Average number of grid points per atom       ...     2808
Average number of shells per batch           ...    38.43 (66.25%)
Average number of basis functions per batch  ...    88.66 (68.20%)
Average number of large shells per batch     ...    29.80 (77.54%)
Average number of large basis fcns per batch ...    68.56 (77.33%)
Maximum spatial batch extension              ...  23.43, 18.68, 22.17 au
Average spatial batch extension              ...   3.30,  3.21,  3.83 au

Time for grid setup =    0.261 sec

------------------------------
INITIAL GUESS: MODEL POTENTIAL
------------------------------
Loading Hartree-Fock densities                     ... done
Calculating cut-offs                               ... done
Setting up the integral package                    ... done
Initializing the effective Hamiltonian             ... done
Starting the Coulomb interaction                   ... done (   0.1 sec)
Reading the grid                                   ... done
Mapping shells                                     ... done
Starting the XC term evaluation                    ... done (   0.2 sec)
  promolecular density results
     # of electrons  =     59.998519165
     EX              =    -52.497149717
     EC              =     -2.073742703
     EX+EC           =    -54.570892420
Transforming the Hamiltonian                       ... done (   0.0 sec)
Diagonalizing the Hamiltonian                      ... done (   0.0 sec)
Back transforming the eigenvectors                 ... done (   0.0 sec)
Now organizing SCF variables                       ... done
                      ------------------
                      INITIAL GUESS DONE (   0.6 sec)
                      ------------------
--------------
SCF ITERATIONS
--------------
               ***  Starting incremental Fock matrix formation  ***

                         ----------------------------
                         !        ITERATION     0   !
                         ----------------------------
   Total Energy        :    -410.184776706515 Eh
   Energy Change       :    -410.184776706515 Eh
   MAX-DP              :       0.092518448086
   RMS-DP              :       0.004507461019
   Actual Damping      :       0.7000
   Actual Level Shift  :       0.2500 Eh
   Int. Num. El.       :    59.99972818 (UP=   29.99986409 DN=   29.99986409)
   Exchange            :   -42.71904493
   Correlation         :    -2.46609871


                         ----------------------------
                         !        ITERATION     1   !
                         ----------------------------
   Total Energy        :    -410.322690892670 Eh
   Energy Change       :      -0.137914186155 Eh
   MAX-DP              :       0.053838351133
   RMS-DP              :       0.002614235704
   Actual Damping      :       0.7000
   Actual Level Shift  :       0.2500 Eh
   Int. Num. El.       :    59.99970644 (UP=   29.99985322 DN=   29.99985322)
   Exchange            :   -42.44365934
   Correlation         :    -2.45725022

                               ***Turning on DIIS***

                         ----------------------------
                         !        ITERATION     2   !
                         ----------------------------
   Total Energy        :    -410.360566448513 Eh
   Energy Change       :      -0.037875555842 Eh
   MAX-DP              :       0.072288962183
   RMS-DP              :       0.003284206620
   Actual Damping      :       0.0000
   Actual Level Shift  :       0.2500 Eh
   Int. Num. El.       :    59.99968944 (UP=   29.99984472 DN=   29.99984472)
   Exchange            :   -42.27400522
   Correlation         :    -2.45130581
   DIIS-Error          :       0.043401522870


                         ----------------------------
                         !        ITERATION     3   !
                         ----------------------------
   Total Energy        :    -410.443959956945 Eh
   Energy Change       :      -0.083393508433 Eh
   MAX-DP              :       0.042763898641
   RMS-DP              :       0.002185075222
   Actual Damping      :       0.0000
   Actual Level Shift  :       0.2500 Eh
   Int. Num. El.       :    59.99966259 (UP=   29.99983130 DN=   29.99983130)
   Exchange            :   -42.04248673
   Correlation         :    -2.44190073
   DIIS-Error          :       0.043641538641
   DIIS coefficients:
      0.50981   0.49019


                         ----------------------------
                         !        ITERATION     4   !
                         ----------------------------
   Total Energy        :    -410.451456039978 Eh
   Energy Change       :      -0.007496083033 Eh
   MAX-DP              :       0.013070270857
   RMS-DP              :       0.000589510340
   Actual Damping      :       0.0000
   Actual Level Shift  :       0.2500 Eh
   Int. Num. El.       :    59.99967512 (UP=   29.99983756 DN=   29.99983756)
   Exchange            :   -42.15229585
   Correlation         :    -2.44565202
   DIIS-Error          :       0.042008971789
   DIIS coefficients:
      0.30153   0.23895   0.45952


                         ----------------------------
                         !        ITERATION     5   !
                         ----------------------------
   Total Energy        :    -410.455377119239 Eh
   Energy Change       :      -0.003921079261 Eh
   MAX-DP              :       0.003803950174
   RMS-DP              :       0.000162556884
   Actual Damping      :       0.0000
   Actual Level Shift  :       0.2500 Eh
   Int. Num. El.       :    59.99967821 (UP=   29.99983911 DN=   29.99983911)
   Exchange            :   -42.15699931
   Correlation         :    -2.44611129
   DIIS-Error          :       0.007823251485
   DIIS coefficients:
      0.08603   0.09271  -0.03657   0.85783


                         ----------------------------
                         !        ITERATION     6   !
                         ----------------------------
   Total Energy        :    -410.455589243785 Eh
   Energy Change       :      -0.000212124547 Eh
   MAX-DP              :       0.001307163319
   RMS-DP              :       0.000057308530
   Actual Damping      :       0.0000
   Actual Level Shift  :       0.2500 Eh
   Int. Num. El.       :    59.99967855 (UP=   29.99983927 DN=   29.99983927)
   Exchange            :   -42.16072019
   Correlation         :    -2.44633065
   DIIS-Error          :       0.003558323274
   DIIS coefficients:
      0.01379   0.02545  -0.07183   0.26886   0.76371

                      *** Initiating the SOSCF procedure ***
                           *** Shutting down DIIS ***
                      *** Re-Reading the Fockian *** 
                      *** Removing any level shift *** 

                         ----------------------------
                         !        ITERATION     7   !
                         ----------------------------
   Total Energy        :    -410.455616614953 Eh
   Energy Change       :      -0.000027371167 Eh
   MAX-DP              :       0.000891830033
   RMS-DP              :       0.000027314127
   Orbital gradient    :       0.000152667171
   Orbital Rotation    :       0.000152667171
   Actual Damping      :       0.0000
   Int. Num. El.       :    59.99967831 (UP=   29.99983916 DN=   29.99983916)
   Exchange            :   -42.15996793
   Correlation         :    -2.44631247

               *** Restarting incremental Fock matrix formation ***

                         ----------------------------
                         !        ITERATION     8   !
                         ----------------------------
   Total Energy        :    -410.455617499583 Eh
   Energy Change       :      -0.000000884630 Eh
   MAX-DP              :       0.000929809977
   RMS-DP              :       0.000035359725
   Orbital gradient    :       0.000232358744
   Orbital Rotation    :       0.000741778162
   Actual Damping      :       0.0000
   Int. Num. El.       :    59.99967823 (UP=   29.99983911 DN=   29.99983911)
   Exchange            :   -42.15957048
   Correlation         :    -2.44630219


                         ----------------------------
                         !        ITERATION     9   !
                         ----------------------------
   Total Energy        :    -410.455613957524 Eh
   Energy Change       :       0.000003542059 Eh
   MAX-DP              :       0.000648516502
   RMS-DP              :       0.000024338935
   Orbital gradient    :       0.000617248911
   Orbital Rotation    :       0.000540781874
   Actual Damping      :       0.0000
   Int. Num. El.       :    59.99967818 (UP=   29.99983909 DN=   29.99983909)
   Exchange            :   -42.15969932
   Correlation         :    -2.44630161


                         ----------------------------
                         !        ITERATION    10   !
                         ----------------------------
   Total Energy        :    -410.455618321645 Eh
   Energy Change       :      -0.000004364122 Eh
   MAX-DP              :       0.000220039515
   RMS-DP              :       0.000008735309
   Orbital gradient    :       0.000065785962
   Orbital Rotation    :       0.000170661810
   Actual Damping      :       0.0000
   Int. Num. El.       :    59.99967820 (UP=   29.99983910 DN=   29.99983910)
   Exchange            :   -42.15952139
   Correlation         :    -2.44629969


                         ----------------------------
                         !        ITERATION    11   !
                         ----------------------------
   Total Energy        :    -410.455618121296 Eh
   Energy Change       :       0.000000200349 Eh
   MAX-DP              :       0.000154855553
   RMS-DP              :       0.000005933604
   Orbital gradient    :       0.000105026358
   Orbital Rotation    :       0.000102607821
   Actual Damping      :       0.0000
   Int. Num. El.       :    59.99967823 (UP=   29.99983912 DN=   29.99983912)
   Exchange            :   -42.15971397
   Correlation         :    -2.44630488


                         ----------------------------
                         !        ITERATION    12   !
                         ----------------------------
   Total Energy        :    -410.455618397904 Eh
   Energy Change       :      -0.000000276608 Eh
   MAX-DP              :       0.000089200856
   RMS-DP              :       0.000002608979
   Orbital gradient    :       0.000016000661
   Orbital Rotation    :       0.000053517807
   Actual Damping      :       0.0000
   Int. Num. El.       :    59.99967821 (UP=   29.99983910 DN=   29.99983910)
   Exchange            :   -42.15958340
   Correlation         :    -2.44630142


                         ----------------------------
                         !        ITERATION    13   !
                         ----------------------------
   Total Energy        :    -410.455618378067 Eh
   Energy Change       :       0.000000019837 Eh
   MAX-DP              :       0.000057713934
   RMS-DP              :       0.000001770207
   Orbital gradient    :       0.000038730978
   Orbital Rotation    :       0.000031560769
   Actual Damping      :       0.0000
   Int. Num. El.       :    59.99967821 (UP=   29.99983911 DN=   29.99983911)
   Exchange            :   -42.15958787
   Correlation         :    -2.44630121


                         ----------------------------
                         !        ITERATION    14   !
                         ----------------------------
   Total Energy        :    -410.455618403080 Eh
   Energy Change       :      -0.000000025014 Eh
   MAX-DP              :       0.000020410512
   RMS-DP              :       0.000000776082
   Orbital gradient    :       0.000005297659
   Orbital Rotation    :       0.000028102615
   Actual Damping      :       0.0000
   Int. Num. El.       :    59.99967821 (UP=   29.99983911 DN=   29.99983911)
   Exchange            :   -42.15958416
   Correlation         :    -2.44630134


                         ----------------------------
                         !        ITERATION    15   !
                         ----------------------------
   Total Energy        :    -410.455618401787 Eh
   Energy Change       :       0.000000001293 Eh
   MAX-DP              :       0.000013693357
   RMS-DP              :       0.000000517156
   Orbital gradient    :       0.000010894001
   Orbital Rotation    :       0.000018092215
   Actual Damping      :       0.0000
   Int. Num. El.       :    59.99967821 (UP=   29.99983910 DN=   29.99983910)
   Exchange            :   -42.15959359
   Correlation         :    -2.44630162

                  ***Gradient check signals convergence***
              ***Rediagonalizing the Fockian in SOSCF/NRSCF***

               *****************************************************
               *                     SUCCESS                       *
               *           SCF CONVERGED AFTER  16 CYCLES          *
               *****************************************************

Setting up the final grid:

General Integration Accuracy     IntAcc      ...  5.010
Radial Grid Type                 RadialGrid  ... Gauss-Chebyshev
Angular Grid (max. acc.)         AngularGrid ... Lebedev-434
Angular grid pruning method      GridPruning ... 3 (G Style)
Weight generation scheme         WeightScheme... Becke
Basis function cutoff            BFCut       ...    1.0000e-11
Integration weight cutoff        WCut        ...    1.0000e-14
Grids for H and He will be reduced by one unit

# of grid points (after initial pruning)     ... 109234 (   0.0 sec)
# of grid points (after weights+screening)   ... 102270 (   0.1 sec)
nearest neighbour list constructed           ...    0.0 sec
Grid point re-assignment to atoms done       ...    0.0 sec
Grid point division into batches done        ...    0.6 sec
Reduced shell lists constructed in    1.0 sec

Total number of grid points                  ...   102270
Total number of batches                      ...     1602
Average number of points per batch           ...       63
Average number of grid points per atom       ...     9297
Average number of shells per batch           ...    35.58 (61.34%)
Average number of basis functions per batch  ...    81.65 (62.80%)
Average number of large shells per batch     ...    27.32 (76.79%)
Average number of large basis fcns per batch ...    62.78 (76.89%)
Maximum spatial batch extension              ...  20.84, 19.70, 24.04 au
Average spatial batch extension              ...   2.26,  2.25,  2.50 au

Final grid set up in    1.2 sec
Final integration                            ... done (   0.7 sec)
Change in XC energy                          ...    -0.000100813
Integrated number of electrons               ...    59.999994923
Previous integrated no of electrons          ...    59.999678210

----------------
TOTAL SCF ENERGY
----------------

Total Energy       :         -410.45571922 Eh          -11169.06794 eV

Components:
Nuclear Repulsion  :          361.34032544 Eh            9832.57013 eV
Electronic Energy  :         -771.79604465 Eh          -21001.63808 eV
One Electron Energy:        -1269.94409035 Eh          -34556.93554 eV
Two Electron Energy:          498.14804569 Eh           13555.29746 eV

Virial components:
Potential Energy   :         -818.39488784 Eh          -22269.65707 eV
Kinetic Energy     :          407.93916863 Eh           11100.58912 eV
Virial Ratio       :            2.00616894


DFT components:
N(Alpha)           :       29.999997461554 electrons
N(Beta)            :       29.999997461554 electrons
N(Total)           :       59.999994923107 electrons
E(X)               :      -42.159688306491 Eh       
E(C)               :       -2.446300549561 Eh       
E(XC)              :      -44.605988856053 Eh       
DFET-embed. en.    :        0.000000000000 Eh       

---------------
SCF CONVERGENCE
---------------

  Last Energy change         ...   -1.9260e-09  Tolerance :   1.0000e-08
  Last MAX-Density change    ...    3.6800e-06  Tolerance :   1.0000e-07
  Last RMS-Density change    ...    9.9591e-08  Tolerance :   5.0000e-09
  Last Orbital Gradient      ...    6.7555e-07  Tolerance :   1.0000e-05
  Last Orbital Rotation      ...    2.4343e-06  Tolerance :   1.0000e-05

             **** THE GBW FILE WAS UPDATED (/Users/lailaal-madhagi/Desktop/Testing_XAS_Analysis_code/Dicyanoimidazole//Results_dir_Dicyanoimidazole_geom_element_C_2019-11-10_14-17-23//GTE1_Dicyanoimidazole_geom_2019-11-10_14-17-43//opt.gbw) ****
             **** DENSITY FILE WAS UPDATED (/Users/lailaal-madhagi/Desktop/Testing_XAS_Analysis_code/Dicyanoimidazole//Results_dir_Dicyanoimidazole_geom_element_C_2019-11-10_14-17-23//GTE1_Dicyanoimidazole_geom_2019-11-10_14-17-43//opt.scfp.tmp) ****
             **** ENERGY FILE WAS UPDATED (/Users/lailaal-madhagi/Desktop/Testing_XAS_Analysis_code/Dicyanoimidazole//Results_dir_Dicyanoimidazole_geom_element_C_2019-11-10_14-17-23//GTE1_Dicyanoimidazole_geom_2019-11-10_14-17-43//opt.en.tmp) ****
----------------
ORBITAL ENERGIES
----------------

  NO   OCC          E(Eh)            E(eV) 
   0   2.0000     -14.454345      -393.3227 
   1   2.0000     -14.365201      -390.8970 
   2   2.0000     -14.361417      -390.7940 
   3   2.0000     -14.349025      -390.4568 
   4   2.0000     -10.291828      -280.0549 
   5   2.0000     -10.289797      -279.9996 
   6   2.0000     -10.276158      -279.6285 
   7   2.0000     -10.252416      -278.9824 
   8   2.0000     -10.238159      -278.5945 
   9   2.0000      -1.086289       -29.5594 
  10   2.0000      -0.940717       -25.5982 
  11   2.0000      -0.928428       -25.2638 
  12   2.0000      -0.911524       -24.8038 
  13   2.0000      -0.820326       -22.3222 
  14   2.0000      -0.703616       -19.1464 
  15   2.0000      -0.673621       -18.3302 
  16   2.0000      -0.658041       -17.9062 
  17   2.0000      -0.549419       -14.9505 
  18   2.0000      -0.530737       -14.4421 
  19   2.0000      -0.502328       -13.6690 
  20   2.0000      -0.485083       -13.1998 
  21   2.0000      -0.383392       -10.4326 
  22   2.0000      -0.383219       -10.4279 
  23   2.0000      -0.380299       -10.3485 
  24   2.0000      -0.370791       -10.0897 
  25   2.0000      -0.367372        -9.9967 
  26   2.0000      -0.348002        -9.4696 
  27   2.0000      -0.324880        -8.8404 
  28   2.0000      -0.317298        -8.6341 
  29   2.0000      -0.271256        -7.3812 
  30   0.0000      -0.066961        -1.8221 
  31   0.0000      -0.016464        -0.4480 
  32   0.0000      -0.006567        -0.1787 
  33   0.0000       0.019145         0.5210 
  34   0.0000       0.026222         0.7135 
  35   0.0000       0.067540         1.8378 
  36   0.0000       0.110046         2.9945 
  37   0.0000       0.155581         4.2336 
  38   0.0000       0.155990         4.2447 
  39   0.0000       0.173283         4.7153 
  40   0.0000       0.225330         6.1315 
  41   0.0000       0.232408         6.3241 
  42   0.0000       0.288242         7.8435 
  43   0.0000       0.335253         9.1227 
  44   0.0000       0.367004         9.9867 
  45   0.0000       0.393908        10.7188 
  46   0.0000       0.473192        12.8762 
  47   0.0000       0.476111        12.9556 
  48   0.0000       0.489725        13.3261 
  49   0.0000       0.517181        14.0732 
  50   0.0000       0.521513        14.1911 
  51   0.0000       0.542168        14.7531 
  52   0.0000       0.554429        15.0868 
  53   0.0000       0.573258        15.5991 
  54   0.0000       0.601380        16.3644 
  55   0.0000       0.621661        16.9163 
  56   0.0000       0.638744        17.3811 
  57   0.0000       0.644564        17.5395 
  58   0.0000       0.656982        17.8774 
  59   0.0000       0.665044        18.0968 
  60   0.0000       0.676929        18.4202 
  61   0.0000       0.703311        19.1381 
  62   0.0000       0.750202        20.4140 
  63   0.0000       0.761416        20.7192 
  64   0.0000       0.795073        21.6350 
  65   0.0000       0.807009        21.9598 
  66   0.0000       0.809286        22.0218 
  67   0.0000       0.814101        22.1528 
  68   0.0000       0.826943        22.5023 
  69   0.0000       0.852618        23.2009 
  70   0.0000       0.871928        23.7264 
  71   0.0000       0.882146        24.0044 
  72   0.0000       0.937207        25.5027 
  73   0.0000       0.977443        26.5976 
  74   0.0000       0.992516        27.0077 
  75   0.0000       1.124823        30.6080 
  76   0.0000       1.160184        31.5702 
  77   0.0000       1.191750        32.4292 
  78   0.0000       1.231656        33.5151 
  79   0.0000       1.253162        34.1003 
  80   0.0000       1.285095        34.9692 
  81   0.0000       1.306627        35.5551 
  82   0.0000       1.340381        36.4736 
  83   0.0000       1.399493        38.0821 
  84   0.0000       1.422608        38.7111 
  85   0.0000       1.443505        39.2798 
  86   0.0000       1.487242        40.4699 
  87   0.0000       1.496562        40.7235 
  88   0.0000       1.510535        41.1037 
  89   0.0000       1.517692        41.2985 
  90   0.0000       1.531586        41.6766 
  91   0.0000       1.573368        42.8135 
  92   0.0000       1.649729        44.8914 
  93   0.0000       1.698133        46.2086 
  94   0.0000       1.734054        47.1860 
  95   0.0000       1.740604        47.3642 
  96   0.0000       1.756683        47.8018 
  97   0.0000       1.814701        49.3805 
  98   0.0000       1.821255        49.5589 
  99   0.0000       1.880847        51.1804 
 100   0.0000       1.926616        52.4259 
 101   0.0000       1.949385        53.0455 
 102   0.0000       1.974489        53.7286 
 103   0.0000       1.992296        54.2131 
 104   0.0000       2.000572        54.4383 
 105   0.0000       2.017110        54.8884 
 106   0.0000       2.030993        55.2661 
 107   0.0000       2.067545        56.2608 
 108   0.0000       2.166757        58.9604 
 109   0.0000       2.182090        59.3777 
 110   0.0000       2.248934        61.1966 
 111   0.0000       2.251096        61.2554 
 112   0.0000       2.298663        62.5498 
 113   0.0000       2.327677        63.3393 
 114   0.0000       2.479439        67.4690 
 115   0.0000       2.523723        68.6740 
 116   0.0000       2.552778        69.4646 
 117   0.0000       2.555132        69.5287 
 118   0.0000       2.592834        70.5546 
 119   0.0000       2.729336        74.2690 
 120   0.0000       2.733719        74.3883 
 121   0.0000       2.769677        75.3668 
 122   0.0000       2.813037        76.5466 
 123   0.0000       2.850825        77.5749 
 124   0.0000       2.880295        78.3768 
 125   0.0000       2.901178        78.9451 
 126   0.0000       3.036535        82.6283 
 127   0.0000       3.238229        88.1167 
 128   0.0000       3.280338        89.2625 
 129   0.0000       3.557025        96.7916 
------------------
MOLECULAR ORBITALS
------------------
                      0         1         2         3         4         5   
                 -14.45434 -14.36520 -14.36142 -14.34903 -10.29183 -10.28980
                   2.00000   2.00000   2.00000   2.00000   2.00000   2.00000
                  --------  --------  --------  --------  --------  --------
  0C   1s        -0.000009  0.000158  0.000030 -0.000199 -0.016077  0.000211
  0C   2s        -0.000189 -0.000019  0.000232 -0.000598  0.001336 -0.000045
  0C   1pz       -0.000003  0.000007  0.000006  0.000026 -0.000049  0.000009
  0C   1px        0.000196 -0.000289  0.000093  0.000323 -0.001375  0.000268
  0C   1py       -0.000356  0.000585  0.000046  0.000333  0.000433 -0.000104
  0C   3s        -0.004441  0.011217  0.001878  0.024918 -0.006256 -0.003226
  0C   2pz        0.000714 -0.000919 -0.000633  0.001457 -0.000538  0.000015
  0C   2px        0.005446 -0.003347 -0.006020  0.014729 -0.001338  0.001869
  0C   2py        0.013094 -0.021782 -0.010001  0.022125 -0.013546 -0.002055
  0C   1dz2      -0.000072  0.000282  0.000020 -0.000504 -0.000626 -0.000200
  0C   1dxz      -0.000001  0.000029  0.000001  0.000054  0.000109  0.000004
  0C   1dyz       0.000012 -0.000007  0.000001  0.000076  0.000014  0.000018
  0C   1dx2y2    -0.000165  0.000608  0.000006 -0.000280  0.001038 -0.000233
  0C   1dxy       0.000034  0.000668  0.000051  0.000771  0.000243 -0.000050
  1C   1s         0.000144 -0.000017 -0.000202  0.000034 -0.994888 -0.004727
  1C   2s        -0.000005 -0.000287 -0.000667  0.000253 -0.037268 -0.000201
  1C   1pz        0.000027 -0.000021 -0.000002 -0.000004  0.000060 -0.000024
  1C   1px        0.000165 -0.000189 -0.000305 -0.000106  0.000503 -0.000380
  1C   1py        0.000539 -0.000342  0.000332  0.000029  0.001017 -0.000161
  1C   3s         0.011274 -0.003650  0.024272  0.000743  0.020290  0.003729
  1C   2pz       -0.000490  0.000183 -0.000041 -0.000032  0.000473  0.000010
  1C   2px        0.006066 -0.005842 -0.017874  0.005882 -0.004294  0.007314
  1C   2py       -0.021763  0.012903  0.022387 -0.008742  0.018967 -0.009399
  1C   1dz2       0.000218 -0.000071 -0.000490  0.000024  0.001342 -0.000298
  1C   1dxz      -0.000004 -0.000002  0.000004 -0.000003 -0.000075  0.000016
  1C   1dyz      -0.000057  0.000007 -0.000003 -0.000004 -0.000097  0.000027
  1C   1dx2y2     0.000633 -0.000129 -0.000146  0.000001  0.000604 -0.000203
  1C   1dxy      -0.000451 -0.000037 -0.000814 -0.000050  0.000160  0.000038
  2N   1s         0.995369  0.000132  0.000084 -0.000028 -0.000216  0.000169
  2N   2s         0.034417 -0.000427 -0.000430  0.000058 -0.001432  0.000930
  2N   1pz        0.000065 -0.000002  0.000000 -0.000004  0.000033 -0.000001
  2N   1px        0.001009 -0.000184 -0.000022 -0.000060  0.000030 -0.000550
  2N   1py        0.000474  0.000205  0.000040 -0.000024  0.000885  0.000713
  2N   3s        -0.038693  0.002964  0.004672 -0.003543  0.014377 -0.008623
  2N   2pz       -0.000678  0.000051  0.000161 -0.000044  0.000608 -0.000473
  2N   2px       -0.009285 -0.000599  0.002715 -0.000527  0.008015 -0.008078
  2N   2py       -0.006733  0.002218  0.000942 -0.000514  0.006436 -0.002577
  2N   1dz2       0.000084 -0.000139 -0.000006 -0.000118 -0.001338  0.001286
  2N   1dxz      -0.000010  0.000013  0.000006  0.000011  0.000088 -0.000094
  2N   1dyz      -0.000017  0.000029  0.000004  0.000007  0.000171  0.000000
  2N   1dx2y2     0.000074 -0.000188  0.000038  0.000020 -0.001201 -0.000643
  2N   1dxy      -0.000194  0.000286  0.000106  0.000004  0.000969  0.001191
  3C   1s         0.000120  0.000137 -0.000062 -0.000059 -0.004587  0.994979
  3C   2s        -0.000354 -0.000374 -0.000477 -0.000417 -0.000064  0.035622
  3C   1pz       -0.000001 -0.000007  0.000006 -0.000005  0.000010  0.000030
  3C   1px       -0.000010 -0.000100  0.000163 -0.000081  0.000370 -0.000879
  3C   1py       -0.000024 -0.000056 -0.000063 -0.000037 -0.000208  0.002035
  3C   3s         0.010978  0.010993  0.000920  0.001430 -0.007558 -0.010896
  3C   2pz        0.000124  0.000319  0.000066  0.000065 -0.000317  0.000100
  3C   2px       -0.002228  0.001911  0.000115 -0.000251 -0.001035 -0.000309
  3C   2py        0.006518  0.006499  0.001710  0.002169 -0.007605  0.003245
  3C   1dz2       0.000277  0.000350 -0.000083 -0.000097  0.000374 -0.001252
  3C   1dxz      -0.000020 -0.000084  0.000000  0.000004 -0.000022  0.000110
  3C   1dyz       0.000039 -0.000051  0.000006  0.000013 -0.000025  0.000059
  3C   1dx2y2    -0.000527 -0.000453 -0.000103 -0.000126  0.000148  0.000274
  3C   1dxy       0.000798 -0.000967 -0.000052  0.000054  0.000058 -0.000168
  4N   1s        -0.000168  0.995435 -0.000855  0.000594 -0.000010  0.000119
  4N   2s        -0.000342  0.034213  0.000056 -0.000359 -0.000074  0.000645
  4N   1pz        0.000014 -0.000095  0.000002 -0.000002  0.000002  0.000060
  4N   1px        0.000128 -0.002651  0.000060 -0.000076  0.000055  0.000764
  4N   1py        0.000229  0.000833 -0.000035  0.000055 -0.000028  0.000682
  4N   3s         0.002524 -0.038466 -0.003730  0.003790 -0.000110 -0.004858
  4N   2pz        0.000097  0.000274  0.000013 -0.000060 -0.000166  0.000125
  4N   2px        0.000483  0.010456  0.000740 -0.001604 -0.001516  0.003303
  4N   2py        0.002105 -0.006205 -0.000619  0.000395 -0.002691 -0.000850
  4N   1dz2      -0.000080  0.000188 -0.000117 -0.000011 -0.000019  0.001170
  4N   1dxz      -0.000012 -0.000012  0.000011  0.000001  0.000012 -0.000159
  4N   1dyz      -0.000002  0.000012  0.000007 -0.000008  0.000011 -0.000103
  4N   1dx2y2    -0.000182 -0.000191  0.000028  0.000087  0.000032 -0.000533
  4N   1dxy      -0.000271  0.000364  0.000009 -0.000112  0.000241 -0.001072
  5H   1s        -0.000768 -0.000243  0.000210  0.000071  0.000679 -0.000881
  5H   2s         0.000767  0.000255  0.000566  0.000006  0.002365 -0.002045
  6C   1s         0.000014 -0.000071 -0.000050  0.000566  0.000071 -0.000021
  6C   2s        -0.000109 -0.000784 -0.000348  0.001175  0.000145 -0.000108
  6C   1pz        0.000014 -0.000002 -0.000008 -0.000141 -0.000023 -0.000000
  6C   1px        0.000216 -0.000119 -0.000121 -0.001494 -0.000366  0.000045
  6C   1py        0.000124  0.000106 -0.000052 -0.002051 -0.000154 -0.000063
  6C   3s        -0.007237  0.008399  0.005828  0.002020  0.007663  0.000527
  6C   2pz        0.000256 -0.000543 -0.000359  0.002529 -0.000335 -0.000096
  6C   2px        0.002782 -0.007151 -0.003775  0.026876 -0.003839 -0.001750
  6C   2py        0.003684 -0.006127 -0.005341  0.036838 -0.004595 -0.000453
  6C   1dz2       0.000039 -0.000088 -0.000038  0.001367  0.000059  0.000019
  6C   1dxz      -0.000011  0.000028  0.000005 -0.000157  0.000009  0.000001
  6C   1dyz      -0.000010 -0.000004  0.000007 -0.000216  0.000003 -0.000004
  6C   1dx2y2    -0.000020  0.000377 -0.000018  0.000731  0.000120  0.000072
  6C   1dxy      -0.000193  0.000088  0.000092 -0.002316  0.000233 -0.000015
  7C   1s        -0.000079  0.000017  0.000575 -0.000049 -0.002648 -0.000120
  7C   2s        -0.000821 -0.000078  0.001242 -0.000350  0.002257 -0.000327
  7C   1pz        0.000008 -0.000007  0.000009  0.000004 -0.000004 -0.000004
  7C   1px        0.000101 -0.000226  0.001652  0.000121  0.000487  0.000009
  7C   1py        0.000089  0.000094 -0.001925 -0.000038 -0.000747 -0.000135
  7C   3s         0.008854 -0.007222  0.000924  0.005323 -0.016011  0.006226
  7C   2pz        0.000156 -0.000028 -0.000155  0.000017 -0.000140  0.000052
  7C   2px        0.007979 -0.003282 -0.030316  0.004042 -0.008496  0.004081
  7C   2py       -0.006090  0.003489  0.035421 -0.004776  0.007198 -0.003862
  7C   1dz2      -0.000100  0.000039  0.001394 -0.000034 -0.000937 -0.000037
  7C   1dxz       0.000023  0.000000 -0.000009 -0.000000  0.000006  0.000002
  7C   1dyz      -0.000009  0.000009  0.000014 -0.000002  0.000011 -0.000000
  7C   1dx2y2     0.000352 -0.000068  0.000369  0.000003 -0.000464  0.000008
  7C   1dxy      -0.000048  0.000190  0.002429 -0.000086 -0.001346 -0.000049
  8N   1s        -0.000160  0.000862  0.995541  0.000665 -0.000022 -0.000013
  8N   2s        -0.000454  0.000114  0.035348 -0.000299 -0.000638 -0.000181
  8N   1pz        0.000006  0.000000  0.000014 -0.000000 -0.000007  0.000002
  8N   1px        0.000115  0.000032  0.002516  0.000007 -0.000470  0.000041
  8N   1py        0.000019 -0.000040 -0.002902 -0.000009  0.000409  0.000018
  8N   3s         0.005311 -0.001359 -0.053040  0.003454 -0.002729  0.002475
  8N   2pz       -0.000038  0.000000 -0.000062  0.000005  0.000038 -0.000015
  8N   2px        0.000218 -0.000006 -0.010256  0.000526  0.000596  0.000060
  8N   2py       -0.001347  0.000031  0.011733 -0.000563  0.000277 -0.000504
  8N   1dz2       0.000017 -0.000043 -0.000517  0.000011  0.000123  0.000017
  8N   1dxz      -0.000003 -0.000001  0.000003  0.000000  0.000000 -0.000002
  8N   1dyz       0.000001  0.000000 -0.000005 -0.000000 -0.000002  0.000002
  8N   1dx2y2    -0.000048 -0.000032 -0.000142  0.000011  0.000084 -0.000045
  8N   1dxy       0.000009 -0.000077 -0.000894  0.000019  0.000182  0.000035
  9N   1s         0.000032 -0.000660 -0.000716  0.995540 -0.000007 -0.000008
  9N   2s         0.000078 -0.000428 -0.000345  0.035316 -0.000139 -0.000090
  9N   1pz       -0.000003 -0.000005 -0.000000 -0.000212  0.000001 -0.000003
  9N   1px       -0.000035 -0.000122  0.000001 -0.002273  0.000013 -0.000066
  9N   1py       -0.000039  0.000011 -0.000005 -0.003070  0.000017  0.000014
  9N   3s        -0.001214  0.004939  0.003535 -0.052651  0.002180  0.001054
  9N   2pz        0.000001 -0.000048 -0.000045  0.000863 -0.000014 -0.000009
  9N   2px        0.000022 -0.000043 -0.000497  0.009236 -0.000138  0.000212
  9N   2py       -0.000030 -0.001304 -0.000590  0.012455 -0.000187 -0.000526
  9N   1dz2      -0.000042  0.000014  0.000014 -0.000507  0.000029 -0.000010
  9N   1dxz       0.000004 -0.000003 -0.000001  0.000058 -0.000001 -0.000003
  9N   1dyz       0.000007  0.000000 -0.000002  0.000079 -0.000007  0.000003
  9N   1dx2y2    -0.000049 -0.000044  0.000018 -0.000273  0.000069 -0.000077
  9N   1dxy       0.000069 -0.000009 -0.000021  0.000847 -0.000058 -0.000005
 10H   1s        -0.000077 -0.000101  0.000078  0.000092 -0.000295 -0.001425
 10H   2s         0.001614  0.001528  0.000753  0.000931 -0.002685  0.005021
                      6         7         8         9        10        11   
                 -10.27616 -10.25242 -10.23816  -1.08629  -0.94072  -0.92843
                   2.00000   2.00000   2.00000   2.00000   2.00000   2.00000
                  --------  --------  --------  --------  --------  --------
  0C   1s        -0.994910  0.000267 -0.002846 -0.063869 -0.090138 -0.033646
  0C   2s        -0.037048 -0.000339 -0.002838  0.121409  0.176719  0.068135
  0C   1pz        0.000009  0.000002 -0.000115 -0.003613 -0.000731  0.000169
  0C   1px       -0.000036  0.000218 -0.001256 -0.029791  0.048802  0.003950
  0C   1py        0.000272 -0.000217 -0.001625 -0.062942 -0.085728 -0.000356
  0C   3s         0.023679  0.002206  0.022089  0.035174  0.050038  0.019840
  0C   2pz        0.000378 -0.000635  0.001356 -0.002249  0.000971 -0.000326
  0C   2px       -0.002508 -0.008682  0.015371 -0.030311 -0.015416 -0.005736
  0C   2py        0.014276 -0.006538  0.018393 -0.023579  0.048206 -0.001769
  0C   1dz2       0.001251 -0.000101  0.000925 -0.008454 -0.009282 -0.003136
  0C   1dxz      -0.000086  0.000035 -0.000109  0.000638  0.000127  0.000159
  0C   1dyz      -0.000097  0.000025 -0.000145  0.000725  0.000800  0.000187
  0C   1dx2y2     0.000430  0.000172  0.000447 -0.002852 -0.010972 -0.001261
  0C   1dxy      -0.000137  0.000524 -0.001568  0.002305 -0.003151 -0.001000
  1C   1s         0.016220 -0.002687  0.000106 -0.088047  0.031783 -0.021316
  1C   2s         0.002680 -0.002925 -0.000382  0.168950 -0.063324  0.045491
  1C   1pz        0.000081  0.000013 -0.000019 -0.003019  0.006099  0.002029
  1C   1px        0.001355  0.001403 -0.000213  0.011457  0.089968  0.001072
  1C   1py        0.000494 -0.001487 -0.000255 -0.100168  0.052855  0.055533
  1C   3s        -0.011501  0.021197  0.000904  0.020308 -0.008913 -0.042088
  1C   2pz       -0.000449 -0.000167  0.000229  0.001327 -0.001801 -0.000208
  1C   2px       -0.001198 -0.018648  0.007852 -0.006650  0.003068  0.019379
  1C   2py       -0.011155  0.019825 -0.003977  0.046128 -0.054736 -0.031221
  1C   1dz2      -0.000669  0.000970 -0.000092 -0.011052  0.003265 -0.001940
  1C   1dxz       0.000102 -0.000009  0.000003  0.000568 -0.000029  0.000144
  1C   1dyz      -0.000000  0.000008 -0.000026  0.000963 -0.000805 -0.000239
  1C   1dx2y2     0.001062  0.000251  0.000251 -0.007401  0.009393  0.003532
  1C   1dxy      -0.000074  0.001637 -0.000470  0.000394 -0.005726 -0.004990
  2N   1s        -0.000007 -0.000047 -0.000045 -0.150488  0.108753  0.041949
  2N   2s        -0.000073 -0.000663 -0.000430  0.306863 -0.231840 -0.089590
  2N   1pz       -0.000008 -0.000004 -0.000005  0.004611  0.001082  0.000424
  2N   1px       -0.000151  0.000109 -0.000045  0.074619  0.036779 -0.006197
  2N   1py       -0.000025 -0.000255 -0.000065  0.030352 -0.018114  0.020254
  2N   3s         0.000055  0.003798  0.000237  0.339424 -0.268234 -0.095939
  2N   2pz        0.000034  0.000171  0.000037  0.003167  0.000210  0.000314
  2N   2px        0.002361  0.002488 -0.000502  0.047024  0.020071  0.003646
  2N   2py       -0.002165  0.001534  0.001700  0.026648 -0.020886  0.004019
  2N   1dz2       0.000025 -0.000207 -0.000202 -0.014426  0.006833  0.002693
  2N   1dxz      -0.000009  0.000043  0.000010  0.001570 -0.000654 -0.000347
  2N   1dyz      -0.000015  0.000027  0.000020  0.000932 -0.000647 -0.000133
  2N   1dx2y2     0.000040  0.000213 -0.000172  0.004764  0.001035 -0.002029
  2N   1dxy      -0.000252  0.000456  0.000036  0.004417 -0.003943 -0.000818
  3C   1s         0.000404  0.000000 -0.000050 -0.093800 -0.026880  0.012991
  3C   2s         0.000296 -0.000458 -0.000414  0.182213  0.052936 -0.025673
  3C   1pz       -0.000007  0.000002  0.000002  0.001651  0.007709  0.001884
  3C   1px       -0.000065  0.000059  0.000035 -0.038158  0.133635  0.042209
  3C   1py       -0.000107 -0.000037  0.000008  0.098133  0.040001 -0.003059
  3C   3s        -0.005865  0.001916  0.002531  0.020381  0.019335 -0.019614
  3C   2pz       -0.000126  0.000063  0.000051 -0.001261  0.000312 -0.000031
  3C   2px        0.001618  0.000371 -0.000251  0.000761  0.008121  0.002341
  3C   2py       -0.005766  0.001307  0.001787 -0.037003 -0.001793 -0.004012
  3C   1dz2       0.000299 -0.000116 -0.000138 -0.012984 -0.003225  0.001605
  3C   1dxz      -0.000018  0.000011  0.000014  0.000844  0.000653 -0.000032
  3C   1dyz      -0.000019  0.000005  0.000012  0.000608  0.001259  0.000216
  3C   1dx2y2     0.000097  0.000035 -0.000007 -0.001093 -0.005520 -0.001823
  3C   1dxy       0.000051 -0.000011  0.000072 -0.004774  0.018396  0.005279
  4N   1s        -0.000173 -0.000033 -0.000023 -0.078264 -0.132770 -0.022981
  4N   2s        -0.001217 -0.000330 -0.000542  0.154803  0.275229  0.049233
  4N   1pz        0.000009 -0.000002 -0.000020 -0.003273 -0.002524  0.000237
  4N   1px       -0.000442  0.000018 -0.000242 -0.083770 -0.092827 -0.010238
  4N   1py        0.000855 -0.000068 -0.000240  0.019117  0.052584  0.020448
  4N   3s         0.011250 -0.000676  0.002130  0.155217  0.289815  0.044012
  4N   2pz       -0.000027  0.000086 -0.000018 -0.001665 -0.000701 -0.000024
  4N   2px       -0.003831  0.000806 -0.000963 -0.041918 -0.042285 -0.004155
  4N   2py        0.004333  0.001387  0.000754  0.008906  0.036774  0.004912
  4N   1dz2      -0.001222 -0.000167 -0.000136 -0.008083 -0.007683 -0.000997
  4N   1dxz       0.000021  0.000004  0.000010  0.000843  0.000399 -0.000048
  4N   1dyz       0.000052  0.000014 -0.000017  0.000307  0.000375  0.000046
  4N   1dx2y2    -0.000838 -0.000174  0.000242  0.004369 -0.002181 -0.001613
  4N   1dxy      -0.001098 -0.000039 -0.000349 -0.000705 -0.003597 -0.001510
  5H   1s         0.000285 -0.000178 -0.000066  0.058587 -0.077034 -0.026584
  5H   2s         0.000250  0.001161  0.000263  0.002046 -0.002951  0.000130
  6C   1s        -0.002850 -0.001422  0.995110 -0.009361 -0.058868 -0.044783
  6C   2s         0.002008 -0.000872  0.038060  0.018131  0.109475  0.082710
  6C   1pz       -0.000049  0.000012  0.000047 -0.000705  0.000969  0.001663
  6C   1px       -0.000456  0.000277  0.000462 -0.007285  0.014661  0.017259
  6C   1py       -0.000814 -0.000028  0.000726 -0.010462  0.008317  0.024759
  6C   3s        -0.012211  0.006427 -0.017995  0.021543  0.023267  0.033126
  6C   2pz        0.000463 -0.000324  0.002032 -0.001252 -0.001356 -0.001517
  6C   2px        0.006261 -0.003350  0.021359 -0.009243 -0.008308 -0.016217
  6C   2py        0.004933 -0.004882  0.029922 -0.023912 -0.027779 -0.021932
  6C   1dz2      -0.000995 -0.000054 -0.001711 -0.001177 -0.005231 -0.003775
  6C   1dxz       0.000093 -0.000001  0.000199  0.000113  0.000475  0.000430
  6C   1dyz       0.000147  0.000008  0.000271  0.000207  0.000830  0.000562
  6C   1dx2y2    -0.000718 -0.000128 -0.000889 -0.001165 -0.004576 -0.001729
  6C   1dxy       0.001326  0.000003  0.002929  0.002046  0.007593  0.005865
  7C   1s         0.000319  0.995125  0.001309 -0.015261  0.052563 -0.145740
  7C   2s         0.000105  0.038152 -0.000750  0.031162 -0.097156  0.263359
  7C   1pz        0.000013 -0.000002 -0.000015 -0.000131  0.000703 -0.000535
  7C   1px        0.000341 -0.000552 -0.000295  0.009618  0.032125 -0.115891
  7C   1py       -0.000081  0.000659 -0.000038 -0.016334 -0.022418  0.137093
  7C   3s         0.006194 -0.019804  0.005249 -0.011840 -0.017978  0.115100
  7C   2pz        0.000058 -0.000105  0.000005 -0.000589  0.000556  0.000415
  7C   2px        0.003950 -0.024634  0.003208 -0.010366  0.001676  0.071538
  7C   2py       -0.003479  0.029359 -0.004014 -0.002900  0.013312 -0.082248
  7C   1dz2       0.000101 -0.001709 -0.000054 -0.001882  0.004548 -0.011174
  7C   1dxz      -0.000005  0.000012 -0.000002 -0.000036  0.000016  0.000170
  7C   1dyz      -0.000021 -0.000020  0.000007  0.000038 -0.000086 -0.000089
  7C   1dx2y2     0.000196 -0.000419 -0.000133 -0.001760  0.003197 -0.001927
  7C   1dxy      -0.000160 -0.002997 -0.000017 -0.003005  0.006596 -0.018116
  8N   1s        -0.000006 -0.000385 -0.000012 -0.004085  0.049290 -0.165128
  8N   2s        -0.000113  0.000777 -0.000130  0.007559 -0.099823  0.331889
  8N   1pz        0.000001 -0.000009  0.000000 -0.000027 -0.000097  0.000667
  8N   1px        0.000012 -0.001811  0.000023  0.002757 -0.035597  0.122274
  8N   1py        0.000007  0.002113 -0.000014 -0.004375  0.044012 -0.141792
  8N   3s         0.002034 -0.030546  0.002250  0.009595 -0.092892  0.355465
  8N   2pz       -0.000005 -0.000051  0.000001  0.000212 -0.000181  0.000188
  8N   2px        0.000068 -0.007122  0.000192  0.005104 -0.013146  0.043100
  8N   2py       -0.000268  0.007931 -0.000246 -0.000761  0.012243 -0.051315
  8N   1dz2       0.000018  0.000799  0.000023 -0.000224  0.002556 -0.008562
  8N   1dxz       0.000003 -0.000008 -0.000001  0.000012 -0.000019  0.000091
  8N   1dyz      -0.000000  0.000010  0.000001 -0.000007  0.000009 -0.000061
  8N   1dx2y2     0.000041  0.000164 -0.000019  0.000123  0.000830 -0.002079
  8N   1dxy       0.000052  0.001381  0.000041 -0.000347  0.004198 -0.014178
  9N   1s        -0.000028 -0.000011 -0.000387 -0.002327 -0.045757 -0.041599
  9N   2s        -0.000745 -0.000136  0.000735  0.003363  0.090959  0.083373
  9N   1pz        0.000037 -0.000002  0.000155 -0.000153 -0.002929 -0.002649
  9N   1px        0.000453 -0.000025  0.001643 -0.001425 -0.030515 -0.028379
  9N   1py        0.000449 -0.000020  0.002254 -0.002512 -0.043394 -0.038210
  9N   3s        -0.001367  0.002494 -0.029978  0.018230  0.101279  0.088865
  9N   2pz       -0.000033 -0.000019  0.000592 -0.000309 -0.001268 -0.000974
  9N   2px       -0.000836 -0.000183  0.006412 -0.004922 -0.015179 -0.010575
  9N   2py        0.000161 -0.000275  0.008425 -0.002204 -0.016188 -0.013864
  9N   1dz2       0.000143  0.000026  0.000804 -0.000053 -0.002345 -0.002085
  9N   1dxz      -0.000012 -0.000004 -0.000094  0.000018  0.000264  0.000243
  9N   1dyz      -0.000023 -0.000003 -0.000125  0.000002  0.000365  0.000321
  9N   1dx2y2     0.000141 -0.000009  0.000389  0.000202 -0.001275 -0.000988
  9N   1dxy      -0.000195 -0.000048 -0.001354  0.000119  0.003840  0.003438
 10H   1s        -0.000247  0.000005  0.000004  0.020136  0.005547 -0.006065
 10H   2s        -0.001999  0.000408  0.000598 -0.014780 -0.001383 -0.001892
                     12        13        14        15        16        17   
                  -0.91152  -0.82033  -0.70362  -0.67362  -0.65804  -0.54942
                   2.00000   2.00000   2.00000   2.00000   2.00000   2.00000
                  --------  --------  --------  --------  --------  --------
  0C   1s        -0.010865 -0.098674  0.102754  0.033732  0.011294  0.022235
  0C   2s         0.018245  0.197055 -0.212294 -0.067416 -0.027260 -0.047714
  0C   1pz       -0.002630 -0.001671 -0.010833  0.000708  0.006695  0.017159
  0C   1px       -0.001653 -0.078412 -0.154940  0.134495  0.052164  0.208286
  0C   1py       -0.073211  0.057427 -0.103935 -0.160078  0.121014  0.216423
  0C   3s         0.067119  0.154833 -0.189242 -0.027295  0.001146 -0.000402
  0C   2pz        0.001932 -0.000259 -0.001413 -0.001189  0.002280 -0.001718
  0C   2px        0.015755 -0.011325 -0.020826  0.006575  0.006601 -0.006308
  0C   2py        0.034458  0.008027 -0.012912 -0.043044  0.055983 -0.039008
  0C   1dz2      -0.001060 -0.006090  0.004419 -0.000272  0.001228  0.000479
  0C   1dxz      -0.000290  0.001000 -0.000351 -0.000712 -0.000318  0.000361
  0C   1dyz      -0.000036  0.000134 -0.000516 -0.000173 -0.000284  0.000816
  0C   1dx2y2    -0.004110  0.009316  0.002655 -0.008116 -0.000790 -0.003244
  0C   1dxy      -0.005254  0.001981 -0.003409 -0.010101 -0.004966  0.015641
  1C   1s         0.013612 -0.137748 -0.079289  0.021366 -0.019855  0.008237
  1C   2s        -0.028133  0.277091  0.165376 -0.039566  0.037368 -0.011851
  1C   1pz        0.001721  0.002606 -0.004516 -0.010827  0.003252 -0.017581
  1C   1px        0.021395  0.028101 -0.092586 -0.179852 -0.141684 -0.193348
  1C   1py        0.019945  0.036525 -0.006320 -0.067065  0.277879 -0.236585
  1C   3s        -0.029528  0.184670  0.118024 -0.053189  0.068609 -0.074826
  1C   2pz       -0.000068  0.000994 -0.000799 -0.002478 -0.000244 -0.003600
  1C   2px        0.008954 -0.007715 -0.003188 -0.066030 -0.041436 -0.109881
  1C   2py       -0.013723  0.038109 -0.018634  0.017377  0.047628  0.044905
  1C   1dz2       0.001082 -0.008777 -0.004722  0.000888  0.001538 -0.002008
  1C   1dxz      -0.000107  0.000964 -0.000242  0.000278  0.000117  0.000067
  1C   1dyz      -0.000386  0.000322  0.000075  0.000365 -0.000545  0.001321
  1C   1dx2y2     0.002999  0.005688 -0.006295  0.000446  0.007966 -0.013513
  1C   1dxy      -0.004498 -0.000445 -0.009342  0.009151 -0.003610  0.015262
  2N   1s         0.040732  0.028249  0.046532 -0.034984  0.015972 -0.007013
  2N   2s        -0.088952 -0.065400 -0.102243  0.074650 -0.040440  0.019530
  2N   1pz        0.000730  0.004561  0.012558 -0.010481 -0.014727  0.015171
  2N   1px        0.021855 -0.039393  0.125108 -0.320222 -0.191666  0.075735
  2N   1py       -0.008433  0.181273  0.186350  0.131886 -0.160364  0.327002
  2N   3s        -0.091552 -0.054601 -0.152927  0.123827 -0.034879  0.055646
  2N   2pz        0.000652  0.002487  0.005597 -0.004909 -0.006549  0.008129
  2N   2px        0.014970 -0.006736  0.054920 -0.147677 -0.088482  0.037865
  2N   2py       -0.001654  0.079354  0.084005  0.059649 -0.066674  0.178813
  2N   1dz2       0.002172  0.000568  0.002117 -0.003275 -0.001956  0.002901
  2N   1dxz      -0.000216 -0.000214 -0.000631  0.000690 -0.000168 -0.000903
  2N   1dyz      -0.000238  0.000664 -0.000008  0.000521 -0.000212 -0.000028
  2N   1dx2y2     0.000548 -0.009324 -0.007399  0.002520 -0.001056 -0.010488
  2N   1dxy      -0.001765  0.007742 -0.003031  0.008541 -0.007826 -0.004689
  3C   1s        -0.020983  0.105437 -0.032683  0.094743 -0.071091 -0.031621
  3C   2s         0.041254 -0.217061  0.068107 -0.199073  0.147237  0.066389
  3C   1pz        0.003726  0.000199  0.007912  0.008516 -0.001975  0.004102
  3C   1px        0.061596  0.015637  0.132786  0.157384  0.081615  0.140116
  3C   1py        0.023365 -0.015655  0.046095  0.031211 -0.165215 -0.070970
  3C   3s         0.023652 -0.130391  0.066908 -0.141318  0.148308  0.115561
  3C   2pz        0.000276  0.000377  0.001379  0.002518 -0.001845  0.001492
  3C   2px        0.004704  0.000836  0.018263  0.029533  0.004528  0.043179
  3C   2py        0.001554  0.009464  0.014573  0.031403 -0.058320 -0.015505
  3C   1dz2      -0.002450  0.008987 -0.002738  0.006301 -0.002152 -0.000826
  3C   1dxz       0.000383 -0.001017  0.000063  0.000350  0.000798 -0.000353
  3C   1dyz       0.000616 -0.000413  0.000668  0.000124  0.000455  0.000210
  3C   1dx2y2    -0.002273 -0.005167 -0.007222  0.006642  0.005167 -0.007266
  3C   1dxy       0.008184 -0.000989  0.005147  0.015708  0.010697 -0.002011
  4N   1s        -0.059378  0.039032 -0.016858 -0.088967 -0.025464  0.001958
  4N   2s         0.124360 -0.085246  0.038406  0.201693  0.054966  0.000500
  4N   1pz       -0.002079  0.005456 -0.008798  0.003265 -0.003408 -0.003796
  4N   1px       -0.048862  0.048062 -0.077981  0.014147  0.016068  0.040822
  4N   1py        0.006237  0.090712 -0.146627  0.073812 -0.118353 -0.160322
  4N   3s         0.121801 -0.086965  0.035757  0.195684  0.094291 -0.067922
  4N   2pz       -0.000464  0.001648 -0.002623  0.001578 -0.000894  0.000012
  4N   2px       -0.017579  0.017333 -0.023093  0.016321  0.004546  0.048083
  4N   2py        0.010338  0.023600 -0.043977  0.023309 -0.031543 -0.062801
  4N   1dz2      -0.003173  0.000519  0.000104  0.001417  0.001907  0.001970
  4N   1dxz       0.000273 -0.000676  0.000727 -0.000522  0.000070  0.000222
  4N   1dyz       0.000150 -0.000327 -0.000053 -0.000007  0.000633  0.000868
  4N   1dx2y2     0.000638 -0.005595  0.010554 -0.006349 -0.004573 -0.005030
  4N   1dxy      -0.000452 -0.010430  0.006816 -0.003023  0.012499  0.017363
  5H   1s        -0.032226 -0.032679 -0.126790  0.154708  0.102492 -0.110519
  5H   2s         0.000031 -0.002189 -0.038066  0.051999  0.039821 -0.063110
  6C   1s         0.137859 -0.012428  0.064572  0.023672 -0.021203 -0.077594
  6C   2s        -0.248582  0.030438 -0.136905 -0.048020  0.044002  0.164236
  6C   1pz       -0.010753 -0.006737  0.012287  0.004686 -0.003775 -0.010454
  6C   1px       -0.112445 -0.077837  0.123650  0.068989 -0.046101 -0.100033
  6C   1py       -0.158855 -0.089600  0.188067  0.042408 -0.047154 -0.166430
  6C   3s        -0.107628  0.016403 -0.111299 -0.028155  0.032941  0.223436
  6C   2pz        0.005792 -0.000029  0.001640  0.001369  0.000547 -0.004595
  6C   2px        0.064094 -0.002462  0.016306  0.023777  0.005613 -0.043011
  6C   2py        0.080892  0.002317  0.025517  0.007625  0.008309 -0.074982
  6C   1dz2       0.009949 -0.001754  0.004510  0.001405 -0.001366 -0.002213
  6C   1dxz      -0.001173  0.000296 -0.000457 -0.000392  0.000156  0.000191
  6C   1dyz      -0.001519  0.000218 -0.000715 -0.000138  0.000148  0.000435
  6C   1dx2y2     0.004397  0.000963  0.003287 -0.003298 -0.000043 -0.002927
  6C   1dxy      -0.016409  0.003130 -0.007057 -0.003577  0.001389  0.004263
  7C   1s        -0.022577 -0.023213 -0.038950 -0.003194 -0.073132  0.025396
  7C   2s         0.039132  0.053306  0.080501  0.010060  0.153463 -0.050901
  7C   1pz       -0.000090  0.000799 -0.000261 -0.002179  0.001084 -0.003801
  7C   1px       -0.032392  0.111404  0.075166 -0.020895  0.147708 -0.085779
  7C   1py        0.039978 -0.123800 -0.106197 -0.033627 -0.163403  0.006780
  7C   3s         0.018559  0.018717  0.074982 -0.004825  0.142088 -0.106888
  7C   2pz        0.000134 -0.000022 -0.000050 -0.001091  0.000189 -0.001823
  7C   2px        0.017601 -0.002250  0.026163 -0.034541  0.017477 -0.067560
  7C   2py       -0.019382  0.002426 -0.035762  0.014920 -0.017366  0.037710
  7C   1dz2      -0.001305 -0.002765 -0.002501 -0.000313 -0.004259  0.000859
  7C   1dxz       0.000015  0.000070 -0.000057 -0.000137  0.000118 -0.000208
  7C   1dyz      -0.000034 -0.000023  0.000032  0.000180 -0.000018  0.000289
  7C   1dx2y2    -0.000051 -0.000083 -0.002277 -0.003844 -0.000172 -0.005360
  7C   1dxy      -0.002493 -0.004205 -0.004323  0.000502 -0.006143  0.003198
  8N   1s        -0.034494  0.047789  0.025485  0.003154  0.044137 -0.012318
  8N   2s         0.069283 -0.100068 -0.055854 -0.004600 -0.093460  0.028979
  8N   1pz        0.000148 -0.000107 -0.000243 -0.000700  0.000032 -0.001517
  8N   1px        0.025243 -0.029250 -0.012946 -0.010190 -0.011753 -0.021603
  8N   1py       -0.029006  0.035410  0.010121 -0.006209  0.016370 -0.013840
  8N   3s         0.078410 -0.091128 -0.033922 -0.032552 -0.110058  0.003275
  8N   2pz        0.000026  0.000017 -0.000019 -0.000135  0.000028 -0.000468
  8N   2px        0.009124 -0.004191  0.002397 -0.006330 -0.002011 -0.011868
  8N   2py       -0.011243  0.005950 -0.003728  0.004463  0.003328  0.002625
  8N   1dz2      -0.001803  0.002067  0.000771  0.000128  0.001053 -0.000098
  8N   1dxz       0.000018 -0.000011 -0.000035 -0.000059 -0.000000 -0.000124
  8N   1dyz      -0.000014  0.000005  0.000023  0.000069 -0.000005  0.000137
  8N   1dx2y2    -0.000443  0.000751 -0.000361 -0.001452  0.000533 -0.003107
  8N   1dxy      -0.003014  0.003398  0.001246  0.000535  0.001682  0.000409
  9N   1s         0.165817  0.036508 -0.046585 -0.014886  0.013900  0.039744
  9N   2s        -0.334068 -0.076354  0.099180  0.033296 -0.028346 -0.086925
  9N   1pz        0.010387  0.001966 -0.001820 -0.000318  0.000346 -0.000231
  9N   1px        0.111268  0.019707 -0.021319  0.002160  0.001763  0.002744
  9N   1py        0.149861  0.030166 -0.023819 -0.012031  0.007515 -0.010159
  9N   3s        -0.353802 -0.068658  0.094776  0.018764 -0.045536 -0.088631
  9N   2pz        0.003607  0.000342 -0.000154  0.000252  0.000233 -0.000545
  9N   2px        0.038027  0.003754 -0.002570  0.002788  0.001220 -0.004480
  9N   2py        0.052860  0.004881 -0.001062  0.003477  0.004980 -0.009403
  9N   1dz2       0.008311  0.001599 -0.001512 -0.000301  0.000334  0.000090
  9N   1dxz      -0.000959 -0.000161  0.000199 -0.000035 -0.000016 -0.000060
  9N   1dyz      -0.001288 -0.000258  0.000224  0.000069 -0.000063  0.000008
  9N   1dx2y2     0.004146  0.001227 -0.000308 -0.001339  0.000599 -0.000862
  9N   1dxy      -0.013747 -0.002542  0.002612  0.000101 -0.000463 -0.000378
 10H   1s         0.006195 -0.063943  0.011094 -0.090256  0.128812  0.073720
 10H   2s         0.000033 -0.010710  0.003369 -0.028582  0.047809  0.040189
                     18        19        20        21        22        23   
                  -0.53074  -0.50233  -0.48508  -0.38339  -0.38322  -0.38030
                   2.00000   2.00000   2.00000   2.00000   2.00000   2.00000
                  --------  --------  --------  --------  --------  --------
  0C   1s        -0.028219 -0.000072  0.031335 -0.000029  0.008611 -0.000003
  0C   2s         0.058117  0.000189 -0.070840  0.000084 -0.020394 -0.000009
  0C   1pz       -0.010473  0.193067  0.006403 -0.253514  0.000921  0.031254
  0C   1px       -0.282741 -0.009198 -0.031713  0.011742  0.021719 -0.001460
  0C   1py        0.083146 -0.006840  0.220628  0.008772  0.011745 -0.001078
  0C   3s         0.098721  0.000121 -0.100094 -0.000031 -0.000953  0.000082
  0C   2pz       -0.007793  0.094598 -0.002862 -0.144080 -0.001747  0.007451
  0C   2px       -0.128444 -0.004444 -0.080169  0.006804 -0.009712 -0.000359
  0C   2py       -0.048815 -0.003423  0.022393  0.005078 -0.028351 -0.000249
  0C   1dz2       0.000621 -0.001050  0.000060 -0.000972  0.000036  0.000154
  0C   1dxz       0.000573 -0.006637  0.000039 -0.010081 -0.000070 -0.005010
  0C   1dyz       0.000103 -0.008344  0.000820 -0.002666 -0.000209  0.009240
  0C   1dx2y2     0.006971  0.000029 -0.007822  0.000374  0.001474  0.000564
  0C   1dxy       0.008081  0.000632  0.011893  0.000485 -0.003255 -0.000249
  1C   1s        -0.024443 -0.000042  0.025500  0.000038 -0.020497 -0.000004
  1C   2s         0.051483  0.000095 -0.058040 -0.000074  0.036398  0.000022
  1C   1pz        0.009203  0.258196  0.004081  0.044701  0.000155  0.141408
  1C   1px        0.272463 -0.011886  0.002733 -0.001950 -0.058385 -0.006608
  1C   1py       -0.091738 -0.009458  0.103278 -0.001716  0.078308 -0.005061
  1C   3s         0.030125  0.000232 -0.114240 -0.000422  0.232969 -0.000082
  1C   2pz        0.002137  0.112342  0.001474  0.015957 -0.000363  0.087172
  1C   2px       -0.015196 -0.005314 -0.015351 -0.000413 -0.121631 -0.004071
  1C   2py        0.083689 -0.003801  0.058513 -0.000851  0.148575 -0.003135
  1C   1dz2       0.001728 -0.000753  0.000408 -0.001745  0.000162  0.000425
  1C   1dxz       0.001058  0.001677 -0.000199 -0.014452 -0.000153 -0.006895
  1C   1dyz       0.000275 -0.014410  0.000089 -0.009210 -0.000085  0.015913
  1C   1dx2y2     0.012473 -0.000572 -0.003590  0.000374 -0.000881  0.000887
[...]
 1 C  py              0.1       1.0       0.0       2.7       0.8       0.4
 1 C  dz2            12.1       0.1       0.1       9.5       0.1       2.4
 1 C  dxz             0.1       0.0       7.7       0.0       0.0       0.0
 1 C  dyz             0.0       0.0       6.1       0.0       0.0       0.0
 1 C  dx2y2           2.6       0.4       0.0       0.3       0.0       0.0
 1 C  dxy             0.0       0.4       0.0       0.1       0.1       6.9
 2 N  s               0.7       1.7       0.0      18.5       1.7       0.7
 2 N  px              0.3       0.1       0.0       1.4       1.3       0.3
 2 N  py              0.5       1.0       0.0       0.8       2.3       0.1
 2 N  dz2             0.8       2.5       0.0      29.6       2.8       0.9
 2 N  dxz             0.0       0.0       2.2       0.2       0.0       0.0
 2 N  dyz             0.0       0.0      13.0       0.1       0.0       0.0
 2 N  dx2y2           0.0       2.0       0.0       0.0       6.5       1.3
 2 N  dxy             0.0       2.5       0.0       0.5      13.6       3.8
 3 C  s               0.1       0.4       0.0       0.5      10.8       0.3
 3 C  px              0.5       0.5       0.0       1.4       0.3       2.5
 3 C  py              0.0       0.3       0.0       0.1       3.1       0.1
 3 C  dz2             0.6       3.3       0.2       2.9       9.4       0.2
 3 C  dxz             0.0       0.0      23.0       0.0       0.1       0.0
 3 C  dyz             0.0       0.0       0.2       0.0       0.0       0.0
 3 C  dx2y2           0.4       2.7       0.0       0.2       0.3       0.0
 3 C  dxy             2.1       0.9       0.0       2.4       1.7       1.6
 4 N  s               4.0      11.5       0.0       2.8       2.9       1.4
 4 N  px              0.6       1.6       0.0       0.7       0.9       0.4
 4 N  py              0.8       1.2       0.0       0.1       0.7       0.3
 4 N  dz2             4.3      21.9       0.2       3.4       6.5       2.8
 4 N  dxz             0.0       0.1       3.1       0.0       0.1       0.0
 4 N  dyz             0.0       0.0      23.6       0.0       0.0       0.1
 4 N  dx2y2           0.1       0.1       0.0       0.9       2.6       0.4
 4 N  dxy             0.0       3.2       0.1       0.1       6.0       8.5
 5 H  s               0.1       0.2       0.0       2.0       0.0       0.3
 6 C  s               0.3       0.6       0.0       0.2       0.1       2.0
 6 C  px              0.4       0.5       0.0       0.0       0.2       0.1
 6 C  py              0.3       0.7       0.0       0.0       0.3       0.4
 6 C  dz2             0.0       0.5       0.0       0.2       0.2       1.3
 6 C  dxz             0.0       0.0       0.6       0.0       0.0       0.0
 6 C  dyz             0.0       0.0       0.3       0.0       0.0       0.0
 6 C  dx2y2           8.3       1.3       0.0       0.3       5.2       0.3
 6 C  dxy             0.1       2.0       0.0       1.1       0.2       1.8
 7 C  s               0.4       0.2       0.0       0.7       0.2       3.5
 7 C  px              0.3       0.1       0.0       0.3       0.1       0.4
 7 C  py              0.5       0.3       0.0       0.5       0.2       0.8
 7 C  dz2             0.1       0.1       0.0       0.7       0.0       2.2
 7 C  dxz             0.0       0.0       0.9       0.0       0.0       0.0
 7 C  dx2y2           8.0       5.6       0.0       1.1       4.3       0.1
 7 C  dxy             0.6       0.4       0.0       3.0       0.0       3.2
 8 N  s               0.8       0.2       0.0       2.5       0.0       8.8
 8 N  px              0.3       0.2       0.0       0.3       0.2       0.9
 8 N  py              0.3       0.2       0.0       0.3       0.1       0.9
 8 N  dz2             0.1       0.1       0.0       0.2       0.0       2.4
 8 N  dyz             0.0       0.0       0.4       0.0       0.0       0.0
 8 N  dx2y2           5.4       5.2       0.0       0.5       5.0       0.1
 8 N  dxy             0.0       0.1       0.0       0.6       0.2       8.9
 9 N  s               0.2       1.5       0.0       0.8       1.0       4.1
 9 N  px              0.3       0.2       0.0       0.1       0.2       0.4
 9 N  py              0.2       0.2       0.0       0.2       0.3       0.4
 9 N  dz2             0.1       0.0       0.0       0.2       0.0       0.9
 9 N  dx2y2           5.7       1.7       0.0       0.2       5.0       0.0
 9 N  dxy             0.2       0.5       0.0       0.2       0.2       4.3
10 H  s               0.1       0.9       0.0       0.1       0.3       0.0

                    120       121       122       123       124       125   
                   2.73251   2.76965   2.80556   2.85771   2.88730   2.89344
                   0.00000   0.00000   0.00000   0.00000   0.00000   0.00000
                  --------  --------  --------  --------  --------  --------
 0 C  s               0.0       0.7       1.2       1.7       0.0       2.3
 0 C  pz              0.2       0.0       0.0       0.0       0.1       0.0
 0 C  px              0.0       0.3       0.0       0.0       0.0       0.2
 0 C  py              0.0       0.3       0.2       1.4       0.0       0.9
 0 C  dz2             0.0       0.9       1.1       1.0       0.1       1.2
 0 C  dxz             0.4       0.0       0.0       0.0       6.9       0.0
 0 C  dyz             4.8       0.0       0.0       0.0       6.9       0.0
 0 C  dx2y2           0.0       0.3       3.4       3.3       0.0       0.4
 0 C  dxy             0.0       0.0       1.3       0.5       0.0      12.9
 1 C  s               0.0       1.0       2.5       0.4       0.0       0.3
 1 C  pz              0.2       0.0       0.0       0.0       0.1       0.0
 1 C  px              0.0       0.2       0.0       0.0       0.0       0.1
 1 C  py              0.0       0.0       1.9       0.2       0.0       0.1
 1 C  dz2             0.0       1.0       1.6       0.0       0.0       0.1
 1 C  dxz             1.9       0.0       0.0       0.0       7.6       0.0
 1 C  dyz             3.4       0.0       0.0       0.0       6.5       0.0
 1 C  dx2y2           0.0       0.3       0.4       3.7       0.0       3.2
 1 C  dxy             0.0       0.9       0.2       7.1       0.0       4.7
 2 N  s               0.0       0.0       0.2       0.4       0.0       0.3
 2 N  px              0.0       0.0       0.4       0.2       0.0       0.3
 2 N  py              0.0       0.1       2.6       0.2       0.0       0.2
 2 N  dxz             0.8       0.0       0.0       0.0       0.7       0.0
 2 N  dyz             0.2       0.0       0.1       0.0       0.3       0.0
 2 N  dx2y2           0.0       1.9      15.6       7.0       0.0       0.4
 2 N  dxy             0.0       0.0       2.6       1.3       0.0       0.1
 3 C  s               0.0       0.0       0.0       0.7       0.0       0.2
 3 C  px              0.0       0.3       3.5       0.8       0.0       0.3
 3 C  py              0.0       0.0       0.0       0.5       0.0       0.2
 3 C  dz2             0.0       0.1       0.0       0.2       0.0       0.0
 3 C  dxz             0.0       0.0       0.0       0.0       0.3       0.0
 3 C  dyz             0.3       0.0       0.0       0.0       0.0       0.0
 3 C  dx2y2           0.0       2.9       2.0       5.6       0.0       3.8
 3 C  dxy             0.0       0.6      14.0       0.7       0.0       4.0
 4 N  s               0.0       0.4       1.1       0.3       0.0       0.6
 4 N  px              0.0       0.1       1.0       0.1       0.0       0.4
 4 N  py              0.0       0.0       1.5       1.3       0.0       1.7
 4 N  dz2             0.0       0.2       0.0       0.1       0.0       0.7
 4 N  dxz             1.0       0.0       0.0       0.0       1.3       0.0
 4 N  dyz             0.4       0.0       0.0       0.0       0.2       0.0
 4 N  dx2y2           0.0       1.2       0.9       6.9       0.0      20.6
 4 N  dxy             0.0       1.0       5.5       8.6       0.0       0.3
 5 H  s               0.0       0.1       0.4       0.9       0.0       0.0
 6 C  s               0.0       3.9       1.3       0.7       0.0       2.3
 6 C  pz              0.7       0.0       0.0       0.0       0.3       0.0
 6 C  px              0.0       1.0       1.3       0.4       0.0       1.9
 6 C  py              0.0       2.7       0.8       1.1       0.0       3.1
 6 C  dz2             0.2       1.0       0.1       0.0       0.2       0.7
 6 C  dxz             9.1       0.0       0.0       0.0       7.0       0.0
 6 C  dyz            14.9       0.0       0.0       0.0      14.1       0.0
 6 C  dx2y2           0.0       0.1      10.9       2.0       0.0       0.3
 6 C  dxy             0.1       3.0       0.2       0.2       0.1       0.6
 7 C  s               0.0       3.4       0.1       1.9       0.0       0.8
 7 C  pz              0.6       0.0       0.0       0.0       0.3       0.0
 7 C  px              0.0       1.9       0.0       2.7       0.0       0.9
 7 C  py              0.0       2.6       0.1       2.0       0.0       1.3
 7 C  dz2             0.0       0.4       0.0       0.2       0.0       0.6
 7 C  dxz            11.1       0.0       0.0       0.0       9.3       0.0
 7 C  dyz            12.8       0.0       0.0       0.0      11.9       0.0
 7 C  dx2y2           0.1       0.1       0.1       5.9       0.1       3.2
 7 C  dxy             0.0       1.5       0.0       0.7       0.0       0.3
 8 N  s               0.0       7.3       0.0       2.6       0.0       0.7
 8 N  pz              1.0       0.0       0.0       0.0       0.8       0.0
 8 N  px              0.0       1.2       0.0       0.3       0.0       0.7
 8 N  py              0.0       1.2       0.0       1.8       0.0       0.2
 8 N  dz2             0.0       5.1       0.0       2.9       0.0       1.1
 8 N  dxz             7.7       0.0       0.0       0.0       5.4       0.0
 8 N  dyz             9.1       0.0       0.0       0.0       6.2       0.0
 8 N  dx2y2           0.1       0.0       0.1       4.8       0.0       1.3
 8 N  dxy             0.0      15.3       0.1       7.5       0.0       3.1
 9 N  s               0.0       9.3       2.6       0.7       0.0       2.5
 9 N  pz              1.0       0.0       0.0       0.0       0.9       0.0
 9 N  px              0.0       1.1       0.0       0.4       0.0       0.8
 9 N  py              0.0       1.4       1.3       0.1       0.0       1.3
 9 N  dz2             0.2       4.9       1.9       0.9       0.1       3.1
 9 N  dxz             5.8       0.1       0.0       0.0       4.2       0.0
 9 N  dyz            11.6       0.1       0.1       0.0       7.7       0.1
 9 N  dx2y2           0.0       0.2      11.2       0.6       0.0       0.6
 9 N  dxy             0.1      15.8       2.1       3.6       0.0       7.6
10 H  s               0.0       0.2       0.2       0.5       0.0       0.2

                    126       127       128       129   
                   3.03868   3.22824   3.29154   3.54791
                   0.00000   0.00000   0.00000   0.00000
                  --------  --------  --------  --------
 0 C  s               0.2       0.4       1.4       2.0
 0 C  px              0.9       1.4       1.6       0.1
 0 C  py              0.0       1.0       0.9       0.7
 0 C  dz2             0.0       0.3       0.5       1.6
 0 C  dx2y2           3.7      16.1       7.5       0.0
 0 C  dxy             0.0       2.1       1.5      12.6
 1 C  s               0.2       0.2       1.7       2.5
 1 C  px              0.6       2.7       0.1       0.3
 1 C  py              0.2       0.0       1.4       0.8
 1 C  dz2             0.1       0.1       0.8       2.1
 1 C  dx2y2           8.1      18.2       2.3       0.0
 1 C  dxy             0.9       0.0       3.3      13.5
 2 N  s               0.1       0.3       0.1       0.0
 2 N  py              0.8       1.0       0.3       0.2
 2 N  dz2             0.1       0.2       0.0       0.1
 2 N  dx2y2           4.4       0.4       2.1       1.3
 2 N  dxy            13.1       3.0       0.0       0.6
 3 C  s               1.1       0.2       0.1       0.0
 3 C  px              0.0       0.9       0.2       0.1
 3 C  dz2             0.3       0.0       0.0       0.0
 3 C  dx2y2          20.2       0.1       1.5       0.0
 3 C  dxy             0.1       0.8       0.2       0.3
 4 N  s               0.3       0.1       0.1       0.0
 4 N  px              0.1       0.0       0.2       0.1
 4 N  py              0.8       1.7       0.2       0.3
 4 N  dz2             0.1       0.0       0.1       0.1
 4 N  dx2y2           5.0       1.5       0.5       1.3
 4 N  dxy             7.9       5.2       2.0       0.0
 5 H  s               1.7       0.1       0.1       0.2
 6 C  s               0.3       0.4       5.0       4.1
 6 C  px              0.1       0.1       0.5       0.2
 6 C  py              0.2       0.1       1.1       0.3
 6 C  dz2             0.2       0.6       5.6       3.8
 6 C  dxz             0.0       0.0       0.1       0.0
 6 C  dyz             0.0       0.0       0.1       0.1
 6 C  dx2y2           5.8       9.1       0.2       2.8
 6 C  dxy             0.0       0.1      20.8      10.6
 7 C  s               0.7       1.7       2.8       4.9
 7 C  px              0.3       0.3       0.4       0.2
 7 C  py              0.6       0.4       0.4       0.2
 7 C  dz2             0.7       1.8       3.5       4.3
 7 C  dx2y2           8.7       7.7       1.4       0.5
 7 C  dxy             0.9       7.2      10.0      14.4
 8 N  s               0.4       1.2       2.1       2.7
 8 N  px              0.8       0.3       1.3       1.3
 8 N  py              0.1       1.4       1.0       1.4
 8 N  dz2             0.4       0.2       0.3       0.2
 8 N  dx2y2           3.3       4.1       0.2       0.0
 8 N  dxy             1.2       0.5       1.0       0.8
 9 N  s               0.1       0.3       3.6       2.4
 9 N  px              0.3       0.5       1.0       1.0
 9 N  py              0.0       0.1       3.1       1.5
 9 N  dz2             0.1       0.1       0.6       0.2
 9 N  dx2y2           1.4       2.5       2.2       0.0
 9 N  dxy             0.8       0.9       0.9       0.9
10 H  s               1.0       0.0       0.1       0.0


                      *****************************
                      * MAYER POPULATION ANALYSIS *
                      *****************************

  NA   - Mulliken gross atomic population
  ZA   - Total nuclear charge
  QA   - Mulliken gross atomic charge
  VA   - Mayer's total valence
  BVA  - Mayer's bonded valence
  FA   - Mayer's free valence

  ATOM       NA         ZA         QA         VA         BVA        FA
  0 C      5.8107     6.0000     0.1893     3.8565     3.8565    -0.0000
  1 C      5.6630     6.0000     0.3370     3.6136     3.6136     0.0000
  2 N      7.5655     7.0000    -0.5655     3.2068     3.2068    -0.0000
  3 C      5.7931     6.0000     0.2069     3.7785     3.7785     0.0000
  4 N      7.3670     7.0000    -0.3670     3.0171     3.0171     0.0000
  5 H      0.6369     1.0000     0.3631     0.8442     0.8442     0.0000
  6 C      5.8896     6.0000     0.1104     4.0130     4.0130    -0.0000
  7 C      5.9094     6.0000     0.0906     3.9713     3.9713     0.0000
  8 N      7.2724     7.0000    -0.2724     3.1336     3.1336    -0.0000
  9 N      7.2844     7.0000    -0.2844     3.1260     3.1260    -0.0000
 10 H      0.8081     1.0000     0.1919     0.9268     0.9268     0.0000

  Mayer bond orders larger than 0.1
B(  0-C ,  1-C ) :   1.4236 B(  0-C ,  4-N ) :   1.3060 B(  0-C ,  6-C ) :   1.0006 
B(  1-C ,  2-N ) :   1.0730 B(  1-C ,  7-C ) :   0.9756 B(  2-N ,  3-C ) :   1.1584 
B(  2-N ,  5-H ) :   0.8155 B(  3-C ,  4-N ) :   1.5623 B(  3-C , 10-H ) :   0.9221 
B(  6-C ,  9-N ) :   3.0197 B(  7-C ,  8-N ) :   3.0047 

-------
TIMINGS
-------

Total SCF time: 0 days 0 hours 0 min 16 sec 

Total time                  ....      16.386 sec
Sum of individual times     ....      16.120 sec  ( 98.4%)

Fock matrix formation       ....      14.056 sec  ( 85.8%)
  XC integration            ....       2.496 sec  ( 17.8% of F)
    Basis function eval.    ....       0.904 sec  ( 36.2% of XC)
    Density eval.           ....       0.653 sec  ( 26.1% of XC)
    XC-Functional eval.     ....       0.184 sec  (  7.4% of XC)
    XC-Potential eval.      ....       0.627 sec  ( 25.1% of XC)
Diagonalization             ....       0.003 sec  (  0.0%)
Density matrix formation    ....       0.002 sec  (  0.0%)
Population analysis         ....       0.051 sec  (  0.3%)
Initial guess               ....       0.003 sec  (  0.0%)
Orbital Transformation      ....       0.000 sec  (  0.0%)
Orbital Orthonormalization  ....       0.001 sec  (  0.0%)
DIIS solution               ....       0.000 sec  (  0.0%)
SOSCF solution              ....       0.010 sec  (  0.1%)
Grid generation             ....       1.995 sec  ( 12.2%)

-------------------------   --------------------
FINAL SINGLE POINT ENERGY      -410.462021618349
-------------------------   --------------------

                                *** OPTIMIZATION RUN DONE ***

                            ***************************************
                            *     ORCA property calculations      *
                            ***************************************

                                    ---------------------
                                    Active property flags
                                    ---------------------
   (+) Dipole Moment


------------------------------------------------------------------------------
                       ORCA ELECTRIC PROPERTIES CALCULATION
------------------------------------------------------------------------------

Dipole Moment Calculation                       ... on
Quadrupole Moment Calculation                   ... off
Polarizability Calculation                      ... off
GBWName                                         ... /Users/lailaal-madhagi/Desktop/Testing_XAS_Analysis_code/Dicyanoimidazole//Results_dir_Dicyanoimidazole_geom_element_C_2019-11-10_14-17-23//GTE1_Dicyanoimidazole_geom_2019-11-10_14-17-43//opt.gbw
Electron density file                           ... /Users/lailaal-madhagi/Desktop/Testing_XAS_Analysis_code/Dicyanoimidazole//Results_dir_Dicyanoimidazole_geom_element_C_2019-11-10_14-17-23//GTE1_Dicyanoimidazole_geom_2019-11-10_14-17-43//opt.scfp.tmp
The origin for moment calculation is the CENTER OF MASS  = (-10.192789,  1.950082 -0.098608)

-------------
DIPOLE MOMENT
-------------
                                X             Y             Z
Electronic contribution:      0.39973       2.29892       0.09968
Nuclear contribution   :     -1.71638      -4.77108      -0.24784
                        -----------------------------------------
Total Dipole Moment    :     -1.31665      -2.47216      -0.14816
                        -----------------------------------------
Magnitude (a.u.)       :      2.80484
Magnitude (Debye)      :      7.12933



--------------------
Rotational spectrum 
--------------------
 
Rotational constants in cm-1:     0.067493     0.063602     0.032745 
Rotational constants in MHz :  2023.375525  1906.725061   981.659565 

 Dipole components along the rotational axes: 
x,y,z [a.u.] :    -1.255600     2.508101     0.000432 
x,y,z [Debye]:    -3.191482     6.375086     0.001097 

 

Timings for individual modules:

Sum of individual times         ...      312.862 sec (=   5.214 min)
GTO integral calculation        ...        4.025 sec (=   0.067 min)   1.3 %
SCF iterations                  ...      210.001 sec (=   3.500 min)  67.1 %
SCF Gradient evaluation         ...       97.855 sec (=   1.631 min)  31.3 %
Geometry relaxation             ...        0.980 sec (=   0.016 min)   0.3 %
                             ****ORCA TERMINATED NORMALLY****
TOTAL RUN TIME: 0 days 0 hours 5 minutes 13 seconds 735 msec
