
                                 *****************
                                 * O   R   C   A *
                                 *****************

           --- An Ab Initio, DFT and Semiempirical electronic structure package ---

                  #######################################################
                  #                        -***-                        #
                  #          Department of theory and spectroscopy      #
                  #               Directorship: Frank Neese             #
                  #        Max Planck Institute fuer Kohlenforschung    #
                  #                Kaiser Wilhelm Platz 1               #
                  #                 D-45470 Muelheim/Ruhr               #
                  #                      Germany                        #
                  #                                                     #
                  #                  All rights reserved                #
                  #                        -***-                        #
                  #######################################################


                         Program Version 4.1.0  - RELEASE  -


 With contributions from (in alphabetic order):
   Daniel Aravena         : Magnetic Properties
   Michael Atanasov       : Ab Initio Ligand Field Theory
   Alexander A. Auer      : GIAO ZORA
   Ute Becker             : Parallelization
   Giovanni Bistoni       : ED, Open-shell LED
   Martin Brehm           : Molecular dynamics
   Dmytro Bykov           : SCF Hessian
   Vijay G. Chilkuri      : MRCI spin determinant printing
   Dipayan Datta          : RHF DLPNO-CCSD density
   Achintya Kumar Dutta   : EOM-CC, STEOM-CC
   Dmitry Ganyushin       : Spin-Orbit,Spin-Spin,Magnetic field MRCI
   Miquel Garcia          : C-PCM Hessian
   Yang Guo               : DLPNO-NEVPT2, CIM, IAO-localization
   Andreas Hansen         : Spin unrestricted coupled pair/coupled cluster methods
   Benjamin Helmich-Paris : CASSCF linear response (MC-RPA)
   Lee Huntington         : MR-EOM, pCC
   Robert Izsak           : Overlap fitted RIJCOSX, COSX-SCS-MP3, EOM
   Christian Kollmar      : KDIIS, OOCD, Brueckner-CCSD(T), CCSD density
   Simone Kossmann        : Meta GGA functionals, TD-DFT gradient, OOMP2, MP2 Hessian
   Martin Krupicka        : AUTO-CI
   Lucas Lang             : DCDCAS
   Dagmar Lenk            : GEPOL surface, SMD
   Dimitrios Liakos       : Extrapolation schemes; parallel MDCI
   Dimitrios Manganas     : ROCIS; embedding schemes
   Dimitrios Pantazis     : SARC Basis sets
   Taras Petrenko         : DFT Hessian,TD-DFT gradient, ASA, ECA, R-Raman, ABS, FL, XAS/XES, NRVS
   Peter Pinski           : DLPNO-MP2, DLPNO-MP2 Gradient
   Christoph Reimann      : Effective Core Potentials
   Marius Retegan         : Local ZFS, SOC
   Christoph Riplinger    : Optimizer, TS searches, QM/MM, DLPNO-CCSD(T), (RO)-DLPNO pert. Triples
   Tobias Risthaus        : Range-separated hybrids, TD-DFT gradient, RPA, STAB
   Michael Roemelt        : Restricted open shell CIS
   Masaaki Saitow         : Open-shell DLPNO
   Barbara Sandhoefer     : DKH picture change effects
   Avijit Sen             : IP-ROCIS
   Kantharuban Sivalingam : CASSCF convergence, NEVPT2, FIC-MRCI
   Bernardo de Souza      : ESD, SOC TD-DFT
   Georgi Stoychev        : AutoAux, RI-MP2 NMR
   Willem Van den Heuvel  : Paramagnetic NMR
   Boris Wezisla          : Elementary symmetry handling
   Frank Wennmohs         : Technical directorship


 We gratefully acknowledge several colleagues who have allowed us to
 interface, adapt or use parts of their codes:
   Stefan Grimme, W. Hujo, H. Kruse,             : VdW corrections, initial TS optimization,
                  C. Bannwarth                     DFT functionals, gCP, sTDA/sTD-DF
   Ed Valeev                                     : LibInt (2-el integral package), F12 methods
   Garnet Chan, S. Sharma, J. Yang, R. Olivares  : DMRG
   Ulf Ekstrom                                   : XCFun DFT Library
   Mihaly Kallay                                 : mrcc  (arbitrary order and MRCC methods)
   Andreas Klamt, Michael Diedenhofen            : otool_cosmo (COSMO solvation model)
   Jiri Pittner, Ondrej Demel                    : Mk-CCSD
   Frank Weinhold                                : gennbo (NPA and NBO analysis)
   Christopher J. Cramer and Donald G. Truhlar   : smd solvation model
   Lars Goerigk                                  : TD-DFT with DH, B97 family of functionals
   V. Asgeirsson, H. Jonsson                     : NEB implementation
   FAccTs GmbH                                   : IRC, NEB, NEB-TS, Multilevel


 Your calculation uses the libint2 library for the computation of 2-el integrals
 For citations please refer to: http://libint.valeyev.net

 This ORCA versions uses:
   CBLAS   interface :  Fast vector & matrix operations
   LAPACKE interface :  Fast linear algebra routines
   SCALAPACK package :  Parallel linear algebra routines




***************************************
The coordinates will be read from file: /Users/lailaal-madhagi/Desktop/Testing_XAS_Analysis_code/Anisole/Anisole_geom.xyz
***************************************


----- Orbital basis set information -----
Your calculation utilizes the basis: 6-31G*
   H-He, Li-Ne : W. J. Hehre, R. Ditchfield and J.A. Pople, J. Chem. Phys. 56, 2257 (1972).
                 Note: He and Ne are unpublished basis sets taken from the Gaussian program.
                 Note: Li and B from J. D. Dill and J. A. Pople, J. Chem. Phys. 62, 2921 (1975).
   Na - Ar     : M. M. Francl, W. J. Pietro, W. J. Hehre, J. S. Binkley, M. S. Gordon, 
                 D. J. DeFrees and J. A. Pople, J. Chem. Phys. 77, 3654 (1982).
   K - Zn      : V. A. Rassolov, J. A. Pople, M. A. Ratner, and T. L. Windus, J. Chem. Phys. 109, 1223 (1998).

================================================================================
                                        WARNINGS
                       Please study these warnings very carefully!
================================================================================


WARNING: Geometry Optimization
  ===> : Switching off AutoStart
         For restart on a previous wavefunction, please use MOREAD

INFO   : the flag for use of LIBINT has been found!

================================================================================
                                       INPUT FILE
================================================================================
NAME = /Users/lailaal-madhagi/Desktop/Testing_XAS_Analysis_code/Anisole//Results_dir_Anisole_geom_element_C_2019-11-04_21-25-14//GTE1_Anisole_geom_2019-11-04_21-25-44//opt.inp
|  1> ! B3LYP 6-31G* TIGHTSCF Grid3 FinalGrid5 Opt 
|  2> !NormalPrint 
|  3> %output 
|  4> Print[P_Basis] 2 
|  5> Print[P_MOS] 1 
|  6> end 
|  7> *xyzfile 0 1 /Users/lailaal-madhagi/Desktop/Testing_XAS_Analysis_code/Anisole/Anisole_geom.xyz                           ****END OF INPUT****
================================================================================

                       *****************************
                       * Geometry Optimization Run *
                       *****************************

Geometry optimization settings:
Update method            Update   .... BFGS
Choice of coordinates    CoordSys .... Z-matrix Internals
Initial Hessian          InHess   .... Almoef's Model

Convergence Tolerances:
Energy Change            TolE     ....  5.0000e-06 Eh
Max. Gradient            TolMAXG  ....  3.0000e-04 Eh/bohr
RMS Gradient             TolRMSG  ....  1.0000e-04 Eh/bohr
Max. Displacement        TolMAXD  ....  4.0000e-03 bohr
RMS Displacement         TolRMSD  ....  2.0000e-03 bohr

------------------------------------------------------------------------------
                        ORCA OPTIMIZATION COORDINATE SETUP
------------------------------------------------------------------------------

The optimization will be done in new redundant internal coordinates
Making redundant internal coordinates   ...  (new redundants) done
Evaluating the initial hessian          ...  (Almloef) done
Evaluating the coordinates              ...  done
Calculating the B-matrix                .... done
Calculating the G-matrix                .... done
Diagonalizing the G-matrix              .... done
Small eigenvalue found = 2.206e-02
The first mode is                       ....   28
The number of degrees of freedom        ....   42

    -----------------------------------------------------------------
                    Redundant Internal Coordinates


    -----------------------------------------------------------------
         Definition                    Initial Value    Approx d2E/dq
    -----------------------------------------------------------------
      1. B(C   1,C   0)                  1.3977         0.607294   
      2. B(C   2,C   0)                  1.3956         0.612181   
      3. B(C   3,C   2)                  1.3961         0.611015   
      4. B(C   4,C   1)                  1.4027         0.596295   
      5. B(C   5,C   4)                  1.4138         0.572554   
      6. B(C   5,C   3)                  1.3992         0.603935   
      7. B(O   6,C   4)                  1.3609         0.622671   
      8. B(C   7,O   6)                  1.3830         0.574255   
      9. B(H   8,C   7)                  1.1094         0.335377   
     10. B(H   9,C   7)                  1.1094         0.335372   
     11. B(H  10,C   7)                  1.1036         0.342596   
     12. B(H  11,C   0)                  1.0824         0.370312   
     13. B(H  12,C   1)                  1.0830         0.369518   
     14. B(H  13,C   2)                  1.0824         0.370337   
     15. B(H  14,C   3)                  1.0825         0.370113   
     16. B(H  15,C   5)                  1.0778         0.376614   
     17. A(C   1,C   0,H  11)          119.9861         0.353343   
     18. A(C   1,C   0,C   2)          120.0485         0.431467   
     19. A(C   2,C   0,H  11)          119.9654         0.353823   
     20. A(C   0,C   1,H  12)          119.2959         0.353214   
     21. A(C   4,C   1,H  12)          119.8967         0.352124   
     22. A(C   0,C   1,C   4)          120.8074         0.429435   
     23. A(C   0,C   2,C   3)          119.9279         0.431941   
     24. A(C   3,C   2,H  13)          120.0389         0.353712   
     25. A(C   0,C   2,H  13)          120.0332         0.353827   
     26. A(C   5,C   3,H  14)          119.9195         0.352979   
     27. A(C   2,C   3,H  14)          119.7947         0.353676   
     28. A(C   2,C   3,C   5)          120.2859         0.430890   
     29. A(C   1,C   4,O   6)          117.3358         0.428550   
     30. A(C   1,C   4,C   5)          118.7101         0.424927   
     31. A(C   5,C   4,O   6)          123.9541         0.425442   
     32. A(C   3,C   5,C   4)          120.2203         0.425896   
     33. A(C   3,C   5,H  15)          117.2085         0.354022   
     34. A(C   4,C   5,H  15)          122.5712         0.350840   
     35. A(C   4,O   6,C   7)          129.2750         0.422898   
     36. A(H   9,C   7,H  10)          108.0919         0.285388   
     37. A(H   8,C   7,H  10)          108.0977         0.285389   
     38. A(O   6,C   7,H  10)          114.2016         0.343351   
     39. A(H   8,C   7,H   9)          108.4837         0.284444   
     40. A(O   6,C   7,H   9)          108.9134         0.342127   
     41. A(O   6,C   7,H   8)          108.9159         0.342128   
     42. D(H  12,C   1,C   0,C   2)   -180.0000         0.025459   
     43. D(H  12,C   1,C   0,H  11)      0.0000         0.025459   
     44. D(C   4,C   1,C   0,C   2)      0.0007         0.025459   
     45. D(C   4,C   1,C   0,H  11)   -179.9994         0.025459   
     46. D(C   3,C   2,C   0,H  11)   -179.9996         0.025894   
     47. D(H  13,C   2,C   0,C   1)    179.9998         0.025894   
     48. D(C   3,C   2,C   0,C   1)      0.0004         0.025894   
     49. D(H  13,C   2,C   0,H  11)     -0.0002         0.025894   
     50. D(H  14,C   3,C   2,H  13)     -0.0006         0.025789   
     51. D(H  14,C   3,C   2,C   0)    179.9988         0.025789   
     52. D(C   5,C   3,C   2,H  13)    179.9999         0.025789   
     53. D(C   5,C   3,C   2,C   0)     -0.0007         0.025789   
     54. D(O   6,C   4,C   1,C   0)    180.0000         0.024496   
     55. D(C   5,C   4,C   1,H  12)    179.9994         0.024496   
     56. D(C   5,C   4,C   1,C   0)     -0.0013         0.024496   
     57. D(O   6,C   4,C   1,H  12)      0.0006         0.024496   
     58. D(H  15,C   5,C   4,O   6)      0.0016         0.022496   
     59. D(C   3,C   5,C   4,O   6)    179.9996         0.022496   
     60. D(C   3,C   5,C   4,C   1)      0.0009         0.022496   
     61. D(H  15,C   5,C   3,H  14)     -0.0014         0.025162   
     62. D(H  15,C   5,C   3,C   2)    179.9981         0.025162   
     63. D(H  15,C   5,C   4,C   1)   -179.9970         0.022496   
     64. D(C   4,C   5,C   3,H  14)   -179.9995         0.025162   
     65. D(C   4,C   5,C   3,C   2)      0.0001         0.025162   
     66. D(C   7,O   6,C   4,C   5)      0.0270         0.028464   
     67. D(C   7,O   6,C   4,C   1)   -179.9743         0.028464   
     68. D(H  10,C   7,O   6,C   4)      0.0161         0.026416   
     69. D(H   9,C   7,O   6,C   4)    120.9398         0.026416   
     70. D(H   8,C   7,O   6,C   4)   -120.9169         0.026416   
    -----------------------------------------------------------------

Number of atoms                         .... 16
Number of degrees of freedom            .... 70

         *************************************************************
         *                GEOMETRY OPTIMIZATION CYCLE   1            *
         *************************************************************
---------------------------------
CARTESIAN COORDINATES (ANGSTROEM)
---------------------------------
  C     -2.428580    1.121360    0.015290
  C     -1.038620    1.268120    0.026860
  C     -2.996480   -0.153080   -0.014020
  C     -2.174740   -1.281550   -0.031770
  C     -0.197540    0.145680    0.009330
  C     -0.782620   -1.141000   -0.020320
  O      1.144670    0.370250    0.022180
  C      2.184930   -0.540950    0.009680
  H      2.805230   -0.391070    0.917120
  H      2.816440   -0.353510   -0.882930
  H      1.861990   -1.595930   -0.014410
  H     -3.065110    1.996690    0.029070
  H     -0.610950    2.262810    0.049640
  H     -4.072860   -0.266440   -0.022970
  H     -2.617560   -2.269110   -0.054480
  H     -0.195910   -2.044990   -0.034950

----------------------------
CARTESIAN COORDINATES (A.U.)
----------------------------
  NO LB      ZA    FRAG     MASS         X           Y           Z
   0 C     6.0000    0    12.011   -4.589351    2.119063    0.028894
   1 C     6.0000    0    12.011   -1.962707    2.396400    0.050758
   2 C     6.0000    0    12.011   -5.662527   -0.289279   -0.026494
   3 C     6.0000    0    12.011   -4.109663   -2.421779   -0.060037
   4 C     6.0000    0    12.011   -0.373297    0.275295    0.017631
   5 C     6.0000    0    12.011   -1.478937   -2.156178   -0.038399
   6 O     8.0000    0    15.999    2.163113    0.699671    0.041914
   7 C     6.0000    0    12.011    4.128919   -1.022247    0.018293
   8 H     1.0000    0     1.008    5.301116   -0.739015    1.733106
   9 H     1.0000    0     1.008    5.322300   -0.668037   -1.668496
  10 H     1.0000    0     1.008    3.518651   -3.015871   -0.027231
  11 H     1.0000    0     1.008   -5.792218    3.773197    0.054934
  12 H     1.0000    0     1.008   -1.154528    4.276091    0.093806
  13 H     1.0000    0     1.008   -7.696590   -0.503499   -0.043407
  14 H     1.0000    0     1.008   -4.946472   -4.287996   -0.102952
  15 H     1.0000    0     1.008   -0.370216   -3.864471   -0.066046

--------------------------------
INTERNAL COORDINATES (ANGSTROEM)
--------------------------------
 C      0   0   0     0.000000000000     0.00000000     0.00000000
 C      1   0   0     1.397734296674     0.00000000     0.00000000
 C      1   2   0     1.395552506966   120.04845978     0.00000000
 C      3   1   2     1.396071714132   119.92789065     0.00000000
 C      2   1   3     1.402709670923   120.80735941     0.00000000
 C      4   3   1     1.399243902756   120.28587280     0.00000000
 O      5   2   1     1.360927805396   117.33575823   179.99997584
 C      7   5   2     1.382961517035   129.27504746   180.02568994
 H      8   7   5     1.109361734512   108.91594949   239.08309448
 H      8   7   5     1.109365244543   108.91341087   120.93980383
 H      8   7   5     1.103563941102   114.20157853     0.00000000
 H      1   2   3     1.082387609962   119.98614850   179.99999378
 H      2   1   3     1.082972184961   119.29594791   180.00000729
 H      3   1   2     1.082369851991   120.03316467   179.99976233
 H      4   3   1     1.082534087269   119.79465514   179.99882294
 H      6   4   3     1.077794312984   117.20851569   179.99811524

---------------------------
INTERNAL COORDINATES (A.U.)
---------------------------
 C      0   0   0     0.000000000000     0.00000000     0.00000000
 C      1   0   0     2.641335028704     0.00000000     0.00000000
 C      1   2   0     2.637212043674   120.04845978     0.00000000
 C      3   1   2     2.638193203024   119.92789065     0.00000000
 C      2   1   3     2.650737123447   120.80735941     0.00000000
 C      4   3   1     2.644187770768   120.28587280     0.00000000
 O      5   2   1     2.571780840237   117.33575823   179.99997584
 C      7   5   2     2.613418520949   129.27504746   180.02568994
 H      8   7   5     2.096389861680   108.91594949   239.08309448
 H      8   7   5     2.096396494677   108.91341087   120.93980383
 H      8   7   5     2.085433619953   114.20157853     0.00000000
 H      1   2   3     2.045416153578   119.98614850   179.99999378
 H      2   1   3     2.046520840231   119.29594791   180.00000729
 H      3   1   2     2.045382595877   120.03316467   179.99976233
 H      4   3   1     2.045692955573   119.79465514   179.99882294
 H      6   4   3     2.036736080237   117.20851569   179.99811524

---------------------
BASIS SET INFORMATION
---------------------
There are 3 groups of distinct atoms

 Group   1 Type C   : 10s4p1d contracted to 3s2p1d pattern {631/31/1}
 Group   2 Type O   : 10s4p1d contracted to 3s2p1d pattern {631/31/1}
 Group   3 Type H   : 4s contracted to 2s pattern {31}

Atom   0C    basis set group =>   1
Atom   1C    basis set group =>   1
Atom   2C    basis set group =>   1
Atom   3C    basis set group =>   1
Atom   4C    basis set group =>   1
Atom   5C    basis set group =>   1
Atom   6O    basis set group =>   2
Atom   7C    basis set group =>   1
Atom   8H    basis set group =>   3
Atom   9H    basis set group =>   3
Atom  10H    basis set group =>   3
Atom  11H    basis set group =>   3
Atom  12H    basis set group =>   3
Atom  13H    basis set group =>   3
Atom  14H    basis set group =>   3
Atom  15H    basis set group =>   3

-------------------------
BASIS SET IN INPUT FORMAT
-------------------------

 # Basis set for element : H 
 NewGTO H 
 S 3 
   1      18.7311370000      0.0334945995
   2       2.8253937000      0.2347269467
   3       0.6401217000      0.8137573184
 S 1 
   1       0.1612778000      1.0000000000
  end;

 # Basis set for element : C 
 NewGTO C 
 S 6 
   1    3047.5249000000      0.0018347002
   2     457.3695100000      0.0140373012
   3     103.9486900000      0.0688426061
   4      29.2101550000      0.2321844206
   5       9.2866630000      0.4679413416
   6       3.1639270000      0.3623120322
 S 3 
   1       7.8682724000     -0.1193324086
   2       1.8812885000     -0.1608542116
   3       0.5442493000      1.1434564826
 P 3 
   1       7.8682724000      0.0689990956
   2       1.8812885000      0.3164239798
   3       0.5442493000      0.7443082524
 S 1 
   1       0.1687144000      1.0000000000
 P 1 
   1       0.1687144000      1.0000000000
 D 1 
   1       0.8000000000      1.0000000000
  end;

 # Basis set for element : O 
 NewGTO O 
 S 6 
   1    5484.6717000000      0.0018310998
   2     825.2349500000      0.0139500985
   3     188.0469600000      0.0684450927
   4      52.9645000000      0.2327142753
   5      16.8975700000      0.4701929501
   6       5.7996353000      0.3585208619
 S 3 
   1      15.5396160000     -0.1107775038
   2       3.5999336000     -0.1480263051
   3       1.0137618000      1.1307670390
 P 3 
   1      15.5396160000      0.0708742995
   2       3.5999336000      0.3397527978
   3       1.0137618000      0.7271585953
 S 1 
   1       0.2700058000      1.0000000000
 P 1 
   1       0.2700058000      1.0000000000
 D 1 
   1       0.8000000000      1.0000000000
  end;

------------------------------------------------------------------------------
                           ORCA GTO INTEGRAL CALCULATION
------------------------------------------------------------------------------

                         BASIS SET STATISTICS AND STARTUP INFO

 # of primitive gaussian shells          ...  152
 # of primitive gaussian functions       ...  248
 # of contracted shells                  ...   64
 # of contracted basis functions         ...  128
 Highest angular momentum                ...    2
 Maximum contraction depth               ...    6
 Integral package used                   ... LIBINT
 Integral threshhold            Thresh   ...  2.500e-11
 Primitive cut-off              TCut     ...  2.500e-12


------------------------------ INTEGRAL EVALUATION ----------------------------


 * One electron integrals 
 Pre-screening matrix                    ... done
 Shell pair data                         ... done (   0.002 sec)

-------------------------------------------------------------------------------
                                 ORCA SCF
-------------------------------------------------------------------------------

------------
SCF SETTINGS
------------
Hamiltonian:
 Density Functional     Method          .... DFT(GTOs)
 Exchange Functional    Exchange        .... B88
   X-Alpha parameter    XAlpha          ....  0.666667
   Becke's b parameter  XBeta           ....  0.004200
 Correlation Functional Correlation     .... LYP
 LDA part of GGA corr.  LDAOpt          .... VWN-5
 Gradients option       PostSCFGGA      .... off
 Hybrid DFT is turned on
   Fraction HF Exchange ScalHFX         ....  0.200000
   Scaling of DF-GGA-X  ScalDFX         ....  0.720000
   Scaling of DF-GGA-C  ScalDFC         ....  0.810000
   Scaling of DF-LDA-C  ScalLDAC        ....  1.000000
   Perturbative correction              ....  0.000000
   Density functional embedding theory  .... OFF
   NL short-range parameter             ....  4.800000


General Settings:
 Integral files         IntName         .... /Users/lailaal-madhagi/Desktop/Testing_XAS_Analysis_code/Anisole//Results_dir_Anisole_geom_element_C_2019-11-04_21-25-14//GTE1_Anisole_geom_2019-11-04_21-25-44//opt
 Hartree-Fock type      HFTyp           .... RHF
 Total Charge           Charge          ....    0
 Multiplicity           Mult            ....    1
 Number of Electrons    NEL             ....   58
 Basis Dimension        Dim             ....  128
 Nuclear Repulsion      ENuc            ....    343.1573488329 Eh

Convergence Acceleration:
 DIIS                   CNVDIIS         .... on
   Start iteration      DIISMaxIt       ....    12
   Startup error        DIISStart       ....  0.200000
   # of expansion vecs  DIISMaxEq       ....     5
   Bias factor          DIISBfac        ....   1.050
   Max. coefficient     DIISMaxC        ....  10.000
 Newton-Raphson         CNVNR           .... off
 SOSCF                  CNVSOSCF        .... on
   Start iteration      SOSCFMaxIt      ....   150
   Startup grad/error   SOSCFStart      ....  0.003300
 Level Shifting         CNVShift        .... on
   Level shift para.    LevelShift      ....    0.2500
   Turn off err/grad.   ShiftErr        ....    0.0010
 Zerner damping         CNVZerner       .... off
 Static damping         CNVDamp         .... on
   Fraction old density DampFac         ....    0.7000
   Max. Damping (<1)    DampMax         ....    0.9800
   Min. Damping (>=0)   DampMin         ....    0.0000
   Turn off err/grad.   DampErr         ....    0.1000
 Fernandez-Rico         CNVRico         .... off

SCF Procedure:
 Maximum # iterations   MaxIter         ....   125
 SCF integral mode      SCFMode         .... Direct
   Integral package                     .... LIBINT
 Reset frequency        DirectResetFreq ....    20
 Integral Threshold     Thresh          ....  2.500e-11 Eh
 Primitive CutOff       TCut            ....  2.500e-12 Eh

Convergence Tolerance:
 Convergence Check Mode ConvCheckMode   .... Total+1el-Energy
 Convergence forced     ConvForced      .... 0
 Energy Change          TolE            ....  1.000e-08 Eh
 1-El. energy change                    ....  1.000e-05 Eh
 Orbital Gradient       TolG            ....  1.000e-05
 Orbital Rotation angle TolX            ....  1.000e-05
 DIIS Error             TolErr          ....  5.000e-07


Diagonalization of the overlap matrix:
Smallest eigenvalue                        ... 5.188e-04
Time for diagonalization                   ...    0.002 sec
Threshold for overlap eigenvalues          ... 1.000e-08
Number of eigenvalues below threshold      ... 0
Time for construction of square roots      ...    0.001 sec
Total time needed                          ...    0.004 sec

-------------------
DFT GRID GENERATION
-------------------

General Integration Accuracy     IntAcc      ...  4.340
Radial Grid Type                 RadialGrid  ... Gauss-Chebyshev
Angular Grid (max. acc.)         AngularGrid ... Lebedev-194
Angular grid pruning method      GridPruning ... 3 (G Style)
Weight generation scheme         WeightScheme... Becke
Basis function cutoff            BFCut       ...    1.0000e-11
Integration weight cutoff        WCut        ...    1.0000e-14
Grids for H and He will be reduced by one unit

# of grid points (after initial pruning)     ...  38516 (   0.0 sec)
# of grid points (after weights+screening)   ...  35546 (   0.1 sec)
nearest neighbour list constructed           ...    0.0 sec
Grid point re-assignment to atoms done       ...    0.0 sec
Grid point division into batches done        ...    0.0 sec
Reduced shell lists constructed in    0.2 sec

Total number of grid points                  ...    35546
Total number of batches                      ...      564
Average number of points per batch           ...       63
Average number of grid points per atom       ...     2222
Average number of shells per batch           ...    43.64 (68.19%)
Average number of basis functions per batch  ...    89.56 (69.97%)
Average number of large shells per batch     ...    33.44 (76.63%)
Average number of large basis fcns per batch ...    69.10 (77.16%)
Maximum spatial batch extension              ...  19.54, 16.63, 22.19 au
Average spatial batch extension              ...   2.91,  3.07,  3.54 au

Time for grid setup =    0.338 sec

------------------------------
INITIAL GUESS: MODEL POTENTIAL
------------------------------
Loading Hartree-Fock densities                     ... done
Calculating cut-offs                               ... done
Setting up the integral package                    ... done
Initializing the effective Hamiltonian             ... done
Starting the Coulomb interaction                   ... done (   0.1 sec)
Reading the grid                                   ... done
Mapping shells                                     ... done
Starting the XC term evaluation                    ... done (   0.3 sec)
  promolecular density results
     # of electrons  =     57.994445513
     EX              =    -46.555964221
     EC              =     -1.937304342
     EX+EC           =    -48.493268563
Transforming the Hamiltonian                       ... done (   0.0 sec)
Diagonalizing the Hamiltonian                      ... done (   0.0 sec)
Back transforming the eigenvectors                 ... done (   0.0 sec)
Now organizing SCF variables                       ... done
                      ------------------
                      INITIAL GUESS DONE (   0.8 sec)
                      ------------------
--------------
SCF ITERATIONS
--------------
               ***  Starting incremental Fock matrix formation  ***

                         ----------------------------
                         !        ITERATION     0   !
                         ----------------------------
   Total Energy        :    -346.356897202515 Eh
   Energy Change       :    -346.356897202515 Eh
   MAX-DP              :       0.049602297714
   RMS-DP              :       0.002408209194
   Actual Damping      :       0.7000
   Actual Level Shift  :       0.2500 Eh
   Int. Num. El.       :    57.99908833 (UP=   28.99954417 DN=   28.99954417)
   Exchange            :   -38.16738972
   Correlation         :    -2.31342995


                         ----------------------------
                         !        ITERATION     1   !
                         ----------------------------
   Total Energy        :    -346.439431493155 Eh
   Energy Change       :      -0.082534290640 Eh
   MAX-DP              :       0.033762825860
   RMS-DP              :       0.001791968818
   Actual Damping      :       0.7000
   Actual Level Shift  :       0.2500 Eh
   Int. Num. El.       :    57.99898205 (UP=   28.99949103 DN=   28.99949103)
   Exchange            :   -37.92756004
   Correlation         :    -2.30347390

                               ***Turning on DIIS***

                         ----------------------------
                         !        ITERATION     2   !
                         ----------------------------
   Total Energy        :    -346.475839379543 Eh
   Energy Change       :      -0.036407886388 Eh
   MAX-DP              :       0.057544825912
   RMS-DP              :       0.003110524597
   Actual Damping      :       0.0000
   Actual Level Shift  :       0.2500 Eh
   Int. Num. El.       :    57.99891086 (UP=   28.99945543 DN=   28.99945543)
   Exchange            :   -37.76381359
   Correlation         :    -2.29633038
   DIIS-Error          :       0.031840890662


                         ----------------------------
                         !        ITERATION     3   !
                         ----------------------------
   Total Energy        :    -346.528157038674 Eh
   Energy Change       :      -0.052317659131 Eh
   MAX-DP              :       0.027634918136
   RMS-DP              :       0.001229663197
   Actual Damping      :       0.0000
   Actual Level Shift  :       0.2500 Eh
   Int. Num. El.       :    57.99880259 (UP=   28.99940130 DN=   28.99940130)
   Exchange            :   -37.50205439
   Correlation         :    -2.28451811
   DIIS-Error          :       0.043573985879
   DIIS coefficients:
      0.55468   0.44532


                         ----------------------------
                         !        ITERATION     4   !
                         ----------------------------
   Total Energy        :    -346.541177788087 Eh
   Energy Change       :      -0.013020749413 Eh
   MAX-DP              :       0.010188247466
   RMS-DP              :       0.000392402230
   Actual Damping      :       0.0000
   Actual Level Shift  :       0.2500 Eh
   Int. Num. El.       :    57.99884795 (UP=   28.99942398 DN=   28.99942398)
   Exchange            :   -37.59982518
   Correlation         :    -2.28927751
   DIIS-Error          :       0.008068171158
   DIIS coefficients:
      0.16701  -0.01470   0.84769


                         ----------------------------
                         !        ITERATION     5   !
                         ----------------------------
   Total Energy        :    -346.541831002122 Eh
   Energy Change       :      -0.000653214035 Eh
   MAX-DP              :       0.002975522907
   RMS-DP              :       0.000125613372
   Actual Damping      :       0.0000
   Actual Level Shift  :       0.2500 Eh
   Int. Num. El.       :    57.99885713 (UP=   28.99942856 DN=   28.99942856)
   Exchange            :   -37.62270761
   Correlation         :    -2.29046094
   DIIS-Error          :       0.003355695659
   DIIS coefficients:
      0.05022  -0.02722   0.24255   0.73444

                      *** Initiating the SOSCF procedure ***
                           *** Shutting down DIIS ***
                      *** Re-Reading the Fockian *** 
                      *** Removing any level shift *** 

                         ----------------------------
                         !        ITERATION     6   !
                         ----------------------------
   Total Energy        :    -346.541876081431 Eh
   Energy Change       :      -0.000045079309 Eh
   MAX-DP              :       0.001140738804
   RMS-DP              :       0.000051827021
   Orbital gradient    :       0.000270565451
   Orbital Rotation    :       0.000270565451
   Actual Damping      :       0.0000
   Int. Num. El.       :    57.99885989 (UP=   28.99942994 DN=   28.99942994)
   Exchange            :   -37.62842825
   Correlation         :    -2.29067677

               *** Restarting incremental Fock matrix formation ***

                         ----------------------------
                         !        ITERATION     7   !
                         ----------------------------
   Total Energy        :    -346.541877732253 Eh
   Energy Change       :      -0.000001650823 Eh
   MAX-DP              :       0.001096293082
   RMS-DP              :       0.000038311127
   Orbital gradient    :       0.000332216205
   Orbital Rotation    :       0.001446841319
   Actual Damping      :       0.0000
   Int. Num. El.       :    57.99885975 (UP=   28.99942988 DN=   28.99942988)
   Exchange            :   -37.62848341
   Correlation         :    -2.29069606


                         ----------------------------
                         !        ITERATION     8   !
                         ----------------------------
   Total Energy        :    -346.541874739715 Eh
   Energy Change       :       0.000002992538 Eh
   MAX-DP              :       0.000749719353
   RMS-DP              :       0.000024682603
   Orbital gradient    :       0.000664752194
   Orbital Rotation    :       0.000976865151
   Actual Damping      :       0.0000
   Int. Num. El.       :    57.99886056 (UP=   28.99943028 DN=   28.99943028)
   Exchange            :   -37.62907466
   Correlation         :    -2.29070658


                         ----------------------------
                         !        ITERATION     9   !
                         ----------------------------
   Total Energy        :    -346.541878827362 Eh
   Energy Change       :      -0.000004087648 Eh
   MAX-DP              :       0.000132255184
   RMS-DP              :       0.000003034795
   Orbital gradient    :       0.000029168964
   Orbital Rotation    :       0.000109282629
   Actual Damping      :       0.0000
   Int. Num. El.       :    57.99886001 (UP=   28.99943000 DN=   28.99943000)
   Exchange            :   -37.62862388
   Correlation         :    -2.29069719


                         ----------------------------
                         !        ITERATION    10   !
                         ----------------------------
   Total Energy        :    -346.541878811235 Eh
   Energy Change       :       0.000000016127 Eh
   MAX-DP              :       0.000079426631
   RMS-DP              :       0.000001864792
   Orbital gradient    :       0.000044879962
   Orbital Rotation    :       0.000067394771
   Actual Damping      :       0.0000
   Int. Num. El.       :    57.99886004 (UP=   28.99943002 DN=   28.99943002)
   Exchange            :   -37.62865897
   Correlation         :    -2.29069934


                         ----------------------------
                         !        ITERATION    11   !
                         ----------------------------
   Total Energy        :    -346.541878838572 Eh
   Energy Change       :      -0.000000027337 Eh
   MAX-DP              :       0.000013470492
   RMS-DP              :       0.000000365770
   Orbital gradient    :       0.000002960842
   Orbital Rotation    :       0.000004281824
   Actual Damping      :       0.0000
   Int. Num. El.       :    57.99886004 (UP=   28.99943002 DN=   28.99943002)
   Exchange            :   -37.62865816
   Correlation         :    -2.29069877


                         ----------------------------
                         !        ITERATION    12   !
                         ----------------------------
   Total Energy        :    -346.541878838215 Eh
   Energy Change       :       0.000000000357 Eh
   MAX-DP              :       0.000007626051
   RMS-DP              :       0.000000211338
   Orbital gradient    :       0.000004124614
   Orbital Rotation    :       0.000002809643
   Actual Damping      :       0.0000
   Int. Num. El.       :    57.99886002 (UP=   28.99943001 DN=   28.99943001)
   Exchange            :   -37.62863442
   Correlation         :    -2.29069791

                  ***Gradient check signals convergence***
              ***Rediagonalizing the Fockian in SOSCF/NRSCF***

               *****************************************************
               *                     SUCCESS                       *
               *           SCF CONVERGED AFTER  13 CYCLES          *
               *****************************************************

Setting up the final grid:

General Integration Accuracy     IntAcc      ...  5.010
Radial Grid Type                 RadialGrid  ... Gauss-Chebyshev
Angular Grid (max. acc.)         AngularGrid ... Lebedev-434
Angular grid pruning method      GridPruning ... 3 (G Style)
Weight generation scheme         WeightScheme... Becke
Basis function cutoff            BFCut       ...    1.0000e-11
Integration weight cutoff        WCut        ...    1.0000e-14
Grids for H and He will be reduced by one unit

# of grid points (after initial pruning)     ... 139264 (   0.1 sec)
# of grid points (after weights+screening)   ... 127401 (   0.2 sec)
nearest neighbour list constructed           ...    0.0 sec
Grid point re-assignment to atoms done       ...    0.0 sec
Grid point division into batches done        ...    0.7 sec
Reduced shell lists constructed in    1.4 sec

Total number of grid points                  ...   127401
Total number of batches                      ...     1998
Average number of points per batch           ...       63
Average number of grid points per atom       ...     7963
Average number of shells per batch           ...    40.21 (62.83%)
Average number of basis functions per batch  ...    82.12 (64.16%)
Average number of large shells per batch     ...    30.24 (75.21%)
Average number of large basis fcns per batch ...    62.25 (75.81%)
Maximum spatial batch extension              ...  20.71, 21.72, 16.18 au
Average spatial batch extension              ...   2.05,  2.10,  2.16 au

Final grid set up in    1.7 sec
Final integration                            ... done (   1.1 sec)
Change in XC energy                          ...    -0.000182366
Integrated number of electrons               ...    57.999952761
Previous integrated no of electrons          ...    57.998860029

----------------
TOTAL SCF ENERGY
----------------

Total Energy       :         -346.54206121 Eh           -9429.88889 eV

Components:
Nuclear Repulsion  :          343.15734883 Eh            9337.78619 eV
Electronic Energy  :         -689.69941004 Eh          -18767.67508 eV
One Electron Energy:        -1148.55959026 Eh          -31253.89537 eV
Two Electron Energy:          458.86018022 Eh           12486.22029 eV

Virial components:
Potential Energy   :         -691.03421800 Eh          -18803.99705 eV
Kinetic Energy     :          344.49215680 Eh            9374.10816 eV
Virial Ratio       :            2.00595051


DFT components:
N(Alpha)           :       28.999976380429 electrons
N(Beta)            :       28.999976380429 electrons
N(Total)           :       57.999952760859 electrons
E(X)               :      -37.628829185751 Eh       
E(C)               :       -2.290698215225 Eh       
E(XC)              :      -39.919527400976 Eh       
DFET-embed. en.    :        0.000000000000 Eh       

---------------
SCF CONVERGENCE
---------------

  Last Energy change         ...   -6.0129e-10  Tolerance :   1.0000e-08
  Last MAX-Density change    ...    9.5722e-07  Tolerance :   1.0000e-07
  Last RMS-Density change    ...    4.2623e-08  Tolerance :   5.0000e-09
  Last Orbital Gradient      ...    2.0980e-07  Tolerance :   1.0000e-05
  Last Orbital Rotation      ...    7.2425e-07  Tolerance :   1.0000e-05

             **** THE GBW FILE WAS UPDATED (/Users/lailaal-madhagi/Desktop/Testing_XAS_Analysis_code/Anisole//Results_dir_Anisole_geom_element_C_2019-11-04_21-25-14//GTE1_Anisole_geom_2019-11-04_21-25-44//opt.gbw) ****
             **** DENSITY FILE WAS UPDATED (/Users/lailaal-madhagi/Desktop/Testing_XAS_Analysis_code/Anisole//Results_dir_Anisole_geom_element_C_2019-11-04_21-25-14//GTE1_Anisole_geom_2019-11-04_21-25-44//opt.scfp.tmp) ****
             **** ENERGY FILE WAS UPDATED (/Users/lailaal-madhagi/Desktop/Testing_XAS_Analysis_code/Anisole//Results_dir_Anisole_geom_element_C_2019-11-04_21-25-14//GTE1_Anisole_geom_2019-11-04_21-25-44//opt.en.tmp) ****
----------------
ORBITAL ENERGIES
----------------

  NO   OCC          E(Eh)            E(eV) 
   0   2.0000     -19.161682      -521.4159 
   1   2.0000     -10.242273      -278.7064 
   2   2.0000     -10.233304      -278.4624 
   3   2.0000     -10.176280      -276.9106 
   4   2.0000     -10.175355      -276.8855 
   5   2.0000     -10.173386      -276.8319 
   6   2.0000     -10.169925      -276.7377 
   7   2.0000     -10.166307      -276.6393 
   8   2.0000      -1.060842       -28.8670 
   9   2.0000      -0.838916       -22.8281 
  10   2.0000      -0.753746       -20.5105 
  11   2.0000      -0.735162       -20.0048 
  12   2.0000      -0.685203       -18.6453 
  13   2.0000      -0.599581       -16.3154 
  14   2.0000      -0.582670       -15.8553 
  15   2.0000      -0.531913       -14.4741 
  16   2.0000      -0.479854       -13.0575 
  17   2.0000      -0.469673       -12.7805 
  18   2.0000      -0.462788       -12.5931 
  19   2.0000      -0.439476       -11.9587 
  20   2.0000      -0.417617       -11.3639 
  21   2.0000      -0.406153       -11.0520 
  22   2.0000      -0.369013       -10.0414 
  23   2.0000      -0.353889        -9.6298 
  24   2.0000      -0.348411        -9.4807 
  25   2.0000      -0.308775        -8.4022 
  26   2.0000      -0.307287        -8.3617 
  27   2.0000      -0.240703        -6.5498 
  28   2.0000      -0.207167        -5.6373 
  29   0.0000       0.007703         0.2096 
  30   0.0000       0.022512         0.6126 
  31   0.0000       0.093019         2.5312 
  32   0.0000       0.112005         3.0478 
  33   0.0000       0.137007         3.7282 
  34   0.0000       0.143654         3.9090 
  35   0.0000       0.158992         4.3264 
  36   0.0000       0.160526         4.3681 
  37   0.0000       0.175482         4.7751 
  38   0.0000       0.181260         4.9323 
  39   0.0000       0.197643         5.3782 
  40   0.0000       0.228614         6.2209 
  41   0.0000       0.267677         7.2839 
  42   0.0000       0.314284         8.5521 
  43   0.0000       0.319189         8.6856 
  44   0.0000       0.348048         9.4709 
  45   0.0000       0.366849         9.9825 
  46   0.0000       0.471105        12.8194 
  47   0.0000       0.505660        13.7597 
  48   0.0000       0.511561        13.9203 
  49   0.0000       0.533724        14.5234 
  50   0.0000       0.552781        15.0419 
  51   0.0000       0.563151        15.3241 
  52   0.0000       0.580083        15.7849 
  53   0.0000       0.589336        16.0366 
  54   0.0000       0.609589        16.5878 
  55   0.0000       0.611170        16.6308 
  56   0.0000       0.628029        17.0895 
  57   0.0000       0.633788        17.2462 
  58   0.0000       0.633789        17.2463 
  59   0.0000       0.646214        17.5844 
  60   0.0000       0.676941        18.4205 
  61   0.0000       0.709178        19.2977 
  62   0.0000       0.722342        19.6559 
  63   0.0000       0.771723        20.9997 
  64   0.0000       0.819191        22.2913 
  65   0.0000       0.836486        22.7619 
  66   0.0000       0.838183        22.8081 
  67   0.0000       0.854445        23.2506 
  68   0.0000       0.859702        23.3937 
  69   0.0000       0.878857        23.9149 
  70   0.0000       0.918384        24.9905 
  71   0.0000       0.923488        25.1294 
  72   0.0000       0.948802        25.8182 
  73   0.0000       0.954229        25.9659 
  74   0.0000       0.964012        26.2321 
  75   0.0000       1.016110        27.6497 
  76   0.0000       1.038908        28.2701 
  77   0.0000       1.075655        29.2700 
  78   0.0000       1.105728        30.0884 
  79   0.0000       1.142615        31.0921 
  80   0.0000       1.172523        31.9060 
  81   0.0000       1.193595        32.4794 
  82   0.0000       1.260420        34.2978 
  83   0.0000       1.310956        35.6729 
  84   0.0000       1.333495        36.2862 
  85   0.0000       1.372580        37.3498 
  86   0.0000       1.441945        39.2373 
  87   0.0000       1.445090        39.3229 
  88   0.0000       1.463338        39.8195 
  89   0.0000       1.474916        40.1345 
  90   0.0000       1.504996        40.9530 
  91   0.0000       1.521017        41.3890 
  92   0.0000       1.602675        43.6110 
  93   0.0000       1.735205        47.2173 
  94   0.0000       1.760533        47.9065 
  95   0.0000       1.817128        49.4466 
  96   0.0000       1.834329        49.9146 
  97   0.0000       1.856948        50.5301 
  98   0.0000       1.915191        52.1150 
  99   0.0000       1.934731        52.6467 
 100   0.0000       1.984104        53.9902 
 101   0.0000       1.990454        54.1630 
 102   0.0000       2.017678        54.9038 
 103   0.0000       2.076406        56.5019 
 104   0.0000       2.092617        56.9430 
 105   0.0000       2.101153        57.1753 
 106   0.0000       2.151401        58.5426 
 107   0.0000       2.155387        58.6511 
 108   0.0000       2.169142        59.0254 
 109   0.0000       2.248708        61.1905 
 110   0.0000       2.258793        61.4649 
 111   0.0000       2.267442        61.7002 
 112   0.0000       2.294078        62.4250 
 113   0.0000       2.314742        62.9873 
 114   0.0000       2.383477        64.8577 
 115   0.0000       2.536736        69.0281 
 116   0.0000       2.559446        69.6461 
 117   0.0000       2.587332        70.4049 
 118   0.0000       2.609296        71.0025 
 119   0.0000       2.672372        72.7190 
 120   0.0000       2.694476        73.3204 
 121   0.0000       2.736099        74.4530 
 122   0.0000       2.751266        74.8657 
 123   0.0000       2.771620        75.4196 
 124   0.0000       2.904155        79.0261 
 125   0.0000       3.010813        81.9284 
 126   0.0000       3.239217        88.1436 
 127   0.0000       3.424232        93.1781 
------------------
MOLECULAR ORBITALS
------------------
                      0         1         2         3         4         5   
                 -19.16168 -10.24227 -10.23330 -10.17628 -10.17535 -10.17339
                   2.00000   2.00000   2.00000   2.00000   2.00000   2.00000
                  --------  --------  --------  --------  --------  --------
  0C   1s         0.000028  0.000009  0.000060 -0.003975  0.994055  0.004242
  0C   2s         0.000087  0.000041  0.000264 -0.000077  0.036339 -0.000369
  0C   1pz       -0.000000 -0.000001 -0.000002 -0.000006 -0.000010  0.000001
  0C   1px       -0.000245  0.000369 -0.000137 -0.000015  0.000480 -0.000109
  0C   1py        0.000073 -0.000157 -0.000067 -0.000273 -0.000646  0.000083
  0C   3s        -0.007407  0.010077 -0.003612  0.005002 -0.031996  0.004664
  0C   2pz        0.000029 -0.000036  0.000042 -0.000032  0.000093 -0.000038
  0C   2px       -0.002418  0.003507 -0.001128  0.001524 -0.004043  0.001946
  0C   2py        0.002185 -0.002834  0.002412 -0.002042  0.005851 -0.002464
  0C   1dz2       0.000008  0.000066  0.000063  0.000046 -0.000572 -0.000094
  0C   1dxz       0.000000 -0.000001 -0.000001 -0.000001  0.000015  0.000001
  0C   1dyz       0.000000 -0.000004 -0.000001  0.000000  0.000020  0.000004
  0C   1dx2y2    -0.000026  0.000063 -0.000047 -0.000079  0.000102 -0.000010
  0C   1dxy       0.000025 -0.000015  0.000007  0.000021  0.000387  0.000023
  1C   1s        -0.000069 -0.002736 -0.000120  0.001206  0.039296 -0.000038
  1C   2s        -0.000638  0.002057 -0.000603  0.000575 -0.000737 -0.000078
  1C   1pz        0.000001 -0.000016  0.000000 -0.000004  0.000011  0.000004
  1C   1px        0.000085  0.000595  0.000254 -0.000059  0.001321 -0.000026
  1C   1py        0.000041 -0.000969 -0.000071 -0.000169  0.000143  0.000223
  1C   3s         0.009575 -0.016276  0.010016 -0.003799  0.012630 -0.004425
  1C   2pz       -0.000170  0.000232 -0.000098  0.000057 -0.000112  0.000053
  1C   2px       -0.004489  0.004937  0.000848  0.001322 -0.003890  0.001419
  1C   2py       -0.007011  0.009930 -0.005134  0.002416 -0.004345  0.002161
  1C   1dz2      -0.000149 -0.000496 -0.000181  0.000090  0.000580 -0.000067
  1C   1dxz       0.000004 -0.000017 -0.000000 -0.000001 -0.000016  0.000002
  1C   1dyz       0.000012  0.000012  0.000006 -0.000003  0.000001  0.000001
  1C   1dx2y2    -0.000257 -0.000046  0.000002 -0.000017 -0.001120  0.000061
  1C   1dxy       0.000184 -0.001079 -0.000100  0.000002 -0.000164  0.000035
  2C   1s        -0.000045  0.000228 -0.000041 -0.021772  0.023951 -0.002215
  2C   2s        -0.000381  0.000793 -0.000144  0.001330 -0.001241  0.000076
  2C   1pz       -0.000001  0.000002  0.000002 -0.000016 -0.000028 -0.000000
  2C   1px       -0.000103  0.000218 -0.000061  0.000810 -0.000560 -0.000154
  2C   1py       -0.000010  0.000053  0.000123 -0.001041 -0.001188  0.000044
  2C   3s         0.004262 -0.007448  0.001145 -0.012156  0.012319 -0.006302
  2C   2pz        0.000031 -0.000034  0.000028 -0.000001  0.000095 -0.000018
  2C   2px        0.003041 -0.005139  0.000917 -0.005817  0.005391 -0.003296
  2C   2py        0.000611 -0.000093  0.001113  0.001743  0.003051  0.000100
  2C   1dz2      -0.000072  0.000150 -0.000031 -0.000598  0.000596 -0.000091
  2C   1dxz       0.000001 -0.000001  0.000001 -0.000018 -0.000017  0.000000
  2C   1dyz       0.000003 -0.000006  0.000002  0.000024 -0.000043  0.000004
  2C   1dx2y2    -0.000041  0.000062 -0.000029 -0.000448  0.000833 -0.000060
  2C   1dxy       0.000000  0.000029  0.000051 -0.001048 -0.000780 -0.000013
  3C   1s         0.000028 -0.000008 -0.000052 -0.992203 -0.004113 -0.073171
  3C   2s         0.000102 -0.000034 -0.000150 -0.036174 -0.000205 -0.004798
  3C   1pz       -0.000004  0.000006 -0.000002 -0.000016 -0.000005 -0.000013
  3C   1px       -0.000200  0.000389  0.000023 -0.000303  0.000085 -0.001307
  3C   1py       -0.000142  0.000181 -0.000130 -0.000701 -0.000270 -0.000249
  3C   3s        -0.007746  0.010265 -0.001304  0.031372 -0.004841  0.015398
  3C   2pz       -0.000063  0.000112  0.000025  0.000142 -0.000053  0.000130
  3C   2px       -0.002595  0.002262 -0.000959  0.002619 -0.001121  0.004527
  3C   2py       -0.002345  0.004863  0.001538  0.006199 -0.002293  0.005022
  3C   1dz2       0.000006  0.000042 -0.000047  0.000552 -0.000041  0.000644
  3C   1dxz      -0.000001  0.000001  0.000001 -0.000001  0.000002 -0.000016
  3C   1dyz      -0.000000 -0.000003  0.000001 -0.000013  0.000000  0.000000
  3C   1dx2y2    -0.000010  0.000076  0.000024 -0.000213  0.000067 -0.001150
  3C   1dxy      -0.000060  0.000060  0.000041  0.000320  0.000058 -0.000108
  4C   1s         0.000146 -0.995173  0.000422  0.000152 -0.000049 -0.002781
  4C   2s         0.001283 -0.037644 -0.000347  0.000184 -0.000104 -0.002144
  4C   1pz        0.000002 -0.000014  0.000007 -0.000005 -0.000001  0.000027
  4C   1px        0.000171 -0.001496 -0.000332 -0.000167  0.000162  0.000530
  4C   1py        0.000040 -0.000227  0.000434 -0.000190 -0.000123  0.001154
  4C   3s        -0.000797  0.029745 -0.000313  0.004803 -0.005531  0.013178
  4C   2pz        0.000123 -0.000258 -0.000158 -0.000024 -0.000006 -0.000114
  4C   2px        0.017608 -0.020936  0.005404 -0.001636  0.002060 -0.005000
  4C   2py        0.000688 -0.006343 -0.009410 -0.000666 -0.000904 -0.004128
  4C   1dz2      -0.000102  0.001376 -0.000225 -0.000050  0.000030  0.000642
  4C   1dxz      -0.000003 -0.000029  0.000011  0.000004  0.000001 -0.000018
  4C   1dyz       0.000003 -0.000030  0.000009  0.000003  0.000002 -0.000045
  4C   1dx2y2    -0.000051 -0.001028  0.000081  0.000009 -0.000098  0.000848
  4C   1dxy      -0.000180 -0.000384  0.000403  0.000175  0.000096 -0.000831
  5C   1s        -0.000051 -0.002588 -0.000076 -0.073013 -0.004603  0.992443
  5C   2s        -0.000451  0.002222  0.000084 -0.000527 -0.000661  0.036603
  5C   1pz        0.000000  0.000023 -0.000001 -0.000011 -0.000003  0.000010
  5C   1px        0.000146  0.000258 -0.000177 -0.001293  0.000074 -0.000519
  5C   1py       -0.000040  0.001063  0.000001 -0.000144 -0.000151  0.000652
  5C   3s         0.008010 -0.020802 -0.003796 -0.010986  0.003623 -0.034040
  5C   2pz        0.000065 -0.000212 -0.000089 -0.000031  0.000030 -0.000097
  5C   2px       -0.007305  0.005060 -0.003322  0.004643 -0.001878  0.003936
  5C   2py        0.005433 -0.012016 -0.003447 -0.002956  0.002046 -0.005978
  5C   1dz2      -0.000119 -0.000440  0.000120 -0.000561 -0.000087 -0.000633
  5C   1dxz      -0.000007  0.000019 -0.000006  0.000019  0.000001  0.000016
  5C   1dyz       0.000007  0.000032 -0.000004 -0.000001  0.000003  0.000021
  5C   1dx2y2    -0.000215 -0.000549 -0.000061  0.001091  0.000015  0.000172
  5C   1dxy      -0.000320  0.000861 -0.000232  0.000295  0.000008  0.000401
  6O   1s         0.995194 -0.000216  0.000131  0.000007 -0.000007  0.000002
  6O   2s         0.031109 -0.002147  0.000885  0.000110 -0.000111 -0.000111
  6O   1pz       -0.000036 -0.000004 -0.000002 -0.000001 -0.000001  0.000000
  6O   1px       -0.000628 -0.000019 -0.000207 -0.000046  0.000066  0.000080
  6O   1py       -0.001581 -0.000185 -0.000021 -0.000015 -0.000047 -0.000010
  6O   3s        -0.026651  0.011011 -0.002912 -0.000117  0.000222  0.000259
  6O   2pz        0.000111 -0.000057  0.000065  0.000005  0.000003  0.000011
  6O   2px        0.004576 -0.008658 -0.001301  0.000525 -0.000683 -0.000171
  6O   2py        0.004005 -0.000197  0.003570  0.000075  0.000338  0.000594
  6O   1dz2       0.000433 -0.001323  0.001170  0.000049 -0.000022 -0.000080
  6O   1dxz      -0.000008  0.000042  0.000019 -0.000002  0.000001 -0.000002
  6O   1dyz      -0.000007  0.000010 -0.000029 -0.000001 -0.000000  0.000003
  6O   1dx2y2    -0.000402  0.002025 -0.000174 -0.000064  0.000068 -0.000028
  6O   1dxy      -0.000032  0.000768  0.001562 -0.000042  0.000031 -0.000115
  7C   1s         0.000011  0.000523  0.995219 -0.000032 -0.000015  0.000100
  7C   2s        -0.000179  0.000356  0.036842  0.000130  0.000043 -0.000323
  7C   1pz        0.000003 -0.000002  0.000015 -0.000001  0.000001  0.000002
  7C   1px       -0.000630 -0.000214 -0.001679 -0.000030 -0.000046  0.000065
  7C   1py        0.000336 -0.000013  0.001230 -0.000025  0.000058  0.000056
  7C   3s         0.005237  0.001406 -0.024343 -0.000441  0.000315  0.001263
  7C   2pz        0.000005  0.000053  0.000033 -0.000001  0.000003 -0.000011
  7C   2px       -0.001580  0.000378 -0.001146  0.000214 -0.000046 -0.000526
  7C   2py        0.000683  0.002424  0.001888 -0.000104  0.000144 -0.000343
  7C   1dz2       0.000168  0.000220 -0.000423  0.000032 -0.000013 -0.000044
  7C   1dxz       0.000005 -0.000004 -0.000013 -0.000000 -0.000001  0.000001
  7C   1dyz      -0.000008 -0.000007  0.000007 -0.000001  0.000001  0.000002
  7C   1dx2y2     0.000193 -0.000077  0.000131  0.000004 -0.000014 -0.000002
  7C   1dxy       0.000268 -0.000059 -0.000897  0.000007 -0.000033  0.000009
  8H   1s        -0.000370 -0.000188 -0.000712  0.000012 -0.000012 -0.000039
  8H   2s        -0.000443 -0.000365  0.005111  0.000027 -0.000047  0.000019
  9H   1s        -0.000370 -0.000188 -0.000712  0.000012 -0.000012 -0.000039
  9H   2s        -0.000443 -0.000364  0.005111  0.000027 -0.000047  0.000018
 10H   1s        -0.000390  0.000127 -0.000727  0.000033 -0.000007 -0.000088
 10H   2s        -0.001021  0.001557  0.006010 -0.000022  0.000001 -0.000867
 11H   1s        -0.000014  0.000034 -0.000100  0.000059 -0.001387  0.000085
 11H   2s        -0.000451  0.000501 -0.000640  0.000331  0.002724  0.000895
 12H   1s         0.000328 -0.000204  0.000078 -0.000094 -0.000215 -0.000077
 12H   2s         0.002568 -0.003088  0.000997 -0.000814  0.001241 -0.000350
 13H   1s         0.000117 -0.000167  0.000050  0.000163 -0.000165 -0.000048
 13H   2s         0.000831 -0.001433  0.000306 -0.001273  0.001286 -0.000520
 14H   1s         0.000015  0.000113  0.000123  0.001375 -0.000049 -0.000012
 14H   2s        -0.000477  0.000887  0.000610 -0.002814 -0.000373  0.001011
 15H   1s         0.000436 -0.000130  0.000185  0.000262  0.000107 -0.001372
 15H   2s         0.003040 -0.003928 -0.001237 -0.001257  0.000814  0.003180
                      6         7         8         9        10        11   
                 -10.16992 -10.16631  -1.06084  -0.83892  -0.75375  -0.73516
                   2.00000   2.00000   2.00000   2.00000   2.00000   2.00000
                  --------  --------  --------  --------  --------  --------
  0C   1s        -0.039415  0.024286  0.002430 -0.091653 -0.039443 -0.123676
  0C   2s        -0.003587  0.003034 -0.004744  0.174197  0.075267  0.241644
  0C   1pz       -0.000009 -0.000028  0.000007 -0.000726 -0.001352  0.000253
  0C   1px       -0.001348 -0.000495 -0.004008  0.035718 -0.050162  0.037207
  0C   1py       -0.000050 -0.001246  0.001563 -0.046747 -0.051447  0.001180
  0C   3s         0.014292 -0.014484 -0.030319  0.109704  0.054429  0.178244
  0C   2pz       -0.000045  0.000117 -0.000058 -0.000056 -0.000237  0.000235
  0C   2px        0.005377 -0.001855 -0.011311  0.003471 -0.009936 -0.000052
  0C   2py       -0.003878  0.006349  0.000550 -0.003860 -0.008790  0.011617
  0C   1dz2       0.000636 -0.000638  0.000324 -0.008856 -0.003216 -0.009416
  0C   1dxz      -0.000021  0.000022 -0.000004  0.000092  0.000033  0.000110
  0C   1dyz      -0.000002  0.000042 -0.000002  0.000308  0.000255  0.000271
  0C   1dx2y2    -0.001113 -0.000688 -0.000410  0.000088 -0.006468  0.002778
  0C   1dxy      -0.000363  0.000941  0.000104 -0.000188  0.001884 -0.000376
  1C   1s         0.994350 -0.001656  0.013896 -0.093320  0.057927 -0.094535
  1C   2s         0.036623 -0.000121 -0.028065  0.176012 -0.113898  0.183805
  1C   1pz       -0.000020 -0.000003  0.000164 -0.001277  0.000267 -0.000150
  1C   1px       -0.000352 -0.000156 -0.015816 -0.022562 -0.073164 -0.074214
  1C   1py       -0.000889 -0.000117  0.012892 -0.056121  0.035557  0.015414
  1C   3s        -0.033567  0.006099  0.015594  0.115995 -0.086072  0.140090
  1C   2pz        0.000156 -0.000069 -0.000558 -0.000109 -0.000197  0.000130
  1C   2px        0.002514 -0.001704 -0.029197  0.000427 -0.021301 -0.007278
  1C   2py        0.006943 -0.002873 -0.018625 -0.005553 -0.003106  0.008285
  1C   1dz2      -0.000636  0.000067  0.002014 -0.008994  0.004500 -0.007295
  1C   1dxz       0.000002  0.000000  0.000037  0.000097  0.000084  0.000196
  1C   1dyz       0.000013 -0.000002 -0.000027  0.000320 -0.000190  0.000171
  1C   1dx2y2     0.000350  0.000007 -0.001165 -0.000236  0.003307  0.005407
  1C   1dxy      -0.000325  0.000054  0.003236  0.000050  0.005548  0.004126
  2C   1s        -0.002551 -0.994602  0.001209 -0.090113 -0.097090 -0.033228
  2C   2s        -0.000028 -0.036615 -0.003612  0.169718  0.187258  0.064554
  2C   1pz       -0.000004 -0.000008 -0.000020  0.000491 -0.000160  0.002116
  2C   1px       -0.000170 -0.000903 -0.002260  0.058256  0.029847 -0.004494
  2C   1py       -0.000121 -0.000101 -0.000274  0.006451 -0.017060  0.105861
  2C   3s        -0.005910  0.033469  0.005727  0.108301  0.135641  0.046637
  2C   2pz       -0.000031  0.000063  0.000075  0.000078 -0.000141  0.000361
  2C   2px       -0.002953  0.007586  0.009671  0.007696 -0.003055 -0.004253
  2C   2py       -0.000639  0.000788  0.000738  0.001336 -0.006044  0.019363
  2C   1dz2      -0.000080  0.000655  0.000016 -0.008797 -0.007796 -0.002522
  2C   1dxz      -0.000000 -0.000002 -0.000002  0.000097  0.000041  0.000201
  2C   1dyz       0.000003 -0.000032  0.000002  0.000306  0.000264  0.000189
  2C   1dx2y2    -0.000033  0.000467 -0.000140  0.000157 -0.000190 -0.002131
  2C   1dxy      -0.000040  0.000095 -0.000043  0.000095 -0.002038  0.009282
  3C   1s         0.001290  0.021948  0.002467 -0.091346 -0.083060  0.089454
  3C   2s        -0.000483  0.002942 -0.004675  0.173292  0.160218 -0.175026
  3C   1pz       -0.000003  0.000018 -0.000069  0.001214  0.000572 -0.000068
  3C   1px       -0.000087 -0.000743 -0.003692  0.024719 -0.031212 -0.079183
  3C   1py       -0.000124  0.001110 -0.002273  0.052364  0.037792  0.020969
  3C   3s         0.004445 -0.014330 -0.031182  0.110671  0.120498 -0.131771
  3C   2pz        0.000065 -0.000136 -0.000155  0.000151 -0.000046  0.000213
  3C   2px        0.001281 -0.000418 -0.011084  0.002611 -0.002123 -0.012767
  3C   2py        0.002817 -0.006590 -0.004278  0.006760 -0.001683  0.014128
  3C   1dz2      -0.000096 -0.000636  0.000365 -0.008858 -0.006810  0.006835
  3C   1dxz       0.000001 -0.000018 -0.000012  0.000098 -0.000006 -0.000196
  3C   1dyz       0.000003  0.000020 -0.000007  0.000312  0.000276 -0.000151
  3C   1dx2y2     0.000002 -0.000245 -0.000386 -0.000039 -0.002820 -0.005663
  3C   1dxy      -0.000021 -0.001138 -0.000288  0.000158 -0.003078 -0.004317
  4C   1s        -0.002922 -0.000070  0.074110 -0.088230  0.105045  0.030048
  4C   2s        -0.002259  0.000641 -0.137184  0.173147 -0.213692 -0.060949
  4C   1pz       -0.000017 -0.000001 -0.000909 -0.000500 -0.001418  0.002414
  4C   1px        0.000811 -0.000106 -0.106196 -0.076570 -0.035967 -0.007369
  4C   1py       -0.001084 -0.000009 -0.012543 -0.001480 -0.058712  0.121523
  4C   3s         0.013717 -0.005002 -0.041807  0.101449 -0.143845 -0.040647
  4C   2pz        0.000018  0.000037  0.000625 -0.000418  0.000252  0.000377
  4C   2px       -0.005747  0.003843  0.065001 -0.027559  0.008127  0.002942
  4C   2py        0.002651  0.000641  0.011079 -0.011974  0.009884  0.018105
  4C   1dz2       0.000634  0.000062  0.010327 -0.007266  0.008770  0.002059
  4C   1dxz       0.000018  0.000000 -0.000267  0.000056 -0.000162 -0.000191
  4C   1dyz      -0.000025 -0.000003 -0.000076  0.000333 -0.000265 -0.000186
  4C   1dx2y2     0.000460  0.000054 -0.015094 -0.003815 -0.002890  0.002777
  4C   1dxy       0.001061  0.000024 -0.003143  0.000101 -0.002448 -0.009211
  5C   1s         0.000299 -0.000754  0.013842 -0.090745 -0.001519  0.125186
  5C   2s        -0.000069 -0.000104 -0.028173  0.171602  0.001214 -0.243822
  5C   1pz       -0.000004  0.000001 -0.000393  0.000722 -0.001414  0.000255
  5C   1px        0.000023 -0.000184 -0.012552 -0.036458 -0.069150  0.032494
  5C   1py       -0.000218  0.000091 -0.015613  0.046783 -0.048741  0.002738
  5C   3s        -0.004499  0.006254  0.020005  0.102504  0.011589 -0.183587
  5C   2pz       -0.000030  0.000039  0.000120 -0.000051  0.000107  0.000160
  5C   2px        0.001569 -0.002057 -0.031836 -0.003629 -0.005693 -0.008378
  5C   2py       -0.001967  0.002561  0.015640 -0.001520  0.007180  0.010461
  5C   1dz2      -0.000074  0.000062  0.002014 -0.008713 -0.000326  0.009604
  5C   1dxz       0.000001 -0.000001 -0.000087  0.000084 -0.000028 -0.000114
  5C   1dyz       0.000001 -0.000003 -0.000101  0.000308 -0.000140 -0.000293
  5C   1dx2y2     0.000063  0.000031  0.000457 -0.000244  0.006385 -0.002094
  5C   1dxy      -0.000010 -0.000048 -0.003360 -0.000369 -0.003516  0.000061
  6O   1s        -0.000002  0.000011  0.200821  0.027423 -0.000125 -0.008644
  6O   2s        -0.000182  0.000178 -0.436487 -0.064698  0.001206  0.020022
  6O   1pz        0.000000  0.000000  0.001973  0.000113 -0.000098  0.000514
  6O   1px        0.000085 -0.000024  0.029444 -0.073287  0.219797  0.038466
  6O   1py       -0.000004  0.000012  0.086768  0.027183 -0.069830  0.014056
  6O   3s         0.000383 -0.001171 -0.461662 -0.058801 -0.004140  0.022747
  6O   2pz       -0.000002  0.000002  0.001130  0.000024 -0.000074  0.000253
  6O   2px        0.000052  0.000474  0.031382 -0.039781  0.096154  0.019883
  6O   2py       -0.000111 -0.000044  0.045292  0.012840 -0.032103  0.006474
  6O   1dz2      -0.000092 -0.000006  0.011160 -0.000023 -0.000179  0.000334
  6O   1dxz      -0.000001 -0.000000 -0.000093  0.000114 -0.000248 -0.000093
  6O   1dyz       0.000005  0.000000 -0.000236 -0.000034  0.000086 -0.000051
  6O   1dx2y2    -0.000101 -0.000015 -0.006956  0.003019 -0.006828  0.000569
  6O   1dxy      -0.000052 -0.000012  0.003302  0.004622 -0.010066 -0.004542
  7C   1s         0.000011 -0.000015  0.067831  0.036425 -0.110864 -0.016051
  7C   2s        -0.000150  0.000087 -0.127164 -0.071637  0.220877  0.032298
  7C   1pz       -0.000000 -0.000000 -0.000783 -0.000405  0.000642  0.000301
  7C   1px        0.000042 -0.000008  0.077921  0.021723 -0.021612  0.001402
  7C   1py       -0.000014 -0.000002 -0.060832 -0.025979  0.037356  0.014205
  7C   3s         0.000364 -0.000399 -0.052220 -0.045134  0.177869  0.026013
  7C   2pz       -0.000003  0.000001 -0.000021  0.000081 -0.000094  0.000007
  7C   2px       -0.000288  0.000176 -0.001833 -0.001084  0.006082  0.004016
  7C   2py       -0.000082 -0.000027 -0.000587  0.004051 -0.006046 -0.000605
  7C   1dz2      -0.000010  0.000007  0.009076  0.002319 -0.002444  0.000103
  7C   1dxz       0.000001 -0.000000  0.000185  0.000065 -0.000090 -0.000033
  7C   1dyz       0.000000 -0.000000 -0.000163 -0.000059  0.000101  0.000009
  7C   1dx2y2     0.000013 -0.000005 -0.003532  0.000101 -0.002095 -0.001005
  7C   1dxy       0.000037  0.000002  0.014616  0.004279 -0.004973 -0.001257
  8H   1s        -0.000010  0.000023 -0.020316 -0.017539  0.066296  0.011131
  8H   2s         0.000036 -0.000015 -0.000066 -0.002795  0.013580  0.002689
  9H   1s        -0.000010  0.000023 -0.020316 -0.017540  0.066296  0.011133
  9H   2s         0.000036 -0.000015 -0.000061 -0.002790  0.013570  0.002685
 10H   1s        -0.000043  0.000009 -0.021533 -0.013829  0.060451  0.002809
 10H   2s        -0.000067  0.000131 -0.001904  0.003267  0.006855 -0.005453
 11H   1s        -0.000060  0.000106 -0.000105  0.035023  0.021178  0.074486
 11H   2s         0.001179 -0.001170  0.000645  0.003880  0.005270  0.014721
 12H   1s        -0.001320  0.000087 -0.003914  0.034837 -0.035599  0.056736
 12H   2s         0.002770  0.000508  0.008336  0.002398 -0.002913  0.011569
 13H   1s        -0.000045  0.001361  0.000280  0.033933  0.052512  0.019514
 13H   2s        -0.000442 -0.002654  0.003554  0.004758  0.009533  0.003868
 14H   1s         0.000094  0.000108 -0.000172  0.035206  0.045972 -0.054565
 14H   2s         0.000903 -0.001170  0.000095  0.004809  0.008974 -0.010601
 15H   1s        -0.000059  0.000077 -0.004192  0.034619  0.003366 -0.078690
 15H   2s        -0.000385  0.000466  0.009339  0.000745  0.009419 -0.014196
                     12        13        14        15        16        17   
                  -0.68520  -0.59958  -0.58267  -0.53191  -0.47985  -0.46967
                   2.00000   2.00000   2.00000   2.00000   2.00000   2.00000
                  --------  --------  --------  --------  --------  --------
  0C   1s        -0.001997  0.083914  0.054778 -0.029931 -0.051770  0.001459
  0C   2s         0.004228 -0.170639 -0.111512  0.063310  0.104996 -0.002599
  0C   1pz       -0.001783  0.001091 -0.003047  0.002280 -0.000925 -0.002470
  0C   1px       -0.093213  0.118672 -0.080941 -0.064241  0.020112 -0.179052
  0C   1py       -0.059598  0.017650 -0.125795  0.132228 -0.051916 -0.067719
  0C   3s         0.014646 -0.126757 -0.089068  0.062419  0.125236 -0.006864
  0C   2pz       -0.000260  0.000042 -0.001202  0.000841  0.000022 -0.000458
  0C   2px       -0.012044  0.052862 -0.015276 -0.027913  0.021634 -0.050702
  0C   2py       -0.009341 -0.014111 -0.054875  0.050052 -0.005192 -0.007377
  0C   1dz2      -0.000237  0.003992  0.002580 -0.001807 -0.001241 -0.000303
  0C   1dxz       0.000023  0.000046  0.000038  0.000005 -0.000204  0.000003
  0C   1dyz       0.000181 -0.000243  0.000024  0.000062  0.000086  0.000069
  0C   1dx2y2    -0.007526  0.005904 -0.004244 -0.000122 -0.004924 -0.002644
  0C   1dxy       0.003302  0.002597  0.004547 -0.000652 -0.009224  0.000741
  1C   1s         0.075213 -0.087384  0.030924 -0.000805  0.052113  0.013751
  1C   2s        -0.146582  0.176135 -0.062543  0.004911 -0.104907 -0.030680
  1C   1pz        0.000564  0.000889 -0.001421  0.003027 -0.003235 -0.000110
  1C   1px        0.008979  0.111487  0.134244  0.007150 -0.109735  0.171684
  1C   1py        0.025001  0.009956 -0.111284  0.147320 -0.126331 -0.059114
  1C   3s        -0.115677  0.144072 -0.048490  0.003207 -0.150752 -0.003970
  1C   2pz       -0.000030  0.000869 -0.000579  0.001064 -0.000913 -0.000326
  1C   2px        0.011973  0.053790  0.022956  0.000865 -0.010740  0.072456
  1C   2py       -0.005064  0.026307 -0.035287  0.051869 -0.041776 -0.038442
  1C   1dz2       0.004750 -0.004324  0.001678 -0.000617  0.002644 -0.000165
  1C   1dxz      -0.000030  0.000016 -0.000168  0.000033 -0.000037 -0.000088
  1C   1dyz      -0.000253  0.000269  0.000007 -0.000079 -0.000314  0.000018
  1C   1dx2y2     0.004219 -0.005750 -0.005033  0.004885  0.009914 -0.001836
  1C   1dxy      -0.000263  0.000242 -0.005887 -0.000177 -0.003436 -0.003906
  2C   1s        -0.095685  0.013635 -0.083446  0.013833  0.049579 -0.012977
  2C   2s         0.189104 -0.027740  0.169818 -0.027152 -0.101122  0.025773
  2C   1pz       -0.000592 -0.003586 -0.000753 -0.000527  0.003060  0.002857
  2C   1px       -0.007219  0.029078 -0.049240 -0.084548  0.253182 -0.087387
  2C   1py       -0.027096 -0.186092 -0.022196 -0.000211  0.073895  0.167576
  2C   3s         0.144684 -0.020339  0.118562 -0.003105 -0.106213  0.035534
  2C   2pz       -0.000194 -0.000770 -0.000523 -0.000220  0.001123  0.001203
  2C   2px       -0.019682  0.013459 -0.046664 -0.019786  0.088385 -0.024264
  2C   2py       -0.003443 -0.042134 -0.011250 -0.004759  0.027768  0.066709
  2C   1dz2      -0.006254  0.000640 -0.003584 -0.000066  0.003072 -0.000910
  2C   1dxz       0.000031 -0.000168  0.000084 -0.000042 -0.000122  0.000087
  2C   1dyz       0.000200 -0.000099  0.000013  0.000093  0.000081 -0.000001
  2C   1dx2y2     0.000371  0.001218  0.005744 -0.004689 -0.009768  0.002550
  2C   1dxy      -0.001872 -0.008322  0.000524 -0.000667 -0.001438  0.003010
  3C   1s        -0.043602 -0.093370  0.040734 -0.026128 -0.043039  0.025686
  3C   2s         0.087348  0.190344 -0.083390  0.054995  0.087729 -0.050895
  3C   1pz        0.000091 -0.001063  0.001334 -0.003215  0.001500  0.000169
  3C   1px       -0.097880 -0.080551 -0.126097 -0.025952  0.106920  0.171644
  3C   1py        0.034432 -0.027969  0.104574 -0.151039  0.041361 -0.044654
  3C   3s         0.065429  0.130066 -0.059149  0.061010  0.096934 -0.087392
  3C   2pz       -0.000124 -0.000977  0.000728 -0.001300  0.000421 -0.000008
  3C   2px       -0.028283 -0.044978 -0.027320 -0.002216  0.039179  0.027276
  3C   2py        0.002374 -0.034564  0.044019 -0.063223  0.008810 -0.008853
  3C   1dz2      -0.002737 -0.004317  0.001927 -0.001733 -0.000596  0.001156
  3C   1dxz      -0.000109  0.000054 -0.000155  0.000018  0.000099 -0.000009
  3C   1dyz       0.000178  0.000275 -0.000041  0.000063  0.000175 -0.000181
  3C   1dx2y2    -0.005616 -0.005503 -0.003021 -0.000149 -0.005717  0.006379
  3C   1dxy      -0.005134  0.002069 -0.005688  0.000044  0.006276 -0.001840
  4C   1s         0.031557  0.010745 -0.085523  0.011742 -0.002652  0.002581
  4C   2s        -0.063975 -0.022757  0.185077 -0.020670  0.003010 -0.004778
  4C   1pz        0.001881  0.004247  0.000289  0.002494  0.001704  0.003260
  4C   1px        0.170314 -0.048504 -0.005183  0.232619  0.098527 -0.058355
  4C   1py        0.040629  0.224660  0.015943  0.052052  0.053848  0.175172
  4C   3s        -0.054515 -0.010117  0.124148 -0.015422  0.011768 -0.000783
  4C   2pz        0.000056  0.000596  0.000314  0.000873 -0.000012  0.000587
  4C   2px        0.027081 -0.008804  0.015291  0.057553 -0.015686  0.011852
  4C   2py       -0.005917  0.032211  0.010988  0.025412  0.004358  0.023078
  4C   1dz2      -0.001063  0.000873 -0.002639 -0.004031 -0.002712  0.001555
  4C   1dxz       0.000267 -0.000131  0.000031  0.000188  0.000343  0.000105
  4C   1dyz      -0.000203 -0.000048  0.000094  0.000023 -0.000221  0.000173
  4C   1dx2y2     0.014384 -0.000888  0.000009  0.007326  0.018630 -0.008655
  4C   1dxy       0.008128 -0.005718  0.000155  0.004871  0.009805  0.008367
  5C   1s         0.064049  0.072167  0.044221 -0.001258  0.031851 -0.038438
  5C   2s        -0.124520 -0.145360 -0.090486  0.004116 -0.063071  0.080051
  5C   1pz       -0.000905 -0.001474  0.003316 -0.003328 -0.000179 -0.003076
  5C   1px       -0.032678 -0.139156  0.093707  0.033978 -0.187128 -0.082876
  5C   1py       -0.034817 -0.030351  0.135435 -0.174889  0.048377 -0.128212
  5C   3s        -0.100317 -0.119302 -0.068800  0.008837 -0.106027  0.093732
  5C   2pz       -0.000276 -0.000356  0.001173 -0.000710 -0.000063 -0.001602
  5C   2px       -0.021243 -0.074825  0.021648  0.027407 -0.054207 -0.072531
  5C   2py       -0.007092  0.005526  0.051313 -0.043512  0.013486 -0.057484
  5C   1dz2       0.004041  0.003649  0.002332 -0.000877  0.002151 -0.001359
  5C   1dxz       0.000027  0.000024  0.000019  0.000048  0.000123 -0.000127
  5C   1dyz      -0.000263 -0.000251  0.000049 -0.000049 -0.000229  0.000044
  5C   1dx2y2     0.006446  0.006429 -0.005261  0.004137  0.008976 -0.001734
  5C   1dxy       0.001466  0.001133  0.003781  0.000659  0.004469 -0.006505
  6O   1s        -0.056957 -0.004928  0.046660  0.019157 -0.008716 -0.019748
  6O   2s         0.134740  0.010282 -0.112609 -0.045556  0.016645  0.043885
  6O   1pz        0.000276  0.001820 -0.000957 -0.001144  0.000428  0.005966
  6O   1px       -0.142140  0.032536 -0.156175 -0.286769 -0.193607  0.047684
  6O   1py        0.055229  0.080305  0.000266  0.029786  0.078974  0.271231
  6O   3s         0.162399  0.016694 -0.146364 -0.064543  0.058669  0.061518
  6O   2pz        0.000231  0.001047 -0.000607 -0.000616  0.000180  0.003733
  6O   2px       -0.059231  0.018412 -0.068704 -0.121084 -0.095937  0.033249
  6O   2py        0.028929  0.046192 -0.009194  0.005915  0.037404  0.169287
  6O   1dz2       0.002364  0.000978 -0.003243 -0.001423  0.000950  0.004305
  6O   1dxz       0.000134 -0.000152  0.000120  0.000148  0.000086 -0.000149
  6O   1dyz      -0.000117 -0.000193  0.000091  0.000088 -0.000119 -0.000577
  6O   1dx2y2     0.003525  0.005189  0.002240  0.000095  0.005131  0.017252
  6O   1dxy       0.006634 -0.008515  0.003480  0.006423  0.003170 -0.010151
  7C   1s         0.121970 -0.019124 -0.058617 -0.029319 -0.013015 -0.002539
  7C   2s        -0.245042  0.040230  0.117229  0.054841  0.023145  0.006955
  7C   1pz        0.000403  0.000599 -0.002206 -0.003698 -0.001393  0.004065
  7C   1px       -0.038709  0.045020  0.103812  0.100166  0.117870  0.214356
  7C   1py        0.030890  0.016192 -0.137007 -0.207793 -0.100841  0.128706
  7C   3s        -0.226652  0.042939  0.131944  0.071525  0.041774  0.010667
  7C   2pz        0.000236  0.000186 -0.000785 -0.001468 -0.000595  0.002012
  7C   2px       -0.019258  0.020342  0.035476  0.027282  0.046011  0.091146
  7C   2py        0.016735  0.003469 -0.047592 -0.078151 -0.040905  0.067189
  7C   1dz2      -0.002956  0.003404  0.007653  0.006486  0.007161  0.013041
  7C   1dxz      -0.000066 -0.000025  0.000257  0.000345  0.000163 -0.000101
  7C   1dyz       0.000011 -0.000064 -0.000157 -0.000108 -0.000179 -0.000415
  7C   1dx2y2     0.002942 -0.002494 -0.000771 -0.000065 -0.000350 -0.001916
  7C   1dxy      -0.005593  0.001276  0.016514  0.019970  0.011663  0.002394
  8H   1s        -0.090810  0.027211  0.066493  0.040843  0.041825  0.080481
  8H   2s        -0.024982  0.011438  0.028312  0.023320  0.027752  0.057518
  9H   1s        -0.090807  0.027223  0.066486  0.040831  0.041843  0.080437
  9H   2s        -0.024971  0.011437  0.028296  0.023304  0.027749  0.057506
 10H   1s        -0.096199 -0.002114  0.093740  0.115191  0.037704 -0.097821
 10H   2s        -0.030435 -0.010560  0.043144  0.067846  0.012195 -0.062981
 11H   1s         0.003920 -0.092389 -0.069803  0.098092  0.024583  0.026081
 11H   2s         0.001125 -0.032075 -0.026422  0.052372  0.008767  0.017225
 12H   1s        -0.042862  0.092858 -0.047732  0.067313 -0.138200 -0.005500
 12H   2s        -0.008437  0.029376 -0.022802  0.036656 -0.088103  0.007581
 13H   1s         0.071195 -0.014964  0.092151  0.027732 -0.189912  0.051704
 13H   2s         0.016584 -0.004520  0.032402  0.018694 -0.126876  0.037721
 14H   1s         0.034530  0.101751 -0.053762  0.096370  0.000659 -0.043178
 14H   2s         0.008578  0.034783 -0.020809  0.051405 -0.007582 -0.028748
 15H   1s        -0.044924 -0.082149 -0.063126  0.087751 -0.112736  0.069623
 15H   2s        -0.016674 -0.025314 -0.023702  0.060186 -0.076084  0.042188
                     18        19        20        21        22        23   
                  -0.46279  -0.43948  -0.41762  -0.40615  -0.36901  -0.35389
                   2.00000   2.00000   2.00000   2.00000   2.00000   2.00000
                  --------  --------  --------  --------  --------  --------
  0C   1s        -0.000004 -0.021079  0.016314  0.018258  0.000003  0.008126
  0C   2s         0.000007  0.041155 -0.034839 -0.039389 -0.000008 -0.018383
  0C   1pz        0.017172  0.004225  0.002917  0.000106  0.152485  0.005273
  0C   1px       -0.000019 -0.108965  0.027949 -0.250207 -0.000963  0.220184
  0C   1py       -0.000282  0.242382  0.135116  0.082038 -0.003044  0.195060
  0C   3s         0.000002  0.050754 -0.063189 -0.074788 -0.000029 -0.030194
  0C   2pz        0.005868  0.000853  0.001372  0.000169  0.083765  0.001795
  0C   2px       -0.000023 -0.049228  0.032898 -0.074767 -0.000545  0.077990
  0C   2py       -0.000114  0.057460  0.057434  0.031326 -0.001682  0.065886
  0C   1dz2      -0.000001 -0.002682 -0.000610 -0.001404 -0.000112 -0.000491
  0C   1dxz       0.001252 -0.000244  0.000015 -0.000115  0.005307  0.000008
  0C   1dyz      -0.000415 -0.000010  0.000128  0.000169 -0.004809 -0.000285
  0C   1dx2y2    -0.000015  0.000965 -0.004717 -0.007163 -0.000129  0.013747
  0C   1dxy      -0.000024 -0.013734  0.001838 -0.004230 -0.000082 -0.004046
  1C   1s        -0.000003  0.030375  0.010692  0.007099 -0.000001 -0.007772
  1C   2s         0.000009 -0.059634 -0.021882 -0.018500 -0.000000  0.022523
  1C   1pz        0.043236 -0.001629  0.005323  0.003440  0.191972 -0.004230
  1C   1px       -0.000365  0.001074 -0.050503  0.237006 -0.001169 -0.220557
  1C   1py       -0.000836 -0.080263  0.277847  0.098087 -0.003940 -0.139949
  1C   3s        -0.000032 -0.083531 -0.081534 -0.010191  0.000059 -0.016353
  1C   2pz        0.020442 -0.000283  0.001774  0.001029  0.109609 -0.000911
[...]
 7 C  s               0.1       0.1       0.0       0.0       0.0       0.1
 7 C  pz              0.0       0.0       0.0       0.4       0.0       0.0
 7 C  px              0.2       2.3       0.0       0.0       0.0       0.1
 7 C  py              0.2       0.6       0.0       0.0       0.0       0.0
 7 C  dz2             3.8      35.6       0.0       0.0       0.0       3.1
 7 C  dxz             0.0       0.0       5.4      25.3       0.2       0.0
 7 C  dyz             0.0       0.1       1.5       0.1       0.0       0.0
 7 C  dx2y2           1.4       6.2       0.0       0.0       0.0      22.7
 7 C  dxy             1.2       1.2       0.0       0.0       0.0       0.8
 8 H  s               0.1       2.3       0.3       2.7       0.0       0.4
 9 H  s               0.1       2.4       0.2       2.7       0.0       0.5
10 H  s               0.3       6.8       0.0       0.0       0.0       2.3
11 H  s               0.1       0.1       0.0       0.0       0.0       0.1
12 H  s               0.3       0.1       0.0       0.0       0.0       0.7
14 H  s               0.2       0.1       0.0       0.0       0.0       0.2
15 H  s               0.3       0.4       0.0       0.0       0.0       0.1

                    114       115       116       117       118       119   
                   2.38196   2.53095   2.53345   2.58972   2.62383   2.67640
                   0.00000   0.00000   0.00000   0.00000   0.00000   0.00000
                  --------  --------  --------  --------  --------  --------
 0 C  s               0.0       0.0       1.3       2.2       0.5       0.0
 0 C  px              0.0       0.0       0.1       0.4       0.9       0.0
 0 C  py              0.0       0.0       0.3       0.2       0.2       0.0
 0 C  dz2             0.0       0.0       5.8       5.0       0.8       0.0
 0 C  dxz             3.0       0.2       0.0       0.0       0.0      10.5
 0 C  dyz             0.8       3.0       0.0       0.0       0.0       4.6
 0 C  dx2y2           0.0       0.0       1.3       0.4       2.6       0.0
 0 C  dxy             0.0       0.0       1.0       2.6       0.7       0.0
 1 C  s               0.0       0.0       0.2       4.2       0.1       0.0
 1 C  pz              0.4       0.1       0.0       0.0       0.0       0.0
 1 C  px              0.0       0.0       0.0       0.3       0.2       0.0
 1 C  py              0.0       0.0       0.1       0.4       0.0       0.0
 1 C  dz2             0.0       0.0       0.5      11.9       0.2       0.0
 1 C  dxz             0.2       0.2       0.0       0.0       0.0      13.8
 1 C  dyz             5.2       5.4       0.0       0.0       0.0       1.6
 1 C  dx2y2           0.0       0.0       0.0       0.2      11.0       0.0
 1 C  dxy             0.0       0.0       0.8       4.2       0.8       0.0
 2 C  s               0.0       0.0       3.6       0.9       0.0       0.0
 2 C  px              0.0       0.0       0.8       0.2       0.1       0.0
 2 C  py              0.0       0.0       0.0       0.5       0.3       0.0
 2 C  dz2             0.0       0.0      13.2       2.8       0.0       0.0
 2 C  dxz             1.4       0.3       0.0       0.0       0.0       0.3
 2 C  dyz            11.4       3.1       0.0       0.0       0.0      14.0
 2 C  dx2y2           0.0       0.0       0.2       1.8      12.6       0.0
 2 C  dxy             0.0       0.0       0.0       5.9       3.8       0.0
 3 C  s               0.0       0.0       0.4       6.8       0.3       0.0
 3 C  pz              0.2       0.0       0.0       0.0       0.0       0.0
 3 C  px              0.0       0.0       0.3       0.2       0.6       0.0
 3 C  py              0.0       0.0       0.4       1.1       0.4       0.0
 3 C  dz2             0.0       0.0       1.0      16.8       0.2       0.0
 3 C  dxz             3.3       3.2       0.0       0.0       0.0      11.8
 3 C  dyz             4.1       0.1       0.0       0.0       0.0       2.6
 3 C  dx2y2           0.0       0.0       0.4       2.0       3.7       0.0
 3 C  dxy             0.0       0.0       3.4       2.0       0.7       0.0
 4 C  s               0.0       0.0       5.5       0.6       0.9       0.0
 4 C  px              0.0       0.0       1.5       0.1       0.7       0.0
 4 C  py              0.0       0.0       0.9       0.0       0.1       0.0
 4 C  dz2             0.0       0.0      10.7       1.5       0.0       0.0
 4 C  dxz             6.0      37.2       0.1       0.0       0.0       0.3
 4 C  dyz             8.4       1.2       0.0       0.0       0.0      18.1
 4 C  dx2y2           0.0       0.0       0.0       0.4      13.6       0.0
 4 C  dxy             0.0       0.0       1.5       0.9       0.1       0.0
 5 C  s               0.0       0.0       4.7       2.4       0.1       0.0
 5 C  pz              0.1       0.4       0.0       0.0       0.0       0.0
 5 C  px              0.0       0.0       0.2       0.6       0.6       0.0
 5 C  py              0.0       0.0       1.5       0.0       0.5       0.0
 5 C  dz2             0.0       0.0      11.9       7.2       0.0       0.0
 5 C  dxz             0.2       2.0       0.0       0.0       0.0       9.2
 5 C  dyz             0.1       5.0       0.1       0.0       0.0       7.1
 5 C  dx2y2           0.0       0.0       4.5       2.6       0.7       0.0
 5 C  dxy             0.0       0.0       0.2       3.8       5.7       0.0
 6 O  s               0.0       0.0       5.2       0.2       1.5       0.0
 6 O  pz              1.0       0.3       0.0       0.0       0.0       0.0
 6 O  px              0.0       0.0       0.6       0.0       3.8       0.0
 6 O  py              0.0       0.0       0.2       0.2       1.8       0.0
 6 O  dz2             0.0       0.0       1.5       0.2       1.7       0.0
 6 O  dxz             0.5      33.4       0.1       0.0       0.0       2.9
 6 O  dyz            19.9       0.0       0.0       0.0       0.0       1.5
 6 O  dx2y2           0.0       0.0       3.1       0.1       3.5       0.0
 6 O  dxy             0.0       0.0       1.4       0.1       7.7       0.0
 7 C  s               0.0       0.0       0.5       0.1       1.7       0.0
 7 C  pz              0.0       0.2       0.0       0.0       0.0       0.0
 7 C  px              0.0       0.0       0.3       0.0       1.2       0.0
 7 C  py              0.0       0.0       0.3       0.0       0.9       0.0
 7 C  dz2             0.0       0.0       2.2       0.3       1.3       0.0
 7 C  dxz            28.2       0.2       0.0       0.0       0.0       0.7
 7 C  dyz             1.8       3.8       0.0       0.0       0.0       0.7
 7 C  dx2y2           0.0       0.0       1.7       0.5       1.2       0.0
 7 C  dxy             0.0       0.0       1.4       0.0       6.7       0.0
 8 H  s               1.9       0.0       0.1       0.0       0.0       0.0
 9 H  s               1.8       0.0       0.1       0.0       0.0       0.0
10 H  s               0.0       0.0       0.1       0.0       0.1       0.0
11 H  s               0.0       0.0       0.8       0.6       0.3       0.0
12 H  s               0.0       0.0       0.0       1.5       0.5       0.0
13 H  s               0.0       0.0       0.8       0.3       1.3       0.0
14 H  s               0.0       0.0       0.0       1.9       0.3       0.0
15 H  s               0.0       0.0       1.1       0.8       0.7       0.0

                    120       121       122       123       124       125   
                   2.68152   2.74107   2.74455   2.78132   2.90236   3.00048
                   0.00000   0.00000   0.00000   0.00000   0.00000   0.00000
                  --------  --------  --------  --------  --------  --------
 0 C  s               3.8       2.5       0.4       1.0       0.5       1.7
 0 C  px              0.3       3.1       0.7       0.1       1.0       0.1
 0 C  py              2.1       0.2       0.1       0.1       1.4       0.3
 0 C  dz2             6.9       4.8       0.0       1.8       0.1       1.9
 0 C  dx2y2           3.3      12.8       2.3       2.0      13.0       0.0
 0 C  dxy             0.4       2.4      14.4       4.3       2.7       0.8
 1 C  s               0.7       5.7       0.0       3.0       0.3       0.8
 1 C  px              0.4       2.5       0.8       0.9       0.9       0.1
 1 C  py              0.5       0.4       0.3       1.3       0.0       0.0
 1 C  dz2             0.2       6.7       0.0       6.7       0.0       0.9
 1 C  dx2y2           0.3       9.0       1.0       2.5       0.0       1.0
 1 C  dxy             3.0       0.2      20.2       0.7       3.8       0.0
 2 C  s               5.3       0.4       0.9       2.0       0.0       1.1
 2 C  px              0.8       0.2       0.4       0.3       0.1       0.1
 2 C  py              0.9       0.7       0.5       0.3       5.6       0.1
 2 C  dz2            11.0       0.2       0.0       2.7       0.0       1.2
 2 C  dx2y2           1.7       0.3       0.5      11.4       0.0       3.0
 2 C  dxy             4.0       2.2       2.2       0.3      21.1       0.0
 3 C  s               0.8       0.1       1.9       1.2       0.9       1.9
 3 C  px              0.6       0.2       4.1       0.3       1.7       0.2
 3 C  py              0.0       0.2       0.1       0.2       1.4       0.1
 3 C  dz2             1.8       0.0       3.0       2.0       0.4       2.5
 3 C  dx2y2           0.0       0.9      12.1       9.5       2.1       2.0
 3 C  dxy             0.1      12.7       1.5       0.1      13.9       0.0
 4 C  s               1.2       1.0       1.4       5.3       0.0       7.5
 4 C  px              1.1       0.0       0.3       1.8       0.2       3.3
 4 C  py              1.1       2.5       1.1       0.0       0.7       0.2
 4 C  dz2             1.3       0.0       0.0       9.6       0.5       5.4
 4 C  dx2y2           1.2       0.5       0.4       0.3       0.9       9.6
 4 C  dxy             5.8       0.7       0.2       4.8       1.9       0.6
 5 C  s               0.3       0.6       4.2       1.7       0.4       1.7
 5 C  px              0.2       0.3       2.6       0.4       0.4       0.6
 5 C  py              0.2       0.7       0.0       0.2       0.2       0.0
 5 C  dz2             0.2       1.1       4.7       3.5       0.1       2.5
 5 C  dx2y2           6.9       2.9      12.2       0.4       0.5       0.0
 5 C  dxy             0.6      18.3       1.3       0.1       2.8       0.2
 6 O  s              12.1       0.4       0.0       0.9       1.9       5.6
 6 O  px              0.6       0.1       0.2       1.0       0.8       7.3
 6 O  py              0.8       0.0       0.0       1.2       0.1       0.1
 6 O  dz2             8.2       0.5       0.1       1.9       1.5       3.0
 6 O  dx2y2           3.3       0.2       0.9       3.0       0.9      17.1
 6 O  dxy             0.0       0.0       0.5       1.3       9.3      10.7
 7 C  s               0.5       0.0       0.1       0.7       0.8       0.5
 7 C  px              0.4       0.0       0.0       0.5       0.5       0.4
 7 C  py              0.3       0.0       0.0       0.3       0.7       0.2
 7 C  dz2             2.2       0.1       0.1       0.5       0.8       0.0
 7 C  dx2y2           0.6       0.1       0.0       1.5       0.4       1.7
 7 C  dxy             0.8       0.0       0.3       1.4       2.2       1.5
10 H  s               0.1       0.0       0.0       0.0       0.0       0.2
11 H  s               0.2       0.1       0.9       0.7       0.0       0.0
12 H  s               0.3       0.1       0.5       0.2       0.1       0.1
13 H  s               0.1       0.0       0.1       1.2       0.0       0.1
14 H  s               0.0       0.8       0.0       0.5       0.1       0.0
15 H  s               0.2       0.5       0.1       0.1       0.2       0.1

                    126       127   
                   3.20006   3.43258
                   0.00000   0.00000
                  --------  --------
 0 C  s               0.1       1.6
 0 C  px              1.2       0.1
 0 C  py              0.3       0.0
 0 C  dz2             0.0       1.0
 0 C  dx2y2           2.9       1.3
 0 C  dxy             0.2      11.6
 1 C  s               0.1       1.6
 1 C  px              1.8       0.0
 1 C  py              0.8       0.1
 1 C  dz2             0.0       1.1
 1 C  dx2y2           6.6       7.2
 1 C  dxy             3.4       6.5
 2 C  s               0.0       1.6
 2 C  px              0.0       0.1
 2 C  py              0.6       0.0
 2 C  dz2             0.0       1.0
 2 C  dx2y2           0.6      11.3
 2 C  dxy             1.9       0.7
 3 C  s               0.1       1.4
 3 C  px              1.1       0.0
 3 C  dz2             0.0       0.9
 3 C  dx2y2           3.2       5.6
 3 C  dxy             0.3       6.5
 4 C  s               0.2       0.6
 4 C  px              0.2       0.5
 4 C  py              1.0       0.0
 4 C  dz2             0.6       0.7
 4 C  dx2y2           1.2      14.9
 4 C  dxy            31.1       0.5
 5 C  s               0.2       1.4
 5 C  px              1.2       0.0
 5 C  py              1.8       0.1
 5 C  dz2             0.1       0.9
 5 C  dx2y2          11.3       1.1
 5 C  dxy             0.0      11.0
 6 O  s               2.3       0.1
 6 O  px              0.2       0.9
 6 O  py              0.2       0.0
 6 O  dz2             1.4       0.0
 6 O  dx2y2           5.5       0.7
 6 O  dxy            11.2       1.9
 7 C  s               0.4       0.1
 7 C  px              0.2       0.1
 7 C  py              0.6       0.1
 7 C  dz2             0.6       0.0
 7 C  dx2y2           1.6       0.0
 7 C  dxy             1.3       0.2
11 H  s               0.0       0.5
12 H  s               0.0       0.6
13 H  s               0.0       0.5
14 H  s               0.0       0.5
15 H  s               0.1       0.5


                      *****************************
                      * MAYER POPULATION ANALYSIS *
                      *****************************

  NA   - Mulliken gross atomic population
  ZA   - Total nuclear charge
  QA   - Mulliken gross atomic charge
  VA   - Mayer's total valence
  BVA  - Mayer's bonded valence
  FA   - Mayer's free valence

  ATOM       NA         ZA         QA         VA         BVA        FA
  0 C      6.1265     6.0000    -0.1265     3.9593     3.9593     0.0000
  1 C      6.1754     6.0000    -0.1754     3.9184     3.9184    -0.0000
  2 C      6.1357     6.0000    -0.1357     3.9415     3.9415    -0.0000
  3 C      6.1296     6.0000    -0.1296     3.9749     3.9749    -0.0000
  4 C      5.6385     6.0000     0.3615     3.8553     3.8553    -0.0000
  5 C      6.2028     6.0000    -0.2028     3.8906     3.8906    -0.0000
  6 O      8.4960     8.0000    -0.4960     1.9917     1.9917     0.0000
  7 C      6.2059     6.0000    -0.2059     3.7738     3.7738    -0.0000
  8 H      0.8398     1.0000     0.1602     0.9275     0.9275    -0.0000
  9 H      0.8397     1.0000     0.1603     0.9275     0.9275     0.0000
 10 H      0.8466     1.0000     0.1534     0.9331     0.9331    -0.0000
 11 H      0.8733     1.0000     0.1267     0.9375     0.9375    -0.0000
 12 H      0.8665     1.0000     0.1335     0.9415     0.9415     0.0000
 13 H      0.8778     1.0000     0.1222     0.9389     0.9389     0.0000
 14 H      0.8748     1.0000     0.1252     0.9381     0.9381    -0.0000
 15 H      0.8713     1.0000     0.1287     0.9398     0.9398     0.0000

  Mayer bond orders larger than 0.1
B(  0-C ,  1-C ) :   1.4780 B(  0-C ,  2-C ) :   1.4286 B(  0-C , 11-H ) :   0.9304 
B(  1-C ,  4-C ) :   1.3851 B(  1-C , 12-H ) :   0.9206 B(  2-C ,  3-C ) :   1.4713 
B(  2-C , 13-H ) :   0.9311 B(  3-C ,  5-C ) :   1.4344 B(  3-C , 14-H ) :   0.9302 
B(  4-C ,  5-C ) :   1.3832 B(  4-C ,  6-O ) :   0.9333 B(  5-C , 15-H ) :   0.9136 
B(  6-O ,  7-C ) :   0.9240 B(  7-C ,  8-H ) :   0.9435 B(  7-C ,  9-H ) :   0.9435 
B(  7-C , 10-H ) :   0.9242 

-------
TIMINGS
-------

Total SCF time: 0 days 0 hours 0 min 20 sec 

Total time                  ....      20.132 sec
Sum of individual times     ....      19.839 sec  ( 98.5%)

Fock matrix formation       ....      17.737 sec  ( 88.1%)
  XC integration            ....       2.935 sec  ( 16.5% of F)
    Basis function eval.    ....       1.111 sec  ( 37.8% of XC)
    Density eval.           ....       0.781 sec  ( 26.6% of XC)
    XC-Functional eval.     ....       0.223 sec  (  7.6% of XC)
    XC-Potential eval.      ....       0.662 sec  ( 22.5% of XC)
Diagonalization             ....       0.003 sec  (  0.0%)
Density matrix formation    ....       0.002 sec  (  0.0%)
Population analysis         ....       0.044 sec  (  0.2%)
Initial guess               ....       0.004 sec  (  0.0%)
Orbital Transformation      ....       0.000 sec  (  0.0%)
Orbital Orthonormalization  ....       0.002 sec  (  0.0%)
DIIS solution               ....       0.001 sec  (  0.0%)
SOSCF solution              ....       0.012 sec  (  0.1%)
Grid generation             ....       2.036 sec  ( 10.1%)

-------------------------   --------------------
FINAL SINGLE POINT ENERGY      -346.545515349887
-------------------------   --------------------

                                *** OPTIMIZATION RUN DONE ***

                            ***************************************
                            *     ORCA property calculations      *
                            ***************************************

                                    ---------------------
                                    Active property flags
                                    ---------------------
   (+) Dipole Moment


------------------------------------------------------------------------------
                       ORCA ELECTRIC PROPERTIES CALCULATION
------------------------------------------------------------------------------

Dipole Moment Calculation                       ... on
Quadrupole Moment Calculation                   ... off
Polarizability Calculation                      ... off
GBWName                                         ... /Users/lailaal-madhagi/Desktop/Testing_XAS_Analysis_code/Anisole//Results_dir_Anisole_geom_element_C_2019-11-04_21-25-14//GTE1_Anisole_geom_2019-11-04_21-25-44//opt.gbw
Electron density file                           ... /Users/lailaal-madhagi/Desktop/Testing_XAS_Analysis_code/Anisole//Results_dir_Anisole_geom_element_C_2019-11-04_21-25-14//GTE1_Anisole_geom_2019-11-04_21-25-44//opt.scfp.tmp
The origin for moment calculation is the CENTER OF MASS  = (-1.286444, -0.043879  0.005635)

-------------
DIPOLE MOMENT
-------------
                                X             Y             Z
Electronic contribution:     -1.87358       1.93520       0.03002
Nuclear contribution   :      2.20805      -2.39314      -0.03790
                        -----------------------------------------
Total Dipole Moment    :      0.33447      -0.45794      -0.00788
                        -----------------------------------------
Magnitude (a.u.)       :      0.56713
Magnitude (Debye)      :      1.44153



--------------------
Rotational spectrum 
--------------------
 
Rotational constants in cm-1:     0.169986     0.050624     0.039299 
Rotational constants in MHz :  5096.044464  1517.664679  1178.153100 

 Dipole components along the rotational axes: 
x,y,z [a.u.] :     0.358667    -0.439312    -0.000775 
x,y,z [Debye]:     0.911659    -1.116642    -0.001970 

 

Timings for individual modules:

Sum of individual times         ...      351.754 sec (=   5.863 min)
GTO integral calculation        ...        3.356 sec (=   0.056 min)   1.0 %
SCF iterations                  ...      206.683 sec (=   3.445 min)  58.8 %
SCF Gradient evaluation         ...      140.216 sec (=   2.337 min)  39.9 %
Geometry relaxation             ...        1.500 sec (=   0.025 min)   0.4 %
                             ****ORCA TERMINATED NORMALLY****
TOTAL RUN TIME: 0 days 0 hours 5 minutes 52 seconds 812 msec
