
                                 *****************
                                 * O   R   C   A *
                                 *****************

           --- An Ab Initio, DFT and Semiempirical electronic structure package ---

                  #######################################################
                  #                        -***-                        #
                  #          Department of theory and spectroscopy      #
                  #               Directorship: Frank Neese             #
                  #        Max Planck Institute fuer Kohlenforschung    #
                  #                Kaiser Wilhelm Platz 1               #
                  #                 D-45470 Muelheim/Ruhr               #
                  #                      Germany                        #
                  #                                                     #
                  #                  All rights reserved                #
                  #                        -***-                        #
                  #######################################################


                         Program Version 4.1.0  - RELEASE  -


 With contributions from (in alphabetic order):
   Daniel Aravena         : Magnetic Properties
   Michael Atanasov       : Ab Initio Ligand Field Theory
   Alexander A. Auer      : GIAO ZORA
   Ute Becker             : Parallelization
   Giovanni Bistoni       : ED, Open-shell LED
   Martin Brehm           : Molecular dynamics
   Dmytro Bykov           : SCF Hessian
   Vijay G. Chilkuri      : MRCI spin determinant printing
   Dipayan Datta          : RHF DLPNO-CCSD density
   Achintya Kumar Dutta   : EOM-CC, STEOM-CC
   Dmitry Ganyushin       : Spin-Orbit,Spin-Spin,Magnetic field MRCI
   Miquel Garcia          : C-PCM Hessian
   Yang Guo               : DLPNO-NEVPT2, CIM, IAO-localization
   Andreas Hansen         : Spin unrestricted coupled pair/coupled cluster methods
   Benjamin Helmich-Paris : CASSCF linear response (MC-RPA)
   Lee Huntington         : MR-EOM, pCC
   Robert Izsak           : Overlap fitted RIJCOSX, COSX-SCS-MP3, EOM
   Christian Kollmar      : KDIIS, OOCD, Brueckner-CCSD(T), CCSD density
   Simone Kossmann        : Meta GGA functionals, TD-DFT gradient, OOMP2, MP2 Hessian
   Martin Krupicka        : AUTO-CI
   Lucas Lang             : DCDCAS
   Dagmar Lenk            : GEPOL surface, SMD
   Dimitrios Liakos       : Extrapolation schemes; parallel MDCI
   Dimitrios Manganas     : ROCIS; embedding schemes
   Dimitrios Pantazis     : SARC Basis sets
   Taras Petrenko         : DFT Hessian,TD-DFT gradient, ASA, ECA, R-Raman, ABS, FL, XAS/XES, NRVS
   Peter Pinski           : DLPNO-MP2, DLPNO-MP2 Gradient
   Christoph Reimann      : Effective Core Potentials
   Marius Retegan         : Local ZFS, SOC
   Christoph Riplinger    : Optimizer, TS searches, QM/MM, DLPNO-CCSD(T), (RO)-DLPNO pert. Triples
   Tobias Risthaus        : Range-separated hybrids, TD-DFT gradient, RPA, STAB
   Michael Roemelt        : Restricted open shell CIS
   Masaaki Saitow         : Open-shell DLPNO
   Barbara Sandhoefer     : DKH picture change effects
   Avijit Sen             : IP-ROCIS
   Kantharuban Sivalingam : CASSCF convergence, NEVPT2, FIC-MRCI
   Bernardo de Souza      : ESD, SOC TD-DFT
   Georgi Stoychev        : AutoAux, RI-MP2 NMR
   Willem Van den Heuvel  : Paramagnetic NMR
   Boris Wezisla          : Elementary symmetry handling
   Frank Wennmohs         : Technical directorship


 We gratefully acknowledge several colleagues who have allowed us to
 interface, adapt or use parts of their codes:
   Stefan Grimme, W. Hujo, H. Kruse,             : VdW corrections, initial TS optimization,
                  C. Bannwarth                     DFT functionals, gCP, sTDA/sTD-DF
   Ed Valeev                                     : LibInt (2-el integral package), F12 methods
   Garnet Chan, S. Sharma, J. Yang, R. Olivares  : DMRG
   Ulf Ekstrom                                   : XCFun DFT Library
   Mihaly Kallay                                 : mrcc  (arbitrary order and MRCC methods)
   Andreas Klamt, Michael Diedenhofen            : otool_cosmo (COSMO solvation model)
   Jiri Pittner, Ondrej Demel                    : Mk-CCSD
   Frank Weinhold                                : gennbo (NPA and NBO analysis)
   Christopher J. Cramer and Donald G. Truhlar   : smd solvation model
   Lars Goerigk                                  : TD-DFT with DH, B97 family of functionals
   V. Asgeirsson, H. Jonsson                     : NEB implementation
   FAccTs GmbH                                   : IRC, NEB, NEB-TS, Multilevel


 Your calculation uses the libint2 library for the computation of 2-el integrals
 For citations please refer to: http://libint.valeyev.net

 This ORCA versions uses:
   CBLAS   interface :  Fast vector & matrix operations
   LAPACKE interface :  Fast linear algebra routines
   SCALAPACK package :  Parallel linear algebra routines




***************************************
The coordinates will be read from file: /Users/lailaal-madhagi/Desktop/Testing_XAS_Analysis_code/ParaNitroAniline//Results_dir_ParaNitroAniline_geom_element_C_2019-11-16_00-52-09//GTE1_ParaNitroAniline_geom_2019-11-16_00-52-43//opt.xyz
***************************************


----- Orbital basis set information -----
Your calculation utilizes the basis: 6-31G*
   H-He, Li-Ne : W. J. Hehre, R. Ditchfield and J.A. Pople, J. Chem. Phys. 56, 2257 (1972).
                 Note: He and Ne are unpublished basis sets taken from the Gaussian program.
                 Note: Li and B from J. D. Dill and J. A. Pople, J. Chem. Phys. 62, 2921 (1975).
   Na - Ar     : M. M. Francl, W. J. Pietro, W. J. Hehre, J. S. Binkley, M. S. Gordon, 
                 D. J. DeFrees and J. A. Pople, J. Chem. Phys. 77, 3654 (1982).
   K - Zn      : V. A. Rassolov, J. A. Pople, M. A. Ratner, and T. L. Windus, J. Chem. Phys. 109, 1223 (1998).

================================================================================
                                        WARNINGS
                       Please study these warnings very carefully!
================================================================================

INFO   : Checking CIS options ...

WARNING: CIS/ROCIS methods need fully converged wavefunctions
  ===> : Setting SCFConvForced true
         You can overwrite this default with %scf ConvForced false 


INFO   : the flag for use of LIBINT has been found!

================================================================================
                                       INPUT FILE
================================================================================
NAME = /Users/lailaal-madhagi/Desktop/Testing_XAS_Analysis_code/ParaNitroAniline//Results_dir_ParaNitroAniline_geom_element_C_2019-11-16_00-52-09//GTE1_ParaNitroAniline_geom_2019-11-16_00-52-43//TDDFT_C-edge.inp
|  1> #This is C K-edge calculation 
|  2> ! B3LYP 6-31G* TIGHTSCF Grid3 FinalGrid5 
|  3> !NormalPrint 
|  4> %output 
|  5> Print[P_Basis] 2 
|  6> Print[P_MOS] 1 
|  7> end 
|  8> 
|  9> %tddft 
| 10> orbwin[0]=4,9,-1,-1 
| 11> nroots=20 
| 12> maxdim=200 
| 13> end 
| 14> *xyzfile 0 1 /Users/lailaal-madhagi/Desktop/Testing_XAS_Analysis_code/ParaNitroAniline//Results_dir_ParaNitroAniline_geom_element_C_2019-11-16_00-52-09//GTE1_ParaNitroAniline_geom_2019-11-16_00-52-43//opt.xyz                           ****END OF INPUT****
================================================================================

                       ****************************
                       * Single Point Calculation *
                       ****************************

---------------------------------
CARTESIAN COORDINATES (ANGSTROEM)
---------------------------------
  C     -3.037851    1.049920   -0.052734
  C     -1.936496    1.934772    0.006391
  C     -2.841829   -0.320874   -0.073159
  C     -1.541491   -0.833258   -0.034810
  C     -0.436119    0.020988    0.023855
  C     -0.631422    1.391892    0.044263
  N     -2.129843    3.289288    0.026494
  H     -4.047322    1.452664   -0.082260
  H     -3.679587   -1.006486   -0.118351
  H      0.560022   -0.403991    0.052575
  H      0.225351    2.059883    0.089893
  H     -3.056063    3.684282    0.001416
  H     -1.351070    3.926673    0.070759
  N     -1.336062   -2.272812   -0.056142
  O     -2.334121   -2.998315   -0.108681
  O     -0.174857   -2.691606   -0.020650

----------------------------
CARTESIAN COORDINATES (A.U.)
----------------------------
  NO LB      ZA    FRAG     MASS         X           Y           Z
   0 C     6.0000    0    12.011   -5.740706    1.984062   -0.099652
   1 C     6.0000    0    12.011   -3.659448    3.656189    0.012078
   2 C     6.0000    0    12.011   -5.370279   -0.606365   -0.138251
   3 C     6.0000    0    12.011   -2.912997   -1.574630   -0.065782
   4 C     6.0000    0    12.011   -0.824146    0.039661    0.045079
   5 C     6.0000    0    12.011   -1.193215    2.630294    0.083646
   6 N     7.0000    0    14.007   -4.024819    6.215854    0.050066
   7 H     1.0000    0     1.008   -7.648331    2.745137   -0.155448
   8 H     1.0000    0     1.008   -6.953411   -1.901983   -0.223651
   9 H     1.0000    0     1.008    1.058289   -0.763432    0.099352
  10 H     1.0000    0     1.008    0.425852    3.892615    0.169874
  11 H     1.0000    0     1.008   -5.775123    6.962285    0.002676
  12 H     1.0000    0     1.008   -2.553152    7.420337    0.133716
  13 N     7.0000    0    14.007   -2.524791   -4.294992   -0.106093
  14 O     8.0000    0    15.999   -4.410849   -5.665993   -0.205377
  15 O     8.0000    0    15.999   -0.330432   -5.086399   -0.039023

--------------------------------
INTERNAL COORDINATES (ANGSTROEM)
--------------------------------
 C      0   0   0     0.000000000000     0.00000000     0.00000000
 C      1   0   0     1.414015160965     0.00000000     0.00000000
 C      1   2   0     1.384889930217   120.64881835     0.00000000
 C      3   1   2     1.398172622235   119.60192103     0.00000000
 C      4   3   1     1.398222553203   120.83016609     0.00000000
 C      5   4   3     1.384895982492   119.59789356     0.00000000
 N      2   1   3     1.368393574318   120.66305504   179.99544390
 H      1   2   3     1.087247632995   119.50510077   179.99477048
 H      3   1   2     1.083486373989   121.16578550   179.99773431
 H      5   4   3     1.083387783623   119.23196084   180.00011730
 H      6   5   4     1.087361920908   119.84245695   179.99756389
 H      7   2   1     1.007240754258   121.18084176     0.10944358
 H      7   2   1     1.007326629137   121.18091934   179.85243689
 N      4   3   1     1.454294158567   119.58558952   179.99391967
 O     14   4   3     1.235004226144   117.90216296     0.02879474
 O     14   4   3     1.234926831793   117.91041472   180.02437212

---------------------------
INTERNAL COORDINATES (A.U.)
---------------------------
 C      0   0   0     0.000000000000     0.00000000     0.00000000
 C      1   0   0     2.672101403436     0.00000000     0.00000000
 C      1   2   0     2.617062693735   120.64881835     0.00000000
 C      3   1   2     2.642163343971   119.60192103     0.00000000
 C      4   3   1     2.642257699825   120.83016609     0.00000000
 C      5   4   3     2.617074130877   119.59789356     0.00000000
 N      2   1   3     2.585889098878   120.66305504   179.99544390
 H      1   2   3     2.054600266115   119.50510077   179.99477048
 H      3   1   2     2.047492516675   121.16578550   179.99773431
 H      5   4   3     2.047306207883   119.23196084   180.00011730
 H      6   5   4     2.054816238970   119.84245695   179.99756389
 H      7   2   1     1.903409176472   121.18084176     0.10944358
 H      7   2   1     1.903571456474   121.18091934   179.85243689
 N      4   3   1     2.748217677853   119.58558952   179.99391967
 O     14   4   3     2.333819761648   117.90216296     0.02879474
 O     14   4   3     2.333673507520   117.91041472   180.02437212

---------------------
BASIS SET INFORMATION
---------------------
There are 4 groups of distinct atoms

 Group   1 Type C   : 10s4p1d contracted to 3s2p1d pattern {631/31/1}
 Group   2 Type N   : 10s4p1d contracted to 3s2p1d pattern {631/31/1}
 Group   3 Type H   : 4s contracted to 2s pattern {31}
 Group   4 Type O   : 10s4p1d contracted to 3s2p1d pattern {631/31/1}

Atom   0C    basis set group =>   1
Atom   1C    basis set group =>   1
Atom   2C    basis set group =>   1
Atom   3C    basis set group =>   1
Atom   4C    basis set group =>   1
Atom   5C    basis set group =>   1
Atom   6N    basis set group =>   2
Atom   7H    basis set group =>   3
Atom   8H    basis set group =>   3
Atom   9H    basis set group =>   3
Atom  10H    basis set group =>   3
Atom  11H    basis set group =>   3
Atom  12H    basis set group =>   3
Atom  13N    basis set group =>   2
Atom  14O    basis set group =>   4
Atom  15O    basis set group =>   4

-------------------------
BASIS SET IN INPUT FORMAT
-------------------------

 # Basis set for element : H 
 NewGTO H 
 S 3 
   1      18.7311370000      0.0334945995
   2       2.8253937000      0.2347269467
   3       0.6401217000      0.8137573184
 S 1 
   1       0.1612778000      1.0000000000
  end;

 # Basis set for element : C 
 NewGTO C 
 S 6 
   1    3047.5249000000      0.0018347002
   2     457.3695100000      0.0140373012
   3     103.9486900000      0.0688426061
   4      29.2101550000      0.2321844206
   5       9.2866630000      0.4679413416
   6       3.1639270000      0.3623120322
 S 3 
   1       7.8682724000     -0.1193324086
   2       1.8812885000     -0.1608542116
   3       0.5442493000      1.1434564826
 P 3 
   1       7.8682724000      0.0689990956
   2       1.8812885000      0.3164239798
   3       0.5442493000      0.7443082524
 S 1 
   1       0.1687144000      1.0000000000
 P 1 
   1       0.1687144000      1.0000000000
 D 1 
   1       0.8000000000      1.0000000000
  end;

 # Basis set for element : N 
 NewGTO N 
 S 6 
   1    4173.5110000000      0.0018347994
   2     627.4579000000      0.0139949958
   3     142.9021000000      0.0685869792
   4      40.2343300000      0.2322409295
   5      12.8202100000      0.4690698576
   6       4.3904370000      0.3604548906
 S 3 
   1      11.6263580000     -0.1149610229
   2       2.7162800000     -0.1691180337
   3       0.7722180000      1.1458522281
 P 3 
   1      11.6263580000      0.0675800232
   2       2.7162800000      0.3239071114
   3       0.7722180000      0.7408952549
 S 1 
   1       0.2120313000      1.0000000000
 P 1 
   1       0.2120313000      1.0000000000
 D 1 
   1       0.8000000000      1.0000000000
  end;

 # Basis set for element : O 
 NewGTO O 
 S 6 
   1    5484.6717000000      0.0018310998
   2     825.2349500000      0.0139500985
   3     188.0469600000      0.0684450927
   4      52.9645000000      0.2327142753
   5      16.8975700000      0.4701929501
   6       5.7996353000      0.3585208619
 S 3 
   1      15.5396160000     -0.1107775038
   2       3.5999336000     -0.1480263051
   3       1.0137618000      1.1307670390
 P 3 
   1      15.5396160000      0.0708742995
   2       3.5999336000      0.3397527978
   3       1.0137618000      0.7271585953
 S 1 
   1       0.2700058000      1.0000000000
 P 1 
   1       0.2700058000      1.0000000000
 D 1 
   1       0.8000000000      1.0000000000
  end;

------------------------------------------------------------------------------
                           ORCA GTO INTEGRAL CALCULATION
------------------------------------------------------------------------------

                         BASIS SET STATISTICS AND STARTUP INFO

 # of primitive gaussian shells          ...  174
 # of primitive gaussian functions       ...  294
 # of contracted shells                  ...   72
 # of contracted basis functions         ...  152
 Highest angular momentum                ...    2
 Maximum contraction depth               ...    6
 Integral package used                   ... LIBINT
 Integral threshhold            Thresh   ...  2.500e-11
 Primitive cut-off              TCut     ...  2.500e-12


------------------------------ INTEGRAL EVALUATION ----------------------------


 * One electron integrals 
 Pre-screening matrix                    ... done
 Shell pair data                         ... done (   0.002 sec)

-------------------------------------------------------------------------------
                                 ORCA SCF
-------------------------------------------------------------------------------

------------
SCF SETTINGS
------------
Hamiltonian:
 Density Functional     Method          .... DFT(GTOs)
 Exchange Functional    Exchange        .... B88
   X-Alpha parameter    XAlpha          ....  0.666667
   Becke's b parameter  XBeta           ....  0.004200
 Correlation Functional Correlation     .... LYP
 LDA part of GGA corr.  LDAOpt          .... VWN-5
 Gradients option       PostSCFGGA      .... off
 Hybrid DFT is turned on
   Fraction HF Exchange ScalHFX         ....  0.200000
   Scaling of DF-GGA-X  ScalDFX         ....  0.720000
   Scaling of DF-GGA-C  ScalDFC         ....  0.810000
   Scaling of DF-LDA-C  ScalLDAC        ....  1.000000
   Perturbative correction              ....  0.000000
   Density functional embedding theory  .... OFF
   NL short-range parameter             ....  4.800000


General Settings:
 Integral files         IntName         .... /Users/lailaal-madhagi/Desktop/Testing_XAS_Analysis_code/ParaNitroAniline//Results_dir_ParaNitroAniline_geom_element_C_2019-11-16_00-52-09//GTE1_ParaNitroAniline_geom_2019-11-16_00-52-43//TDDFT_C-edge
 Hartree-Fock type      HFTyp           .... RHF
 Total Charge           Charge          ....    0
 Multiplicity           Mult            ....    1
 Number of Electrons    NEL             ....   72
 Basis Dimension        Dim             ....  152
 Nuclear Repulsion      ENuc            ....    494.6655875294 Eh

Convergence Acceleration:
 DIIS                   CNVDIIS         .... on
   Start iteration      DIISMaxIt       ....    12
   Startup error        DIISStart       ....  0.200000
   # of expansion vecs  DIISMaxEq       ....     5
   Bias factor          DIISBfac        ....   1.050
   Max. coefficient     DIISMaxC        ....  10.000
 Newton-Raphson         CNVNR           .... off
 SOSCF                  CNVSOSCF        .... on
   Start iteration      SOSCFMaxIt      ....   150
   Startup grad/error   SOSCFStart      ....  0.003300
 Level Shifting         CNVShift        .... on
   Level shift para.    LevelShift      ....    0.2500
   Turn off err/grad.   ShiftErr        ....    0.0010
 Zerner damping         CNVZerner       .... off
 Static damping         CNVDamp         .... on
   Fraction old density DampFac         ....    0.7000
   Max. Damping (<1)    DampMax         ....    0.9800
   Min. Damping (>=0)   DampMin         ....    0.0000
   Turn off err/grad.   DampErr         ....    0.1000
 Fernandez-Rico         CNVRico         .... off

SCF Procedure:
 Maximum # iterations   MaxIter         ....   125
 SCF integral mode      SCFMode         .... Direct
   Integral package                     .... LIBINT
 Reset frequency        DirectResetFreq ....    20
 Integral Threshold     Thresh          ....  2.500e-11 Eh
 Primitive CutOff       TCut            ....  2.500e-12 Eh

Convergence Tolerance:
 Convergence Check Mode ConvCheckMode   .... Total+1el-Energy
 Convergence forced     ConvForced      .... 1
 Energy Change          TolE            ....  1.000e-08 Eh
 1-El. energy change                    ....  1.000e-05 Eh
 Orbital Gradient       TolG            ....  1.000e-05
 Orbital Rotation angle TolX            ....  1.000e-05
 DIIS Error             TolErr          ....  5.000e-07


Diagonalization of the overlap matrix:
Smallest eigenvalue                        ... 4.308e-04
Time for diagonalization                   ...    0.004 sec
Threshold for overlap eigenvalues          ... 1.000e-08
Number of eigenvalues below threshold      ... 0
Time for construction of square roots      ...    0.002 sec
Total time needed                          ...    0.006 sec

-------------------
DFT GRID GENERATION
-------------------

General Integration Accuracy     IntAcc      ...  4.340
Radial Grid Type                 RadialGrid  ... Gauss-Chebyshev
Angular Grid (max. acc.)         AngularGrid ... Lebedev-194
Angular grid pruning method      GridPruning ... 3 (G Style)
Weight generation scheme         WeightScheme... Becke
Basis function cutoff            BFCut       ...    1.0000e-11
Integration weight cutoff        WCut        ...    1.0000e-14
Grids for H and He will be reduced by one unit

# of grid points (after initial pruning)     ...  42208 (   0.0 sec)
# of grid points (after weights+screening)   ...  39000 (   0.1 sec)
nearest neighbour list constructed           ...    0.0 sec
Grid point re-assignment to atoms done       ...    0.0 sec
Grid point division into batches done        ...    0.1 sec
Reduced shell lists constructed in    0.3 sec

Total number of grid points                  ...    39000
Total number of batches                      ...      621
Average number of points per batch           ...       62
Average number of grid points per atom       ...     2438
Average number of shells per batch           ...    45.87 (63.71%)
Average number of basis functions per batch  ...    99.06 (65.17%)
Average number of large shells per batch     ...    34.95 (76.18%)
Average number of large basis fcns per batch ...    75.99 (76.71%)
Maximum spatial batch extension              ...  17.35, 17.87, 22.17 au
Average spatial batch extension              ...   2.87,  2.84,  3.61 au

Time for grid setup =    0.377 sec

------------------------------
INITIAL GUESS: MODEL POTENTIAL
------------------------------
Loading Hartree-Fock densities                     ... done
Calculating cut-offs                               ... done
Setting up the integral package                    ... done
Initializing the effective Hamiltonian             ... done
Starting the Coulomb interaction                   ... done (   0.1 sec)
Reading the grid                                   ... done
Mapping shells                                     ... done
Starting the XC term evaluation                    ... done (   0.3 sec)
  promolecular density results
     # of electrons  =     71.995587676
     EX              =    -62.177319617
     EC              =     -2.491654369
     EX+EC           =    -64.668973986
Transforming the Hamiltonian                       ... done (   0.0 sec)
Diagonalizing the Hamiltonian                      ... done (   0.0 sec)
Back transforming the eigenvectors                 ... done (   0.0 sec)
Now organizing SCF variables                       ... done
                      ------------------
                      INITIAL GUESS DONE (   0.8 sec)
                      ------------------
--------------
SCF ITERATIONS
--------------
               ***  Starting incremental Fock matrix formation  ***

                         ----------------------------
                         !        ITERATION     0   !
                         ----------------------------
   Total Energy        :    -491.536929144359 Eh
   Energy Change       :    -491.536929144359 Eh
   MAX-DP              :       0.086379048133
   RMS-DP              :       0.002694543210
   Actual Damping      :       0.7000
   Actual Level Shift  :       0.2500 Eh
   Int. Num. El.       :    71.99880155 (UP=   35.99940078 DN=   35.99940078)
   Exchange            :   -50.67743741
   Correlation         :    -2.95790005


                         ----------------------------
                         !        ITERATION     1   !
                         ----------------------------
   Total Energy        :    -491.677075654024 Eh
   Energy Change       :      -0.140146509666 Eh
   MAX-DP              :       0.050104699798
   RMS-DP              :       0.001688844933
   Actual Damping      :       0.7000
   Actual Level Shift  :       0.2500 Eh
   Int. Num. El.       :    71.99866314 (UP=   35.99933157 DN=   35.99933157)
   Exchange            :   -50.36996714
   Correlation         :    -2.94723841

                               ***Turning on DIIS***

                         ----------------------------
                         !        ITERATION     2   !
                         ----------------------------
   Total Energy        :    -491.726857126426 Eh
   Energy Change       :      -0.049781472402 Eh
   MAX-DP              :       0.063879922299
   RMS-DP              :       0.002626088906
   Actual Damping      :       0.0000
   Actual Level Shift  :       0.2500 Eh
   Int. Num. El.       :    71.99857265 (UP=   35.99928633 DN=   35.99928633)
   Exchange            :   -50.17638081
   Correlation         :    -2.93997379
   DIIS-Error          :       0.038775037962


                         ----------------------------
                         !        ITERATION     3   !
                         ----------------------------
   Total Energy        :    -491.815432592319 Eh
   Energy Change       :      -0.088575465893 Eh
   MAX-DP              :       0.035494004778
   RMS-DP              :       0.001086175535
   Actual Damping      :       0.0000
   Actual Level Shift  :       0.2500 Eh
   Int. Num. El.       :    71.99843983 (UP=   35.99921992 DN=   35.99921992)
   Exchange            :   -49.88685727
   Correlation         :    -2.92823592
   DIIS-Error          :       0.053570384721
   DIIS coefficients:
      0.59288   0.40712


                         ----------------------------
                         !        ITERATION     4   !
                         ----------------------------
   Total Energy        :    -491.829170260710 Eh
   Energy Change       :      -0.013737668391 Eh
   MAX-DP              :       0.011904202137
   RMS-DP              :       0.000407543402
   Actual Damping      :       0.0000
   Actual Level Shift  :       0.2500 Eh
   Int. Num. El.       :    71.99849472 (UP=   35.99924736 DN=   35.99924736)
   Exchange            :   -49.99435713
   Correlation         :    -2.93252329
   DIIS-Error          :       0.017775103773
   DIIS coefficients:
      0.29569   0.14136   0.56295

                      *** Initiating the SOSCF procedure ***
                           *** Shutting down DIIS ***
                      *** Re-Reading the Fockian *** 
                      *** Removing any level shift *** 

                         ----------------------------
                         !        ITERATION     5   !
                         ----------------------------
   Total Energy        :    -491.830648975992 Eh
   Energy Change       :      -0.001478715282 Eh
   MAX-DP              :       0.002747448134
   RMS-DP              :       0.000144086940
   Orbital gradient    :       0.001313580597
   Orbital Rotation    :       0.001313580597
   Actual Damping      :       0.0000
   Int. Num. El.       :    71.99850826 (UP=   35.99925413 DN=   35.99925413)
   Exchange            :   -50.02171962
   Correlation         :    -2.93385198

               *** Restarting incremental Fock matrix formation ***

                         ----------------------------
                         !        ITERATION     6   !
                         ----------------------------
   Total Energy        :    -491.830703019158 Eh
   Energy Change       :      -0.000054043166 Eh
   MAX-DP              :       0.002302630229
   RMS-DP              :       0.000070445890
   Orbital gradient    :       0.000812220024
   Orbital Rotation    :       0.003332457448
   Actual Damping      :       0.0000
   Int. Num. El.       :    71.99851105 (UP=   35.99925552 DN=   35.99925552)
   Exchange            :   -50.03034554
   Correlation         :    -2.93412003


                         ----------------------------
                         !        ITERATION     7   !
                         ----------------------------
   Total Energy        :    -491.830697712304 Eh
   Energy Change       :       0.000005306854 Eh
   MAX-DP              :       0.001215352885
   RMS-DP              :       0.000040094946
   Orbital gradient    :       0.001067866260
   Orbital Rotation    :       0.001138936348
   Actual Damping      :       0.0000
   Int. Num. El.       :    71.99851182 (UP=   35.99925591 DN=   35.99925591)
   Exchange            :   -50.02885443
   Correlation         :    -2.93410920


                         ----------------------------
                         !        ITERATION     8   !
                         ----------------------------
   Total Energy        :    -491.830711459641 Eh
   Energy Change       :      -0.000013747337 Eh
   MAX-DP              :       0.000457530138
   RMS-DP              :       0.000011864734
   Orbital gradient    :       0.000142021691
   Orbital Rotation    :       0.000245170879
   Actual Damping      :       0.0000
   Int. Num. El.       :    71.99851164 (UP=   35.99925582 DN=   35.99925582)
   Exchange            :   -50.02969255
   Correlation         :    -2.93410736


                         ----------------------------
                         !        ITERATION     9   !
                         ----------------------------
   Total Energy        :    -491.830711261784 Eh
   Energy Change       :       0.000000197858 Eh
   MAX-DP              :       0.000261558288
   RMS-DP              :       0.000006786809
   Orbital gradient    :       0.000160703973
   Orbital Rotation    :       0.000297823622
   Actual Damping      :       0.0000
   Int. Num. El.       :    71.99851159 (UP=   35.99925579 DN=   35.99925579)
   Exchange            :   -50.02993019
   Correlation         :    -2.93411608


                         ----------------------------
                         !        ITERATION    10   !
                         ----------------------------
   Total Energy        :    -491.830711712879 Eh
   Energy Change       :      -0.000000451095 Eh
   MAX-DP              :       0.000091491361
   RMS-DP              :       0.000003406630
   Orbital gradient    :       0.000026287948
   Orbital Rotation    :       0.000103930662
   Actual Damping      :       0.0000
   Int. Num. El.       :    71.99851168 (UP=   35.99925584 DN=   35.99925584)
   Exchange            :   -50.02986163
   Correlation         :    -2.93411459


                         ----------------------------
                         !        ITERATION    11   !
                         ----------------------------
   Total Energy        :    -491.830711696010 Eh
   Energy Change       :       0.000000016869 Eh
   MAX-DP              :       0.000064795549
   RMS-DP              :       0.000001866568
   Orbital gradient    :       0.000042662275
   Orbital Rotation    :       0.000061786606
   Actual Damping      :       0.0000
   Int. Num. El.       :    71.99851161 (UP=   35.99925580 DN=   35.99925580)
   Exchange            :   -50.02971855
   Correlation         :    -2.93410917


                         ----------------------------
                         !        ITERATION    12   !
                         ----------------------------
   Total Energy        :    -491.830711724586 Eh
   Energy Change       :      -0.000000028576 Eh
   MAX-DP              :       0.000013182025
   RMS-DP              :       0.000000572598
   Orbital gradient    :       0.000003851400
   Orbital Rotation    :       0.000008733035
   Actual Damping      :       0.0000
   Int. Num. El.       :    71.99851164 (UP=   35.99925582 DN=   35.99925582)
   Exchange            :   -50.02978749
   Correlation         :    -2.93411156


                         ----------------------------
                         !        ITERATION    13   !
                         ----------------------------
   Total Energy        :    -491.830711724730 Eh
   Energy Change       :      -0.000000000144 Eh
   MAX-DP              :       0.000011558431
   RMS-DP              :       0.000000295800
   Orbital gradient    :       0.000004555332
   Orbital Rotation    :       0.000008379250
   Actual Damping      :       0.0000
   Int. Num. El.       :    71.99851166 (UP=   35.99925583 DN=   35.99925583)
   Exchange            :   -50.02982453
   Correlation         :    -2.93411314


                         ----------------------------
                         !        ITERATION    14   !
                         ----------------------------
   Total Energy        :    -491.830711725135 Eh
   Energy Change       :      -0.000000000405 Eh
   MAX-DP              :       0.000011999359
   RMS-DP              :       0.000000264467
   Orbital gradient    :       0.000003493921
   Orbital Rotation    :       0.000010783546
   Actual Damping      :       0.0000
   Int. Num. El.       :    71.99851165 (UP=   35.99925582 DN=   35.99925582)
   Exchange            :   -50.02980398
   Correlation         :    -2.93411230


                         ----------------------------
                         !        ITERATION    15   !
                         ----------------------------
   Total Energy        :    -491.830711724610 Eh
   Energy Change       :       0.000000000525 Eh
   MAX-DP              :       0.000008448713
   RMS-DP              :       0.000000177146
   Orbital gradient    :       0.000006335384
   Orbital Rotation    :       0.000007259105
   Actual Damping      :       0.0000
   Int. Num. El.       :    71.99851165 (UP=   35.99925582 DN=   35.99925582)
   Exchange            :   -50.02979278
   Correlation         :    -2.93411180

                  ***Gradient check signals convergence***
              ***Rediagonalizing the Fockian in SOSCF/NRSCF***

               *****************************************************
               *                     SUCCESS                       *
               *           SCF CONVERGED AFTER  16 CYCLES          *
               *****************************************************

Setting up the final grid:

General Integration Accuracy     IntAcc      ...  5.010
Radial Grid Type                 RadialGrid  ... Gauss-Chebyshev
Angular Grid (max. acc.)         AngularGrid ... Lebedev-434
Angular grid pruning method      GridPruning ... 3 (G Style)
Weight generation scheme         WeightScheme... Becke
Basis function cutoff            BFCut       ...    1.0000e-11
Integration weight cutoff        WCut        ...    1.0000e-14
Grids for H and He will be reduced by one unit

# of grid points (after initial pruning)     ... 147204 (   0.1 sec)
# of grid points (after weights+screening)   ... 134792 (   0.2 sec)
nearest neighbour list constructed           ...    0.0 sec
Grid point re-assignment to atoms done       ...    0.0 sec
Grid point division into batches done        ...    0.7 sec
Reduced shell lists constructed in    1.4 sec

Total number of grid points                  ...   134792
Total number of batches                      ...     2115
Average number of points per batch           ...       63
Average number of grid points per atom       ...     8424
Average number of shells per batch           ...    42.15 (58.55%)
Average number of basis functions per batch  ...    90.69 (59.66%)
Average number of large shells per batch     ...    31.68 (75.15%)
Average number of large basis fcns per batch ...    68.57 (75.61%)
Maximum spatial batch extension              ...  16.74, 16.73, 22.82 au
Average spatial batch extension              ...   2.00,  1.98,  2.24 au

Final grid set up in    1.7 sec
Final integration                            ... done (   1.1 sec)
Change in XC energy                          ...    -0.000320442
Integrated number of electrons               ...    71.999989569
Previous integrated no of electrons          ...    71.998511650

----------------
TOTAL SCF ENERGY
----------------

Total Energy       :         -491.83103217 Eh          -13383.40278 eV

Components:
Nuclear Repulsion  :          494.66558753 Eh           13460.53496 eV
Electronic Energy  :         -986.49661970 Eh          -26843.93774 eV
One Electron Energy:        -1649.47242917 Eh          -44884.42668 eV
Two Electron Energy:          662.97580947 Eh           18040.48894 eV

Virial components:
Potential Energy   :         -980.77275034 Eh          -26688.18334 eV
Kinetic Energy     :          488.94171817 Eh           13304.78055 eV
Virial Ratio       :            2.00590932


DFT components:
N(Alpha)           :       35.999994784357 electrons
N(Beta)            :       35.999994784357 electrons
N(Total)           :       71.999989568714 electrons
E(X)               :      -50.030091496867 Eh       
E(C)               :       -2.934143336436 Eh       
E(XC)              :      -52.964234833303 Eh       
DFET-embed. en.    :        0.000000000000 Eh       

---------------
SCF CONVERGENCE
---------------

  Last Energy change         ...   -6.5984e-10  Tolerance :   1.0000e-08
  Last MAX-Density change    ...    2.0337e-06  Tolerance :   1.0000e-07
  Last RMS-Density change    ...    6.9157e-08  Tolerance :   5.0000e-09
  Last Orbital Gradient      ...    5.6827e-07  Tolerance :   1.0000e-05
  Last Orbital Rotation      ...    2.0353e-06  Tolerance :   1.0000e-05

             **** THE GBW FILE WAS UPDATED (/Users/lailaal-madhagi/Desktop/Testing_XAS_Analysis_code/ParaNitroAniline//Results_dir_ParaNitroAniline_geom_element_C_2019-11-16_00-52-09//GTE1_ParaNitroAniline_geom_2019-11-16_00-52-43//TDDFT_C-edge.gbw) ****
             **** DENSITY FILE WAS UPDATED (/Users/lailaal-madhagi/Desktop/Testing_XAS_Analysis_code/ParaNitroAniline//Results_dir_ParaNitroAniline_geom_element_C_2019-11-16_00-52-09//GTE1_ParaNitroAniline_geom_2019-11-16_00-52-43//TDDFT_C-edge.scfp.tmp) ****
             **** ENERGY FILE WAS UPDATED (/Users/lailaal-madhagi/Desktop/Testing_XAS_Analysis_code/ParaNitroAniline//Results_dir_ParaNitroAniline_geom_element_C_2019-11-16_00-52-09//GTE1_ParaNitroAniline_geom_2019-11-16_00-52-43//TDDFT_C-edge.en.tmp) ****
----------------
ORBITAL ENERGIES
----------------

  NO   OCC          E(Eh)            E(eV) 
   0   2.0000     -19.152406      -521.1635 
   1   2.0000     -19.152331      -521.1614 
   2   2.0000     -14.544864      -395.7859 
   3   2.0000     -14.362254      -390.8168 
   4   2.0000     -10.253483      -279.0115 
   5   2.0000     -10.223360      -278.1918 
   6   2.0000     -10.202565      -277.6259 
   7   2.0000     -10.202512      -277.6245 
   8   2.0000     -10.195838      -277.4429 
   9   2.0000     -10.195776      -277.4412 
  10   2.0000      -1.198520       -32.6134 
  11   2.0000      -1.024937       -27.8899 
  12   2.0000      -0.945948       -25.7405 
  13   2.0000      -0.866369       -23.5751 
  14   2.0000      -0.781164       -21.2566 
  15   2.0000      -0.764037       -20.7905 
  16   2.0000      -0.682707       -18.5774 
  17   2.0000      -0.634718       -17.2715 
  18   2.0000      -0.590677       -16.0731 
  19   2.0000      -0.550139       -14.9700 
  20   2.0000      -0.544320       -14.8117 
  21   2.0000      -0.524393       -14.2695 
  22   2.0000      -0.508644       -13.8409 
  23   2.0000      -0.486913       -13.2496 
  24   2.0000      -0.457545       -12.4504 
  25   2.0000      -0.446178       -12.1411 
  26   2.0000      -0.437905       -11.9160 
  27   2.0000      -0.412388       -11.2217 
  28   2.0000      -0.402071       -10.9409 
  29   2.0000      -0.360110        -9.7991 
  30   2.0000      -0.329893        -8.9769 
  31   2.0000      -0.287187        -7.8147 
  32   2.0000      -0.286163        -7.7869 
  33   2.0000      -0.267656        -7.2833 
  34   2.0000      -0.267176        -7.2702 
  35   2.0000      -0.220825        -6.0090 
  36   0.0000      -0.064710        -1.7608 
  37   0.0000      -0.013687        -0.3724 
  38   0.0000       0.029360         0.7989 
  39   0.0000       0.058602         1.5946 
  40   0.0000       0.094482         2.5710 
  41   0.0000       0.101209         2.7540 
  42   0.0000       0.155307         4.2261 
  43   0.0000       0.160665         4.3719 
  44   0.0000       0.161923         4.4061 
  45   0.0000       0.192223         5.2307 
  46   0.0000       0.209559         5.7024 
  47   0.0000       0.240817         6.5530 
  48   0.0000       0.281845         7.6694 
  49   0.0000       0.289568         7.8796 
  50   0.0000       0.318028         8.6540 
  51   0.0000       0.333425         9.0729 
  52   0.0000       0.351185         9.5562 
  53   0.0000       0.389781        10.6065 
  54   0.0000       0.492404        13.3990 
  55   0.0000       0.499675        13.5968 
  56   0.0000       0.506803        13.7908 
  57   0.0000       0.528355        14.3773 
  58   0.0000       0.552602        15.0371 
  59   0.0000       0.565392        15.3851 
  60   0.0000       0.572767        15.5858 
  61   0.0000       0.574703        15.6385 
  62   0.0000       0.583681        15.8828 
  63   0.0000       0.595119        16.1940 
  64   0.0000       0.617581        16.8052 
  65   0.0000       0.645753        17.5718 
  66   0.0000       0.648730        17.6528 
  67   0.0000       0.658493        17.9185 
  68   0.0000       0.662419        18.0253 
  69   0.0000       0.732858        19.9421 
  70   0.0000       0.734598        19.9894 
  71   0.0000       0.747468        20.3396 
  72   0.0000       0.799130        21.7454 
  73   0.0000       0.801275        21.8038 
  74   0.0000       0.818267        22.2662 
  75   0.0000       0.829957        22.5843 
  76   0.0000       0.848956        23.1013 
  77   0.0000       0.858515        23.3614 
  78   0.0000       0.860687        23.4205 
  79   0.0000       0.882452        24.0127 
  80   0.0000       0.903637        24.5892 
  81   0.0000       0.953796        25.9541 
  82   0.0000       0.962742        26.1975 
  83   0.0000       0.968221        26.3466 
  84   0.0000       0.979610        26.6565 
  85   0.0000       1.009216        27.4622 
  86   0.0000       1.015738        27.6396 
  87   0.0000       1.021256        27.7898 
  88   0.0000       1.093390        29.7527 
  89   0.0000       1.094729        29.7891 
  90   0.0000       1.141183        31.0532 
  91   0.0000       1.160924        31.5903 
  92   0.0000       1.210262        32.9329 
  93   0.0000       1.226179        33.3660 
  94   0.0000       1.272170        34.6175 
  95   0.0000       1.288547        35.0631 
  96   0.0000       1.330740        36.2113 
  97   0.0000       1.367812        37.2200 
  98   0.0000       1.402138        38.1541 
  99   0.0000       1.414159        38.4812 
 100   0.0000       1.435681        39.0669 
 101   0.0000       1.451713        39.5031 
 102   0.0000       1.457609        39.6636 
 103   0.0000       1.480656        40.2907 
 104   0.0000       1.492652        40.6171 
 105   0.0000       1.609967        43.8094 
 106   0.0000       1.620158        44.0868 
 107   0.0000       1.639308        44.6078 
 108   0.0000       1.733327        47.1662 
 109   0.0000       1.741676        47.3934 
 110   0.0000       1.764093        48.0034 
 111   0.0000       1.787054        48.6282 
 112   0.0000       1.814487        49.3747 
 113   0.0000       1.829763        49.7904 
 114   0.0000       1.845500        50.2186 
 115   0.0000       1.848243        50.2933 
 116   0.0000       1.894535        51.5529 
 117   0.0000       1.931321        52.5539 
 118   0.0000       1.965386        53.4809 
 119   0.0000       1.969631        53.5964 
 120   0.0000       1.984602        54.0038 
 121   0.0000       1.990156        54.1549 
 122   0.0000       2.049270        55.7635 
 123   0.0000       2.076550        56.5058 
 124   0.0000       2.120304        57.6964 
 125   0.0000       2.132616        58.0314 
 126   0.0000       2.155122        58.6438 
 127   0.0000       2.169607        59.0380 
 128   0.0000       2.223777        60.5120 
 129   0.0000       2.238398        60.9099 
 130   0.0000       2.265261        61.6409 
 131   0.0000       2.298945        62.5575 
 132   0.0000       2.349952        63.9454 
 133   0.0000       2.398248        65.2596 
 134   0.0000       2.431304        66.1591 
 135   0.0000       2.485928        67.6455 
 136   0.0000       2.517568        68.5065 
 137   0.0000       2.543493        69.2120 
 138   0.0000       2.592350        70.5414 
 139   0.0000       2.619084        71.2689 
 140   0.0000       2.707646        73.6788 
 141   0.0000       2.721043        74.0434 
 142   0.0000       2.721439        74.0541 
 143   0.0000       2.764135        75.2159 
 144   0.0000       2.837999        77.2259 
 145   0.0000       2.874549        78.2204 
 146   0.0000       2.925300        79.6015 
 147   0.0000       2.931750        79.7770 
 148   0.0000       3.035803        82.6084 
 149   0.0000       3.092876        84.1614 
 150   0.0000       3.219281        87.6011 
 151   0.0000       3.422042        93.1185 
------------------
MOLECULAR ORBITALS
------------------
                      0         1         2         3         4         5   
                 -19.15241 -19.15233 -14.54486 -14.36225 -10.25348 -10.22336
                   2.00000   2.00000   2.00000   2.00000   2.00000   2.00000
                  --------  --------  --------  --------  --------  --------
  0C   1s        -0.000013 -0.000047 -0.000017 -0.000076  0.003062 -0.000044
  0C   2s        -0.000060 -0.000335 -0.000226 -0.000678 -0.002215  0.000025
  0C   1pz       -0.000003  0.000000 -0.000003 -0.000001 -0.000048  0.000003
  0C   1px       -0.000042 -0.000012 -0.000176 -0.000011 -0.000928  0.000223
  0C   1py       -0.000067  0.000047  0.000185 -0.000057 -0.000669 -0.000276
  0C   3s         0.000611  0.002594 -0.004885  0.007929  0.019300  0.009836
  0C   2pz        0.000146 -0.000025 -0.000012  0.000148  0.000366  0.000086
  0C   2px        0.002365  0.000262 -0.001070  0.005928  0.011085  0.003901
  0C   2py        0.002878 -0.001713  0.001386 -0.003589 -0.002403 -0.002951
  0C   1dz2      -0.000007 -0.000117 -0.000073 -0.000198  0.000451  0.000047
  0C   1dxz       0.000002  0.000004  0.000004  0.000023 -0.000052 -0.000006
  0C   1dyz       0.000002  0.000005  0.000003 -0.000005 -0.000054 -0.000002
  0C   1dx2y2     0.000012 -0.000089 -0.000028  0.000341 -0.000041 -0.000046
  0C   1dxy       0.000043 -0.000018  0.000007 -0.000139 -0.001033 -0.000044
  1C   1s        -0.000000  0.000003 -0.000032  0.000153  0.995141 -0.000359
  1C   2s         0.000001 -0.000039 -0.000386 -0.000120  0.036873  0.000832
  1C   1pz       -0.000001 -0.000000  0.000002 -0.000015  0.000004 -0.000004
  1C   1px       -0.000035  0.000003 -0.000022  0.000143 -0.000046  0.000037
  1C   1py       -0.000004 -0.000027  0.000155 -0.001002  0.000319 -0.000261
  1C   3s        -0.000000  0.000032  0.001182  0.004142 -0.031160 -0.005139
  1C   2pz        0.000159  0.000015 -0.000049  0.000270  0.000286  0.000105
  1C   2px        0.003952  0.000044  0.000466 -0.002561 -0.002747 -0.001006
  1C   2py        0.000537  0.000677 -0.003263  0.017945  0.019246  0.007044
  1C   1dz2      -0.000000  0.000001 -0.000022  0.000329 -0.001002  0.000084
  1C   1dxz      -0.000001  0.000002  0.000006  0.000008  0.000038 -0.000011
  1C   1dyz      -0.000003 -0.000000 -0.000000 -0.000017  0.000041 -0.000002
  1C   1dx2y2     0.000022  0.000040  0.000107  0.000681 -0.000621 -0.000127
  1C   1dxy      -0.000081  0.000008  0.000031  0.000198 -0.000182 -0.000037
  2C   1s         0.000024 -0.000021 -0.000065  0.000007  0.000016 -0.010171
  2C   2s         0.000202 -0.000318 -0.000620 -0.000042  0.000071  0.001906
  2C   1pz       -0.000002  0.000002  0.000001 -0.000007 -0.000010  0.000035
  2C   1px       -0.000063 -0.000073  0.000006 -0.000085 -0.000105  0.001147
  2C   1py        0.000040  0.000204  0.000053 -0.000186 -0.000314 -0.000380
  2C   3s        -0.008423  0.000149  0.006920 -0.005979 -0.010617 -0.017230
  2C   2pz       -0.000136  0.000052  0.000256 -0.000108 -0.000250 -0.000408
  2C   2px       -0.005979  0.002340  0.004054 -0.001651 -0.004345 -0.007768
  2C   2py        0.004317 -0.001734  0.005166 -0.002287 -0.004303 -0.005789
  2C   1dz2       0.000012 -0.000070 -0.000186 -0.000028 -0.000037 -0.000516
  2C   1dxz      -0.000001  0.000016  0.000026  0.000000  0.000003  0.000042
  2C   1dyz       0.000005  0.000000  0.000015 -0.000000 -0.000002 -0.000031
  2C   1dx2y2    -0.000061  0.000270  0.000191 -0.000011  0.000054  0.000717
  2C   1dxy       0.000108  0.000081  0.000321 -0.000045 -0.000051 -0.000920
  3C   1s        -0.000002  0.000046  0.000031 -0.000038 -0.000526 -0.994928
  3C   2s        -0.000004  0.000112 -0.000129 -0.000397 -0.000875 -0.036627
  3C   1pz        0.000002  0.000005  0.000007 -0.000002 -0.000003  0.000003
  3C   1px        0.000063 -0.000042 -0.000067  0.000016  0.000030 -0.000032
  3C   1py       -0.000002  0.000307  0.000467 -0.000113 -0.000211  0.000226
  3C   3s         0.000088 -0.002418  0.006799  0.002963  0.007649  0.026510
  3C   2pz       -0.000676 -0.000093 -0.000285  0.000056  0.000110  0.000258
  3C   2px       -0.016787  0.000082  0.002737 -0.000538 -0.001054 -0.002481
  3C   2py       -0.002219 -0.004766 -0.019193  0.003773  0.007390  0.017398
  3C   1dz2       0.000003 -0.000081 -0.000056 -0.000034 -0.000095  0.001050
  3C   1dxz       0.000005  0.000007  0.000011  0.000006  0.000012 -0.000057
  3C   1dyz       0.000025  0.000003  0.000000  0.000000  0.000002 -0.000039
  3C   1dx2y2    -0.000170  0.000023  0.000177  0.000088  0.000126  0.000271
  3C   1dxy       0.000580  0.000029  0.000052  0.000026  0.000037  0.000080
  4C   1s        -0.000023 -0.000023 -0.000065  0.000007  0.000016 -0.010140
  4C   2s        -0.000179 -0.000332 -0.000620 -0.000042  0.000071  0.001906
  4C   1pz       -0.000003  0.000005  0.000000  0.000002  0.000002 -0.000051
  4C   1px       -0.000050  0.000010 -0.000021  0.000133  0.000188 -0.000995
  4C   1py       -0.000071  0.000212  0.000050 -0.000155 -0.000273 -0.000684
  4C   3s         0.008392  0.000738  0.006921 -0.005979 -0.010617 -0.017231
  4C   2pz       -0.000278 -0.000132 -0.000123  0.000049  0.000142  0.000272
  4C   2px       -0.004399 -0.002074 -0.005339  0.002226  0.005377  0.009079
  4C   2py       -0.005633 -0.002716  0.003830 -0.001736 -0.002921 -0.003394
  4C   1dz2      -0.000007 -0.000071 -0.000186 -0.000028 -0.000037 -0.000514
  4C   1dxz       0.000002  0.000016  0.000021  0.000001  0.000005  0.000061
  4C   1dyz       0.000005  0.000000 -0.000007  0.000003  0.000004  0.000059
  4C   1dx2y2    -0.000026  0.000270  0.000333 -0.000033  0.000018  0.000112
  4C   1dxy       0.000118  0.000084 -0.000169  0.000032  0.000072  0.001160
  5C   1s         0.000016 -0.000046 -0.000017 -0.000076  0.003066 -0.000043
  5C   2s         0.000084 -0.000330 -0.000226 -0.000678 -0.002216  0.000025
  5C   1pz       -0.000001  0.000001  0.000009  0.000000  0.000033 -0.000012
  5C   1px       -0.000059 -0.000006  0.000118  0.000027  0.001078 -0.000137
  5C   1py        0.000049  0.000052  0.000227 -0.000052 -0.000384 -0.000327
  5C   3s        -0.000795  0.002543 -0.004885  0.007930  0.019302  0.009836
  5C   2pz        0.000074 -0.000021  0.000057 -0.000280 -0.000482 -0.000189
  5C   2px        0.003054  0.000441  0.000640 -0.004688 -0.009972 -0.002920
  5C   2py       -0.001979 -0.001860  0.001629 -0.005098 -0.005396 -0.003920
  5C   1dz2       0.000015 -0.000117 -0.000073 -0.000197  0.000453  0.000047
  5C   1dxz      -0.000001  0.000004  0.000004  0.000027 -0.000034 -0.000005
  5C   1dyz       0.000001  0.000005  0.000002  0.000014  0.000028  0.000000
  5C   1dx2y2    -0.000027 -0.000087 -0.000020  0.000213 -0.000589 -0.000062
  5C   1dxy       0.000032 -0.000031 -0.000022  0.000300  0.000851  0.000012
  6N   1s         0.000000 -0.000006 -0.000061  0.995276  0.000155  0.000038
  6N   2s         0.000002 -0.000065 -0.000282  0.032855  0.000648  0.000389
  6N   1pz        0.000001  0.000001  0.000000 -0.000001  0.000015  0.000000
  6N   1px        0.000021 -0.000006 -0.000000  0.000067 -0.000146 -0.000002
  6N   1py        0.000001  0.000048  0.000003 -0.000468  0.001026  0.000013
  6N   3s         0.000008 -0.000204  0.002157 -0.030644 -0.008590 -0.003689
  6N   2pz       -0.000031 -0.000004 -0.000014  0.000089  0.000080  0.000021
  6N   2px       -0.000757  0.000002  0.000135 -0.000939 -0.000760 -0.000203
  6N   2py       -0.000101 -0.000202 -0.000947  0.006579  0.005324  0.001423
  6N   1dz2       0.000002 -0.000044 -0.000045  0.000069  0.001148  0.000038
  6N   1dxz       0.000000  0.000002  0.000000  0.000003 -0.000001  0.000000
  6N   1dyz       0.000002  0.000002  0.000002 -0.000004 -0.000056 -0.000002
  6N   1dx2y2    -0.000011 -0.000022 -0.000064  0.000173  0.001687  0.000063
  6N   1dxy       0.000042 -0.000005 -0.000019  0.000050  0.000492  0.000018
  7H   1s         0.000093 -0.000051  0.000015  0.000225  0.000025  0.000081
  7H   2s         0.000306  0.000245  0.000064  0.001983  0.003083  0.000686
  8H   1s         0.000293 -0.000188  0.000247 -0.000053 -0.000185 -0.000082
  8H   2s        -0.000808  0.000651  0.001886 -0.000344 -0.001144 -0.002320
  9H   1s        -0.000279 -0.000208  0.000247 -0.000053 -0.000185 -0.000082
  9H   2s         0.000761  0.000705  0.001887 -0.000344 -0.001145 -0.002320
 10H   1s        -0.000090 -0.000058  0.000015  0.000226  0.000025  0.000081
 10H   2s        -0.000323  0.000223  0.000064  0.001982  0.003082  0.000686
 11H   1s        -0.000070 -0.000012 -0.000055 -0.000171  0.000059  0.000079
 11H   2s        -0.000244  0.000122  0.000086  0.002794 -0.000631 -0.000117
 12H   1s         0.000071 -0.000007 -0.000055 -0.000170  0.000059  0.000079
 12H   2s         0.000235  0.000139  0.000086  0.002793 -0.000631 -0.000117
 13N   1s        -0.000005  0.000144  0.995298  0.000006 -0.000041 -0.000217
 13N   2s         0.000008 -0.000212  0.033306 -0.000277 -0.000413 -0.001193
 13N   1pz       -0.000013  0.000005 -0.000009 -0.000000 -0.000001  0.000004
 13N   1px       -0.000322 -0.000062  0.000087  0.000005  0.000005 -0.000041
 13N   1py       -0.000058  0.000352 -0.000604 -0.000033 -0.000038  0.000286
 13N   3s        -0.000431  0.012376 -0.022675  0.002065  0.003574  0.008667
 13N   2pz        0.000916 -0.000100 -0.000189  0.000015  0.000021  0.000110
 13N   2px        0.022340  0.002047  0.001825 -0.000141 -0.000203 -0.001065
 13N   2py        0.003488 -0.008746 -0.012766  0.000985  0.001419  0.007449
 13N   1dz2      -0.000006  0.000181 -0.000720 -0.000046 -0.000070 -0.001162
 13N   1dxz       0.000006 -0.000040  0.000101  0.000003  0.000004  0.000017
 13N   1dyz       0.000021  0.000000  0.000014  0.000002  0.000002  0.000053
 13N   1dx2y2    -0.000116 -0.000650  0.001220 -0.000011 -0.000002 -0.001344
 13N   1dxy       0.000484 -0.000170  0.000353 -0.000003 -0.000001 -0.000392
 14O   1s        -0.727880  0.678670  0.000134  0.000000  0.000001  0.000002
 14O   2s        -0.022464  0.019934  0.000590 -0.000020 -0.000021  0.000034
 14O   1pz       -0.000070  0.000059 -0.000030 -0.000001 -0.000001  0.000000
 14O   1px       -0.001313  0.001038 -0.000559 -0.000019 -0.000027 -0.000074
 14O   1py       -0.001007  0.000974 -0.000453 -0.000003 -0.000005  0.000159
 14O   3s         0.022911 -0.014188 -0.002916 -0.000000 -0.000078  0.000592
 14O   2pz        0.000364 -0.000232 -0.000108 -0.000001 -0.000004  0.000003
 14O   2px        0.006074 -0.004941 -0.002696  0.000036 -0.000017  0.000712
 14O   2py        0.006557 -0.002225 -0.000269 -0.000108 -0.000159 -0.001208
 14O   1dz2      -0.000469  0.000177  0.001202  0.000005  0.000013  0.000136
 14O   1dxz       0.000035 -0.000043 -0.000142 -0.000000 -0.000001 -0.000001
 14O   1dyz       0.000053 -0.000003 -0.000084 -0.000002 -0.000002 -0.000016
 14O   1dx2y2    -0.000319 -0.000674 -0.000828  0.000019  0.000016  0.000294
 14O   1dxy       0.000794 -0.000280 -0.001535 -0.000025 -0.000043 -0.000133
 15O   1s         0.678726  0.727828  0.000134  0.000000  0.000001  0.000002
 15O   2s         0.021019  0.021454  0.000590 -0.000020 -0.000021  0.000034
 15O   1pz       -0.000044 -0.000038  0.000020  0.000001  0.000001  0.000005
 15O   1px       -0.001451 -0.001374  0.000664  0.000019  0.000027  0.000027
 15O   1py        0.000555  0.000686 -0.000280  0.000002  0.000002  0.000173
 15O   3s        -0.021867 -0.015756 -0.002921 -0.000000 -0.000078  0.000594
 15O   2pz        0.000184  0.000201  0.000111 -0.000002 -0.000001 -0.000041
 15O   2px        0.007274  0.005891  0.002666 -0.000004  0.000060 -0.000347
 15O   2py       -0.004541 -0.001081  0.000492 -0.000114 -0.000148 -0.001358
 15O   1dz2       0.000457  0.000210  0.001205  0.000005  0.000013  0.000137
 15O   1dxz      -0.000017 -0.000043 -0.000119  0.000000 -0.000000  0.000003
 15O   1dyz       0.000018  0.000005  0.000021  0.000001  0.000001  0.000002
 15O   1dx2y2    -0.000105 -0.000728 -0.001523  0.000003 -0.000009  0.000177
 15O   1dxy       0.000848 -0.000065  0.000855  0.000032  0.000045  0.000270
                      6         7         8         9        10        11   
                 -10.20257 -10.20251 -10.19584 -10.19578  -1.19852  -1.02494
                   2.00000   2.00000   2.00000   2.00000   2.00000   2.00000
                  --------  --------  --------  --------  --------  --------
  0C   1s        -0.035275  0.001278 -0.020193  0.994307 -0.000323  0.000707
  0C   2s         0.000935 -0.000530 -0.000851  0.036706  0.002531 -0.001058
  0C   1pz       -0.000020 -0.000003 -0.000011  0.000026  0.000009  0.000025
  0C   1px        0.000206 -0.000162 -0.000250  0.000889  0.001002  0.000017
  0C   1py       -0.001367  0.000130 -0.000068 -0.000367 -0.001416  0.001218
  0C   3s        -0.012762  0.003866 -0.003431 -0.034112  0.010867 -0.002962
  0C   2pz       -0.000099  0.000050 -0.000036 -0.000239  0.000063 -0.000487
  0C   2px       -0.004500  0.002232 -0.001772 -0.007615  0.002007 -0.008015
  0C   2py        0.003442 -0.001633  0.001496  0.002283 -0.000622 -0.009283
  0C   1dz2      -0.000605 -0.000017 -0.000064 -0.000605  0.000258  0.000180
  0C   1dxz      -0.000007  0.000004  0.000001  0.000028 -0.000011 -0.000007
  0C   1dyz       0.000034 -0.000000  0.000002  0.000039 -0.000014 -0.000011
  0C   1dx2y2    -0.001099  0.000065 -0.000067 -0.000429  0.000180  0.000154
  0C   1dxy      -0.000256  0.000011 -0.000038  0.000249 -0.000035 -0.000046
  1C   1s         0.000071 -0.000084 -0.003191 -0.003320 -0.000146  0.000001
  1C   2s         0.000065 -0.000075 -0.002145 -0.002233  0.001632 -0.000001
  1C   1pz       -0.000008 -0.000001 -0.000035  0.000052 -0.000012  0.000017
  1C   1px       -0.000102 -0.000141 -0.001188  0.000964  0.000118  0.000424
  1C   1py       -0.000194  0.000186  0.000461  0.000793 -0.000819  0.000060
  1C   3s         0.005054 -0.005787  0.012619  0.013141 -0.002760  0.000011
  1C   2pz       -0.000087 -0.000036  0.000070 -0.000242  0.000124 -0.000533
  1C   2px       -0.001491 -0.001676  0.004733 -0.002871 -0.001181 -0.013190
  1C   2py       -0.001552  0.001295 -0.005300 -0.006629  0.008350 -0.001877
  1C   1dz2      -0.000018  0.000021  0.000632  0.000657 -0.000013  0.000000
  1C   1dxz       0.000000  0.000002 -0.000059 -0.000079 -0.000015  0.000002
  1C   1dyz       0.000007  0.000004  0.000023 -0.000055  0.000004  0.000008
  1C   1dx2y2    -0.000090  0.000026 -0.000882 -0.000389 -0.000371 -0.000052
  1C   1dxy       0.000116  0.000132  0.000732 -0.001061 -0.000109  0.000177
  2C   1s        -0.992155  0.067734  0.001775 -0.035464 -0.004484  0.004877
  2C   2s        -0.036536  0.002456 -0.000296 -0.003618  0.011887 -0.010078
  2C   1pz       -0.000045 -0.000006 -0.000006 -0.000024  0.000088  0.000020
  2C   1px       -0.000885 -0.000162 -0.000130  0.000127  0.005589 -0.002458
  2C   1py       -0.000578  0.000014 -0.000037 -0.001436 -0.006018  0.005518
  2C   3s         0.032870 -0.006669  0.002436  0.015875 -0.021016  0.021870
  2C   2pz        0.000319 -0.000124  0.000086  0.000259 -0.001044  0.000412
  2C   2px        0.006395 -0.002225  0.001163  0.004205 -0.019860  0.018262
  2C   2py        0.003919 -0.001999  0.002090  0.005022 -0.014900 -0.013340
  2C   1dz2       0.000601 -0.000121 -0.000067  0.000622 -0.000368  0.000524
  2C   1dxz      -0.000026  0.000003  0.000003  0.000008 -0.000046 -0.000035
  2C   1dyz      -0.000008  0.000004  0.000003 -0.000028 -0.000035 -0.000028
  2C   1dx2y2     0.000111 -0.000094 -0.000028  0.001064 -0.000898  0.000097
  2C   1dxy       0.000416 -0.000067 -0.000006  0.000404 -0.001775 -0.000209
  3C   1s         0.009635 -0.011014  0.000349  0.000358 -0.028083  0.000012
  3C   2s         0.002360 -0.002704  0.000059  0.000059  0.053938 -0.000020
  3C   1pz       -0.000040 -0.000054 -0.000003 -0.000002 -0.000683  0.000967
  3C   1px       -0.001329 -0.000975  0.000005  0.000039  0.006582  0.023762
  3C   1py        0.000462 -0.000885 -0.000154 -0.000157 -0.046086  0.003383
  3C   3s        -0.013070  0.014983 -0.006139 -0.006387 -0.005598  0.000020
  3C   2pz        0.000071  0.000216 -0.000129  0.000074  0.001190  0.002174
  3C   2px        0.004392  0.002352 -0.002335  0.002725 -0.011452  0.053756
  3C   2py       -0.004611  0.006337 -0.002064 -0.001413  0.080251  0.007655
  3C   1dz2      -0.000601  0.000687 -0.000046 -0.000048 -0.004024 -0.000007
  3C   1dxz       0.000057 -0.000083  0.000006  0.000007 -0.000006 -0.000056
  3C   1dyz      -0.000025 -0.000053 -0.000002  0.000004  0.000198 -0.000270
  3C   1dx2y2     0.000896 -0.000477  0.000096  0.000062 -0.006155  0.001797
  3C   1dxy      -0.000757 -0.001024 -0.000041  0.000085 -0.001800 -0.006169
  4C   1s         0.067754  0.992132 -0.036114  0.000318 -0.004485 -0.004867
  4C   2s         0.002532  0.036530 -0.003625 -0.000443  0.011882  0.010072
  4C   1pz       -0.000011 -0.000030 -0.000018  0.000004 -0.000285 -0.000149
  4C   1px       -0.000287 -0.000982  0.000275  0.000146 -0.003679 -0.000807
  4C   1py       -0.000016  0.000313 -0.001414 -0.000057 -0.007340 -0.005981
  4C   3s         0.002141 -0.033465  0.015778  0.003077 -0.020969 -0.021904
  4C   2pz       -0.000043  0.000239 -0.000129 -0.000035  0.000691  0.000876
  4C   2px       -0.001688  0.007535 -0.005372 -0.001920  0.023176  0.013792
  4C   2py        0.001019 -0.002138  0.003580  0.001830 -0.008731  0.017952
  4C   1dz2       0.000039 -0.000611  0.000625 -0.000042 -0.000368 -0.000523
  4C   1dxz       0.000001  0.000033  0.000006  0.000003 -0.000020  0.000030
  4C   1dyz      -0.000002  0.000039 -0.000036  0.000001  0.000085  0.000009
  4C   1dx2y2     0.000071 -0.000328  0.001115  0.000019 -0.001712  0.000025
  4C   1dxy       0.000033  0.000289  0.000230 -0.000000  0.001016 -0.000232
  5C   1s         0.003570  0.035727  0.994284  0.020257 -0.000322 -0.000704
  5C   2s         0.000400 -0.000977  0.036709  0.000642  0.002537  0.001058
  5C   1pz       -0.000005  0.000022 -0.000041  0.000008 -0.000054 -0.000010
  5C   1px       -0.000143 -0.000167 -0.000761  0.000228 -0.000568  0.000357
  5C   1py        0.000018  0.001380 -0.000600 -0.000020 -0.001637 -0.001163
  5C   3s        -0.002099  0.013150 -0.033949 -0.004814  0.010795  0.002913
  5C   2pz        0.000077 -0.000230  0.000333  0.000101 -0.000086 -0.000247
  5C   2px        0.001215 -0.003553  0.006616  0.001553 -0.001718 -0.010281
  5C   2py        0.001551 -0.004812  0.004232  0.002103 -0.001121  0.006714
  5C   1dz2       0.000099  0.000596 -0.000603 -0.000089  0.000259 -0.000179
  5C   1dxz      -0.000003  0.000009  0.000022  0.000002 -0.000009  0.000005
  5C   1dyz      -0.000004 -0.000028  0.000009  0.000004 -0.000007  0.000004
  5C   1dx2y2     0.000085  0.001062 -0.000226 -0.000086  0.000134 -0.000103
  5C   1dxy       0.000025  0.000374 -0.000442 -0.000022  0.000127 -0.000122
  6N   1s         0.000019 -0.000021 -0.000019 -0.000019  0.000070  0.000001
  6N   2s         0.000184 -0.000211 -0.000299 -0.000312  0.000835 -0.000000
  6N   1pz       -0.000002 -0.000001  0.000000  0.000003 -0.000002 -0.000003
  6N   1px       -0.000041 -0.000040 -0.000053  0.000019  0.000018 -0.000064
  6N   1py       -0.000024  0.000015  0.000108  0.000123 -0.000126 -0.000009
  6N   3s        -0.000675  0.000775  0.001330  0.001386 -0.005752 -0.000004
  6N   2pz        0.000034  0.000011 -0.000018  0.000006  0.000050  0.000106
  6N   2px        0.000517  0.000626 -0.000257  0.000358 -0.000475  0.002608
  6N   2py        0.000694 -0.000623 -0.000431 -0.000361  0.003296  0.000374
  6N   1dz2       0.000051 -0.000058 -0.000114 -0.000119  0.000148  0.000000
  6N   1dxz      -0.000000  0.000001  0.000012  0.000011 -0.000002 -0.000001
  6N   1dyz      -0.000003  0.000003  0.000006  0.000000 -0.000007 -0.000005
  6N   1dx2y2     0.000066 -0.000072  0.000071  0.000114  0.000183  0.000035
  6N   1dxy       0.000012 -0.000027  0.000096 -0.000039  0.000053 -0.000119
  7H   1s         0.000194  0.000082 -0.000037 -0.001331  0.000071 -0.000460
  7H   2s        -0.001124  0.000722 -0.000408  0.002578 -0.001462 -0.001154
  8H   1s         0.001338 -0.000123  0.000084 -0.000084  0.002165 -0.005148
  8H   2s        -0.002631 -0.000248  0.000718  0.001053 -0.008517  0.000239
  9H   1s        -0.000060 -0.001343 -0.000087  0.000080  0.002168  0.005144
  9H   2s         0.000604  0.002573  0.001021  0.000760 -0.008481 -0.000204
 10H   1s        -0.000108 -0.000182 -0.001328 -0.000091  0.000070  0.000459
 10H   2s        -0.000563  0.001213  0.002593 -0.000303 -0.001479  0.001141
 11H   1s         0.000132  0.000048 -0.000068 -0.000083  0.000133  0.000205
 11H   2s        -0.000005  0.000237  0.000130  0.000066 -0.000589  0.000883
 12H   1s        -0.000065 -0.000124 -0.000080 -0.000072  0.000135 -0.000205
 12H   2s        -0.000234  0.000037  0.000060  0.000133 -0.000586 -0.000885
 13N   1s         0.000001 -0.000001 -0.000017 -0.000017 -0.162641  0.000015
 13N   2s         0.000182 -0.000209 -0.000199 -0.000207  0.354243 -0.000031
 13N   1pz       -0.000002 -0.000003 -0.000002  0.000001 -0.001289  0.013017
 13N   1px       -0.000072 -0.000049 -0.000029  0.000035  0.012403  0.319330
 13N   1py        0.000039 -0.000063 -0.000029 -0.000021 -0.086557  0.045343
 13N   3s        -0.000068  0.000079  0.000503  0.000524  0.219325  0.000044
 13N   2pz       -0.000011 -0.000004  0.000056 -0.000033  0.000949  0.000086
 13N   2px       -0.000171 -0.000206  0.001016 -0.001176 -0.009184  0.001993
 13N   2py       -0.000230  0.000207  0.000860  0.000579  0.064061  0.000239
 13N   1dz2       0.000020 -0.000023 -0.000028 -0.000029 -0.016751 -0.000031
 13N   1dxz      -0.000003  0.000002 -0.000000 -0.000000  0.001587 -0.000242
 13N   1dyz      -0.000002 -0.000001  0.000000  0.000002  0.000486 -0.001148
 13N   1dx2y2    -0.000017  0.000039 -0.000042 -0.000057  0.011093  0.007628
 13N   1dxy      -0.000040 -0.000019 -0.000037  0.000007  0.003203 -0.026238
 14O   1s         0.000005 -0.000008 -0.000006 -0.000000 -0.107161  0.142267
 14O   2s         0.000151 -0.000151 -0.000078 -0.000046  0.232991 -0.316167
 14O   1pz        0.000003 -0.000001  0.000000 -0.000001  0.005414 -0.004971
 14O   1px        0.000039  0.000003  0.000000 -0.000005  0.104815 -0.085532
 14O   1py        0.000066 -0.000033  0.000012 -0.000033  0.071136 -0.085344
 14O   3s        -0.000397  0.000491  0.000706 -0.000296  0.200268 -0.308604
 14O   2pz       -0.000015  0.000009  0.000012 -0.000006  0.002248 -0.002379
 14O   2px       -0.000277  0.000092  0.000283 -0.000104  0.046409 -0.038900
 14O   2py       -0.000234  0.000278  0.000077 -0.000098  0.024168 -0.044546
 14O   1dz2       0.000041 -0.000020 -0.000009 -0.000027 -0.008127  0.005542
 14O   1dxz      -0.000002  0.000001  0.000002  0.000001  0.001126 -0.000543
 14O   1dyz      -0.000004  0.000002  0.000000 -0.000001  0.000660 -0.000702
 14O   1dx2y2     0.000047 -0.000024  0.000032  0.000007  0.008029  0.001905
 14O   1dxy      -0.000045  0.000020  0.000011 -0.000050  0.014139 -0.012308
 15O   1s         0.000008 -0.000006 -0.000000 -0.000006 -0.107200 -0.142239
 15O   2s         0.000129 -0.000170 -0.000043 -0.000080  0.233078  0.316134
 15O   1pz        0.000001  0.000001 -0.000000  0.000000 -0.003776 -0.002838
 15O   1px        0.000002  0.000056  0.000014 -0.000003 -0.120585 -0.105979
 15O   1py        0.000025 -0.000056 -0.000030  0.000010  0.039155  0.058147
 15O   3s        -0.000431  0.000460 -0.000325  0.000694  0.200378  0.308438
 15O   2pz        0.000000 -0.000010  0.000004 -0.000011 -0.001738 -0.001242
 15O   2px        0.000119 -0.000351  0.000140 -0.000288 -0.051356 -0.049740
 15O   2py       -0.000219  0.000179 -0.000065 -0.000008  0.010292  0.031920
 15O   1dz2       0.000014 -0.000044 -0.000026 -0.000010 -0.008151 -0.005561
 15O   1dxz      -0.000000  0.000001  0.000002  0.000002  0.000925  0.000323
 15O   1dyz       0.000000 -0.000001  0.000003  0.000000 -0.000294 -0.000338
 15O   1dx2y2     0.000008 -0.000017 -0.000022  0.000032  0.014358  0.004973
 15O   1dxy       0.000021 -0.000067  0.000046  0.000009 -0.007655 -0.011418
                     12        13        14        15        16        17   
                  -0.94595  -0.86637  -0.78116  -0.76404  -0.68271  -0.63472
                   2.00000   2.00000   2.00000   2.00000   2.00000   2.00000
                  --------  --------  --------  --------  --------  --------
  0C   1s        -0.042328 -0.065926  0.080513  0.113333 -0.013882 -0.073345
  0C   2s         0.081604  0.123911 -0.154169 -0.220683  0.028147  0.147552
  0C   1pz        0.001683  0.000526 -0.002087  0.001117  0.004229  0.002295
  0C   1px        0.031330  0.037701 -0.045725  0.000073  0.044935 -0.007577
  0C   1py        0.025075 -0.043831 -0.018585  0.055369  0.126175  0.127231
  0C   3s         0.013773  0.090086 -0.109833 -0.163159  0.047202  0.117794
  0C   2pz        0.000021  0.000001  0.000025  0.000201  0.000837  0.000684
  0C   2px       -0.016457  0.006871  0.001994  0.007860  0.012749 -0.018195
  0C   2py        0.031286 -0.012244 -0.002427 -0.004786  0.017820  0.066487
  0C   1dz2      -0.004650 -0.006347  0.006461  0.008671 -0.000985 -0.004027
  0C   1dxz       0.000354  0.000332 -0.000592 -0.000350  0.000429  0.000483
  0C   1dyz       0.000312  0.000142 -0.000237 -0.000266  0.000176  0.000089
  0C   1dx2y2    -0.000579 -0.000738 -0.003474  0.003911  0.005969  0.005195
  0C   1dxy       0.003645 -0.002543 -0.002173  0.003170  0.007034  0.001396
  1C   1s        -0.114576 -0.028981  0.082633 -0.000025 -0.102741 -0.000001
  1C   2s         0.225063  0.055164 -0.164440  0.000045  0.216241 -0.000024
  1C   1pz        0.001445 -0.001474  0.001526  0.005102 -0.000163 -0.009058
  1C   1px       -0.013647  0.013998 -0.014385  0.126530  0.001177 -0.224513
  1C   1py        0.095577 -0.098062  0.101009  0.017943 -0.008231 -0.031885
  1C   3s         0.075941  0.038802 -0.117746  0.000245  0.144942  0.000264
  1C   2pz       -0.001003 -0.000149  0.000408  0.000582  0.000298 -0.001005
  1C   2px        0.009533  0.001648 -0.004163  0.014627 -0.002938 -0.024743
  1C   2py       -0.067218 -0.011149  0.028692  0.001889  0.019623 -0.003626
  1C   1dz2      -0.012325 -0.002151  0.005434 -0.000011 -0.004802 -0.000005
  1C   1dxz       0.000359  0.000383 -0.000690 -0.000080  0.000505  0.000013
  1C   1dyz       0.000535  0.000020 -0.000113 -0.000378  0.000118  0.000063
  1C   1dx2y2    -0.010173  0.005602 -0.007746  0.002542  0.004420 -0.000425
  1C   1dxy      -0.002977  0.001625 -0.002246 -0.008744  0.001282  0.001487
  2C   1s        -0.018713 -0.095583 -0.001762  0.111316  0.077464  0.086017
  2C   2s         0.034979  0.183287  0.005380 -0.217885 -0.151159 -0.174456
  2C   1pz        0.000654  0.002631 -0.000104 -0.000613 -0.000755  0.001203
  2C   1px        0.009118  0.060358  0.044761  0.014771 -0.011880 -0.017702
  2C   1py        0.015427  0.018248 -0.087923 -0.057554 -0.015341  0.092198
  2C   3s         0.051467  0.097022  0.002563 -0.164676 -0.144775 -0.137817
  2C   2pz        0.000423 -0.000282 -0.000418  0.000396 -0.000520  0.001387
  2C   2px        0.002352 -0.001853 -0.002732  0.014565 -0.006317  0.006746
  2C   2py        0.016421 -0.011307 -0.015801 -0.006644 -0.013484  0.057356
  2C   1dz2      -0.002152 -0.009011 -0.000081  0.008488  0.005009  0.004401
  2C   1dxz       0.000106  0.000633  0.000159 -0.000364 -0.000542 -0.000490
  2C   1dyz       0.000102  0.000250 -0.000278 -0.000430 -0.000230 -0.000157
  2C   1dx2y2    -0.000994  0.001724  0.006316  0.005327 -0.003878 -0.004186
  2C   1dxy       0.000169 -0.000861 -0.004076 -0.000608 -0.003518 -0.002325
  3C   1s        -0.015648 -0.124110 -0.101977  0.000031  0.007534  0.000007
  3C   2s         0.031171  0.240707  0.206500 -0.000054 -0.010781 -0.000019
  3C   1pz        0.000177  0.000414 -0.001582  0.004765 -0.002992  0.007884
  3C   1px       -0.001701 -0.003937  0.015277  0.118161  0.028795  0.195647
  3C   1py        0.011896  0.027535 -0.106849  0.016821 -0.201672  0.027794
  3C   3s         0.009986  0.139280  0.132488 -0.000356 -0.024221 -0.000070
  3C   2pz       -0.000195  0.000608 -0.000049  0.000940  0.000010  0.000713
  3C   2px        0.001808 -0.005900  0.000850  0.023571  0.000275  0.017811
  3C   2py       -0.012880  0.041530 -0.004225  0.003105 -0.000410  0.002417
  3C   1dz2      -0.001578 -0.011081 -0.008168  0.000013 -0.001153  0.000006
  3C   1dxz       0.000091  0.000707  0.000265  0.000087 -0.000565  0.000062
  3C   1dyz       0.000058  0.000391  0.000342  0.000408  0.000176  0.000295
  3C   1dx2y2    -0.000263 -0.000291 -0.006125 -0.002735 -0.014754 -0.001972
  3C   1dxy      -0.000080 -0.000100 -0.001785  0.009411 -0.004286  0.006779
  4C   1s        -0.018716 -0.095586 -0.001824 -0.111332  0.077460 -0.086023
  4C   2s         0.034953  0.183245  0.005504  0.217823 -0.151114  0.174445
  4C   1pz       -0.000242 -0.002348 -0.002645  0.001128  0.000357 -0.001563
  4C   1px       -0.013067 -0.063048 -0.018380 -0.001885  0.015683  0.008827
  4C   1py        0.012278  0.000713 -0.096861  0.059437 -0.011431 -0.093457
  4C   3s         0.051768  0.097164  0.002341  0.165496 -0.144982  0.137888
  4C   2pz        0.000050 -0.000021 -0.000025  0.000662  0.000153 -0.000235
  4C   2px       -0.006965  0.004840  0.007217  0.011651  0.010056  0.022390
  4C   2py        0.015235 -0.010297 -0.014274  0.010680 -0.011010 -0.053250
  4C   1dz2      -0.002160 -0.009017 -0.000071 -0.008508  0.005020 -0.004405
  4C   1dxz       0.000098  0.000656  0.000261  0.000327 -0.000501  0.000471
  4C   1dyz       0.000065  0.000357  0.000194  0.000256 -0.000037  0.000067
  4C   1dx2y2    -0.000750  0.001003  0.003144 -0.004166 -0.005167  0.004789
  4C   1dxy      -0.000683  0.001628  0.006822 -0.003391  0.000898  0.000273
  5C   1s        -0.042321 -0.065917  0.080443 -0.113372 -0.013881  0.073346
  5C   2s         0.081622  0.123934 -0.154079  0.220820  0.028153 -0.147515
  5C   1pz       -0.001075 -0.001959  0.001733 -0.000487 -0.000743 -0.001462
  5C   1px       -0.037111 -0.023945  0.049128  0.015513 -0.078451  0.028344
  5C   1py        0.015332 -0.052587 -0.005135 -0.053163  0.108629 -0.124258
  5C   3s         0.013618  0.089858 -0.109575  0.162563  0.047278 -0.118014
  5C   2pz        0.000970 -0.000398 -0.000100  0.000383 -0.000385 -0.001345
  5C   2px        0.007117 -0.003059 -0.001405  0.006522 -0.017384  0.001324
  5C   2py        0.034888 -0.013632 -0.002895  0.007174  0.013690 -0.069079
  5C   1dz2      -0.004649 -0.006334  0.006450 -0.008659 -0.000996  0.004028
  5C   1dxz       0.000288  0.000373 -0.000574  0.000388  0.000341 -0.000488
  5C   1dyz       0.000007  0.000328 -0.000145  0.000428 -0.000246 -0.000099
  5C   1dx2y2     0.001477 -0.001983 -0.004105 -0.004986  0.008814 -0.005153
  5C   1dxy      -0.003397  0.001734 -0.000013  0.000560 -0.002739 -0.001599
  6N   1s        -0.177326  0.066237 -0.063007  0.000018  0.046203 -0.000007
  6N   2s         0.363863 -0.140355  0.136502 -0.000044 -0.099467  0.000021
  6N   1pz       -0.000417 -0.000377  0.001291  0.001435 -0.002840 -0.006555
  6N   1px        0.006759  0.002285 -0.010524  0.035493  0.024606 -0.161690
  6N   1py       -0.047503 -0.015930  0.073679  0.005022 -0.172203 -0.022979
  6N   3s         0.410262 -0.145568  0.145714  0.000012 -0.140710  0.000042
  6N   2pz       -0.000414 -0.000231  0.000671  0.000624 -0.001210 -0.003543
  6N   2px        0.005360  0.001482 -0.005452  0.015463  0.010347 -0.087642
  6N   2py       -0.037419 -0.010501  0.038312  0.002168 -0.072311 -0.012462
  6N   1dz2      -0.018383  0.005795 -0.004810  0.000000  0.003859 -0.000001
  6N   1dxz       0.001195 -0.000504  0.000563 -0.000006 -0.000594 -0.000042
  6N   1dyz       0.000683 -0.000197  0.000147 -0.000068 -0.000109  0.000012
  6N   1dx2y2    -0.000118 -0.002904  0.005752  0.000462 -0.007929 -0.000134
  6N   1dxy      -0.000056 -0.000837  0.001664 -0.001594 -0.002300  0.000469
  7H   1s         0.016007  0.022141 -0.038760 -0.067203  0.011812  0.082217
  7H   2s        -0.005658  0.001410 -0.003540 -0.012830  0.001542  0.028522
  8H   1s         0.005129  0.035951  0.007452 -0.062942 -0.049493 -0.084817
  8H   2s         0.000477 -0.002458 -0.004232 -0.007648 -0.020972 -0.018788
  9H   1s         0.005132  0.035965  0.007493  0.062968 -0.049496  0.084848
  9H   2s         0.000513 -0.002461 -0.004266  0.007757 -0.021007  0.018761
 10H   1s         0.015987  0.022133 -0.038708  0.067193  0.011805 -0.082190
 10H   2s        -0.005721  0.001393 -0.003514  0.012726  0.001575 -0.028561
 11H   1s         0.100375 -0.047756  0.062753 -0.013148 -0.080822  0.069135
 11H   2s         0.004170 -0.002466  0.007508 -0.003374 -0.021576  0.023381
 12H   1s         0.100335 -0.047739  0.062743  0.013104 -0.080810 -0.069108
 12H   2s         0.004230 -0.002480  0.007515  0.003391 -0.021585 -0.023439
 13N   1s        -0.000259 -0.018303 -0.052328  0.000016 -0.074150 -0.000001
 13N   2s         0.001177  0.036406  0.121624 -0.000030  0.179678  0.000015
 13N   1pz        0.000161  0.002000  0.003478 -0.000203  0.002892  0.000417
 13N   1px       -0.001541 -0.019209 -0.033423 -0.004630 -0.027806  0.011314
 13N   1py        0.010820  0.134761  0.234352 -0.000732  0.194872  0.001599
 13N   3s        -0.006068  0.079336  0.143261 -0.000108  0.218144 -0.000011
 13N   2pz        0.000002  0.000821  0.001182 -0.000005  0.001269  0.000972
 13N   2px        0.000042 -0.007846 -0.011498 -0.000053 -0.012365  0.024391
 13N   2py       -0.000043  0.054896  0.079793 -0.000065  0.085930  0.003402
 13N   1dz2       0.000102 -0.000878  0.000189  0.000003  0.001795  0.000006
 13N   1dxz      -0.000043 -0.000302 -0.000466  0.000039 -0.000370  0.000077
 13N   1dyz       0.000004  0.000106  0.000088  0.000181 -0.000010  0.000358
 13N   1dx2y2    -0.000821 -0.008195 -0.010343 -0.001204 -0.005759 -0.002385
 13N   1dxy      -0.000240 -0.002382 -0.003000  0.004161 -0.001665  0.008227
 14O   1s         0.002640  0.028793  0.048529 -0.008012  0.053241 -0.014375
 14O   2s        -0.006218 -0.066821 -0.113162  0.019002 -0.123337  0.033306
 14O   1pz       -0.000092 -0.000705 -0.000281  0.000136  0.001587 -0.000194
 14O   1px       -0.002491 -0.024238 -0.026114  0.005264  0.011081  0.005150
 14O   1py        0.000121  0.010518  0.034968 -0.002924  0.057641 -0.018348
 14O   3s        -0.004911 -0.066617 -0.123461  0.019335 -0.153827  0.050721
 14O   2pz       -0.000024 -0.000334 -0.000178  0.000066  0.000608  0.000090
 14O   2px       -0.000900 -0.008888 -0.010925  0.002866  0.004362  0.006289
 14O   2py        0.000512  0.000273  0.011749 -0.002015  0.021881 -0.007041
 14O   1dz2      -0.000004 -0.000026 -0.001291  0.000271 -0.002782  0.001046
 14O   1dxz      -0.000014 -0.000151 -0.000128  0.000010  0.000109 -0.000016
 14O   1dyz       0.000006  0.000058  0.000266 -0.000005  0.000396 -0.000058
[...]
Tamm-Dancoff approximation     ... operative
CIS-Integral strategy          ... AO-integrals
Integral handling              ... AO integral Direct
Max. core memory used          ... 512 MB
Reference state                ... RHF
Generation of triplets         ... off
Follow IRoot                   ... off
Number of operators            ... 1
Orbital ranges used for CIS calculation:
 Operator 0:  Orbitals   4...  9  to  36...151
XAS localization array:
 Operator 0:  Orbitals  -1... -1
-------------------
XC-INTEGRATION GRID
-------------------

General Integration Accuracy     IntAcc      ...  3.670
Radial Grid Type                 RadialGrid  ... Gauss-Chebyshev
Angular Grid (max. acc.)         AngularGrid ... Lebedev-50
Angular grid pruning method      GridPruning ... 3 (G Style)
Weight generation scheme         WeightScheme... Becke
Basis function cutoff            BFCut       ...    1.0000e-11
Integration weight cutoff        WCut        ...    1.0000e-14
Grids for H and He will be reduced by one unit

# of grid points (after initial pruning)     ...   9724 (   0.0 sec)
# of grid points (after weights+screening)   ...   9114 (   0.0 sec)
nearest neighbour list constructed           ...    0.0 sec
Grid point re-assignment to atoms done       ...    0.0 sec
Grid point division into batches done        ...    0.0 sec
Reduced shell lists constructed in    0.1 sec

Total number of grid points                  ...     9114
Total number of batches                      ...      149
Average number of points per batch           ...       61
Average number of grid points per atom       ...      570
Average number of shells per batch           ...    51.01 (70.85%)
Average number of basis functions per batch  ...   110.45 (72.67%)
Average number of large shells per batch     ...    39.69 (77.81%)
Average number of large basis fcns per batch ...    86.59 (78.39%)
Maximum spatial batch extension              ...  17.71, 16.78, 28.35 au
Average spatial batch extension              ...   4.19,  3.81,  6.82 au


---------------
TD-DFT XC SETUP
---------------

DFT calculation                         ... on
Name of the grid file                   ... /Users/lailaal-madhagi/Desktop/Testing_XAS_Analysis_code/ParaNitroAniline//Results_dir_ParaNitroAniline_geom_element_C_2019-11-16_00-52-09//GTE1_ParaNitroAniline_geom_2019-11-16_00-52-43//TDDFT_C-edge.grid_cis.tmp
Exchange functional (SCF)               ... B88
Exchange functional (TD-DFT)            ... B88
   X-Alpha parameter    XAlpha (SCF)    ...  0.666667
   X-Alpha parameter    XAlpha (TD-DFT) ...  0.666667
   Becke's b parameter  XBeta (SCF)     ...  0.004200
   Becke's b parameter  XBeta (TD-DFT)  ...  0.004200
Correlation functional (SCF)            ... LYP
Correlation functional (TD-DFT)         ... LYP
 LDA part of GGA corr.  LDAOpt (SCF)    ... VWN-5
 LDA part of GGA corr.  LDAOpt (TD-DFT) ... VWN-5
Hybrid DFT                              ... on
   Exchange mixing (SCF)                ...  0.200
   Exchange mixing (TD-DFT)             ...  0.200
   GGA exch. scaling(SCF)               ...  0.720
   GGA exch. scaling (TD-DFT)           ...  0.720
   GGA corr. scaling (SCF)              ...  0.810
   GGA corr. scaling (TD-DFT)           ...  0.810

Building densities             ... done
Calculating rho(r) on the grid ... done
Building xc-kernel on the grid ... done
                    *** TD-DFT CALCULATION INITIALIZED ***


------------------------
DAVIDSON-DIAGONALIZATION
------------------------

Dimension of the eigenvalue problem            ...    696
Number of roots to be determined               ...     20
Maximum size of the expansion space            ...    696
Maximum number of iterations                   ...    100
Convergence tolerance for the residual         ...    2.500e-07
Convergence tolerance for the energies         ...    2.500e-07
Orthogonality tolerance                        ...    1.000e-14
Level Shift                                    ...    0.000e+00
Constructing the preconditioner                ... o.k.
Building the initial guess                     ... o.k.
Number of trial vectors determined             ...    512


                       ****Iteration    0****

   Memory handling for direct AO based CIS:
   Memory per vector needed      ...     1 MB
   Memory needed                 ...    42 MB
   Memory available              ...   512 MB
   Number of vectors per batch   ...   512
   Number of batches             ...     1
   Time for densities:     0.028
   Using LibInt in JK Direct
   Time for J+K (Direct):   182.926
   Time for XC-Integration:     3.530
   Time for Sigma-Completion:     0.216
   Size of expansion space: 60
   Lowest Energy          :    10.085258603229
   Maximum Energy change  :    10.225551536536 (vector 19)
   Maximum residual norm  :     0.000853448016

                       ****Iteration    1****
   Time for densities:     0.007
   Using LibInt in JK Direct
   Time for J+K (Direct):    47.001
   Time for XC-Integration:     1.181
   Time for Sigma-Completion:     0.082
   Size of expansion space: 80
   Lowest Energy          :    10.084595532833
   Maximum Energy change  :     0.004453077872 (vector 19)
   Maximum residual norm  :     0.000004296940

                       ****Iteration    2****
   Time for densities:     0.008
   Using LibInt in JK Direct
   Time for J+K (Direct):    46.081
   Time for XC-Integration:     1.176
   Time for Sigma-Completion:     0.081
   Size of expansion space: 100
   Lowest Energy          :    10.084594901950
   Maximum Energy change  :     0.000006614430 (vector 17)
   Maximum residual norm  :     0.000000052749

      *** CONVERGENCE OF RESIDUAL NORM REACHED ***

Storing the converged CI vectors               ... /Users/lailaal-madhagi/Desktop/Testing_XAS_Analysis_code/ParaNitroAniline//Results_dir_ParaNitroAniline_geom_element_C_2019-11-16_00-52-09//GTE1_ParaNitroAniline_geom_2019-11-16_00-52-43//TDDFT_C-edge.cis1

                 *** DAVIDSON DONE ***

Total time for solving the CIS problem:   282.849sec

------------------------------------
TD-DFT/TDA EXCITED STATES (SINGLETS)
------------------------------------

the weight of the individual excitations are printed if larger than 1.0e-02

STATE  1:  E=  10.084595 au    274.416 eV  2213312.7 cm**-1
     6a ->  36a  :     0.237249 (c= -0.48708212)
     6a ->  37a  :     0.022955 (c= -0.15150923)
     7a ->  36a  :     0.605054 (c= -0.77785202)
     7a ->  37a  :     0.112403 (c=  0.33526495)

STATE  2:  E=  10.084676 au    274.418 eV  2213330.6 cm**-1
     6a ->  36a  :     0.605577 (c= -0.77818857)
     6a ->  37a  :     0.111992 (c= -0.33465248)
     7a ->  36a  :     0.238003 (c=  0.48785510)
     7a ->  37a  :     0.022609 (c= -0.15036246)

STATE  3:  E=  10.092758 au    274.638 eV  2215104.4 cm**-1
     9a ->  36a  :     0.944220 (c=  0.97170994)
     9a ->  37a  :     0.035821 (c=  0.18926451)
     9a ->  38a  :     0.015609 (c= -0.12493478)

STATE  4:  E=  10.092824 au    274.640 eV  2215118.8 cm**-1
     8a ->  36a  :     0.944263 (c= -0.97173195)
     8a ->  37a  :     0.035695 (c=  0.18893045)
     8a ->  38a  :     0.015633 (c=  0.12503264)

STATE  5:  E=  10.101585 au    274.878 eV  2217041.7 cm**-1
     5a ->  36a  :     0.995822 (c= -0.99790871)

STATE  6:  E=  10.111961 au    275.160 eV  2219318.9 cm**-1
     8a ->  37a  :     0.229628 (c=  0.47919507)
     9a ->  36a  :     0.019976 (c= -0.14133599)
     9a ->  37a  :     0.693133 (c=  0.83254608)
     9a ->  38a  :     0.022488 (c=  0.14996073)
     9a ->  43a  :     0.011169 (c= -0.10568130)

STATE  7:  E=  10.112065 au    275.163 eV  2219341.7 cm**-1
     8a ->  36a  :     0.019814 (c=  0.14076129)
     8a ->  37a  :     0.693323 (c=  0.83265996)
     8a ->  38a  :     0.022336 (c= -0.14945269)
     8a ->  43a  :     0.011135 (c=  0.10552361)
     9a ->  37a  :     0.229640 (c= -0.47920810)

STATE  8:  E=  10.124035 au    275.489 eV  2221968.9 cm**-1
     6a ->  36a  :     0.024915 (c=  0.15784450)
     6a ->  37a  :     0.069456 (c= -0.26354432)
     7a ->  36a  :     0.119238 (c=  0.34530817)
     7a ->  37a  :     0.776206 (c=  0.88102561)

STATE  9:  E=  10.124111 au    275.491 eV  2221985.5 cm**-1
     6a ->  36a  :     0.118989 (c= -0.34494730)
     6a ->  37a  :     0.776476 (c=  0.88117849)
     7a ->  36a  :     0.024451 (c=  0.15636806)
     7a ->  37a  :     0.069648 (c=  0.26390834)

STATE 10:  E=  10.140829 au    275.946 eV  2225654.7 cm**-1
     4a ->  36a  :     0.893920 (c=  0.94547369)
     4a ->  38a  :     0.097732 (c= -0.31262141)

STATE 11:  E=  10.154122 au    276.308 eV  2228572.2 cm**-1
     5a ->  37a  :     0.999716 (c= -0.99985811)

STATE 12:  E=  10.174816 au    276.871 eV  2233114.0 cm**-1
     9a ->  36a  :     0.023903 (c= -0.15460526)
     9a ->  37a  :     0.026433 (c=  0.16258319)
     9a ->  38a  :     0.936267 (c= -0.96760873)

STATE 13:  E=  10.174887 au    276.873 eV  2233129.5 cm**-1
     8a ->  36a  :     0.023903 (c=  0.15460567)
     8a ->  37a  :     0.026332 (c=  0.16227244)
     8a ->  38a  :     0.936365 (c=  0.96765953)

STATE 14:  E=  10.180995 au    277.039 eV  2234470.1 cm**-1
     7a ->  38a  :     0.981643 (c=  0.99077923)

STATE 15:  E=  10.181051 au    277.040 eV  2234482.4 cm**-1
     6a ->  38a  :     0.982223 (c= -0.99107187)

STATE 16:  E=  10.184037 au    277.122 eV  2235137.9 cm**-1
     5a ->  38a  :     0.963005 (c=  0.98132816)
     5a ->  43a  :     0.030725 (c=  0.17528550)

STATE 17:  E=  10.185148 au    277.152 eV  2235381.7 cm**-1
     4a ->  37a  :     0.999751 (c=  0.99987527)

STATE 18:  E=  10.215154 au    277.968 eV  2241967.0 cm**-1
     8a ->  39a  :     0.010011 (c=  0.10005604)
     9a ->  39a  :     0.888686 (c= -0.94270158)
     9a ->  40a  :     0.033978 (c=  0.18433203)
     9a ->  41a  :     0.055953 (c=  0.23654361)

STATE 19:  E=  10.215332 au    277.973 eV  2242006.2 cm**-1
     8a ->  39a  :     0.889665 (c=  0.94322049)
     8a ->  40a  :     0.032873 (c= -0.18130855)
     8a ->  41a  :     0.056174 (c=  0.23701159)
     9a ->  39a  :     0.010152 (c=  0.10075600)

STATE 20:  E=  10.221094 au    278.130 eV  2243270.9 cm**-1
     4a ->  36a  :     0.104940 (c=  0.32394423)
     4a ->  38a  :     0.865510 (c=  0.93032768)
     4a ->  43a  :     0.028545 (c= -0.16895402)


-----------------------------
TD-DFT/TDA-EXCITATION SPECTRA
-----------------------------

Center of mass = ( -3.0830, -0.3837, -0.0480)
Calculating the Dipole integrals                  ... done
Transforming integrals                            ... done
Calculating the Linear Momentum integrals         ... done
Transforming integrals                            ... done
Calculating angular momentum integrals            ... done
Transforming integrals                            ... done

-----------------------------------------------------------------------------
         ABSORPTION SPECTRUM VIA TRANSITION ELECTRIC DIPOLE MOMENTS
-----------------------------------------------------------------------------
State   Energy    Wavelength  fosc         T2        TX        TY        TZ  
        (cm-1)      (nm)                 (au**2)    (au)      (au)      (au) 
-----------------------------------------------------------------------------
   1 2213312.7      4.5   0.003921606   0.00058  -0.00090  -0.00049   0.02413
   2 2213330.6      4.5   0.042849191   0.00637   0.00298   0.00161  -0.07976
   3 2215104.4      4.5   0.000292946   0.00004  -0.00025  -0.00013   0.00659
   4 2215118.8      4.5   0.000268378   0.00004   0.00024   0.00013  -0.00631
   5 2217041.7      4.5   0.003565305   0.00053  -0.00086  -0.00046   0.02299
   6 2219318.9      4.5   0.003465762   0.00051  -0.00083  -0.00046   0.02265
   7 2219341.8      4.5   0.056500959   0.00838   0.00343   0.00185  -0.09147
   8 2221968.9      4.5   0.004827922   0.00072  -0.00100  -0.00054   0.02672
   9 2221985.5      4.5   0.023391687   0.00347  -0.00220  -0.00119   0.05882
  10 2225654.8      4.5   0.027820729   0.00412  -0.00240  -0.00131   0.06409
  11 2228572.2      4.5   0.000000000   0.00000   0.00000  -0.00000   0.00000
  12 2233114.0      4.5   0.003529598   0.00052   0.00084   0.00048  -0.02279
  13 2233129.5      4.5   0.004490390   0.00066  -0.00097  -0.00053   0.02571
  14 2234470.1      4.5   0.004431338   0.00065  -0.00096  -0.00051   0.02553
  15 2234482.4      4.5   0.002739663   0.00040  -0.00075  -0.00039   0.02007
  16 2235137.9      4.5   0.030494661   0.00449  -0.00250  -0.00135   0.06696
  17 2235381.7      4.5   0.000000001   0.00000   0.00000  -0.00000   0.00001
  18 2241967.1      4.5   0.006691909   0.00098   0.03008  -0.00877   0.00092
  19 2242006.3      4.5   0.005458629   0.00080   0.02139   0.01851   0.00121
  20 2243270.9      4.5   0.024370888   0.00358   0.00223   0.00124  -0.05975

-----------------------------------------------------------------------------
         ABSORPTION SPECTRUM VIA TRANSITION VELOCITY DIPOLE MOMENTS
-----------------------------------------------------------------------------
State   Energy    Wavelength   fosc        P2         PX        PY        PZ  
        (cm-1)      (nm)                 (au**2)     (au)      (au)      (au) 
-----------------------------------------------------------------------------
   1 2213312.7      4.5   0.003773609   0.05708   0.00893   0.00481  -0.23870
   2 2213330.6      4.5   0.041231678   0.62371  -0.02944  -0.01589   0.78905
   3 2215104.4      4.5   0.000287040   0.00435   0.00246   0.00129  -0.06586
   4 2215118.8      4.5   0.000262971   0.00398  -0.00238  -0.00126   0.06304
   5 2217041.7      4.5   0.003461532   0.05245   0.00855   0.00460  -0.22881
   6 2219318.9      4.5   0.003332220   0.05054   0.00827   0.00457  -0.22462
   7 2219341.8      4.5   0.054322549   0.82397  -0.03396  -0.01835   0.90691
   8 2221968.9      4.5   0.004644913   0.07054   0.00996   0.00538  -0.26535
   9 2221985.5      4.5   0.022504819   0.34176   0.02189   0.01181  -0.58407
  10 2225654.8      4.5   0.026595164   0.40455   0.02376   0.01302  -0.63546
  11 2228572.2      4.5   0.000000000   0.00000  -0.00004   0.00002  -0.00003
  12 2233114.0      4.5   0.003359439   0.05127  -0.00835  -0.00473   0.22623
  13 2233129.5      4.5   0.004273790   0.06523   0.00963   0.00525  -0.25516
  14 2234470.1      4.5   0.004224423   0.06451   0.00958   0.00506  -0.25376
  15 2234482.4      4.5   0.002611673   0.03988   0.00750   0.00391  -0.19953
  16 2235137.9      4.5   0.029033380   0.44352   0.02489   0.01345  -0.66537
  17 2235381.7      4.5   0.000000001   0.00000  -0.00001   0.00000  -0.00009
  18 2241967.1      4.5   0.006389826   0.09791  -0.29992   0.08874  -0.00916
  19 2242006.3      4.5   0.005227130   0.08010  -0.21288  -0.18610  -0.01211
  20 2243270.9      4.5   0.023219998   0.35600  -0.02222  -0.01231   0.59612

-------------------------------------------------------------------
                             CD SPECTRUM
-------------------------------------------------------------------
State  Energy     Wavelength     R         MX        MY        MZ   
       (cm-1)       (nm)     (1e40*cgs)   (au)      (au)      (au)  
-------------------------------------------------------------------
   1 2213312.7      4.5     -0.00007   0.13840  -0.90332  -0.01303
   2 2213330.6      4.5      0.00006   0.00825  -0.27819  -0.00530
   3 2215104.4      4.5      0.00002   0.09783   0.08956   0.00541
   4 2215118.8      4.5     -0.00002  -0.11455   0.06274  -0.00306
   5 2217041.7      4.5     -0.00002  -0.15049  -0.02140  -0.00606
   6 2219318.9      4.5     -0.00170   0.15019   1.08700   0.02746
   7 2219341.8      4.5      0.00169  -1.24510   0.08709  -0.04491
   8 2221968.9      4.5      0.00026   0.10373  -0.66507  -0.00957
   9 2221985.5      4.5     -0.00030  -0.02410   0.30534   0.00526
  10 2225654.8      4.5      0.00001   1.27802   0.18159   0.05150
  11 2228572.2      4.5      0.00001   0.00133  -0.00947  -0.00012
  12 2233114.0      4.5     -0.00012  -0.27565  -0.33627  -0.01720
  13 2233129.5      4.5      0.00012   0.39478  -0.20620   0.01068
  14 2234470.1      4.5     -0.00002   0.03219  -0.19242  -0.00263
  15 2234482.4      4.5     -0.00007  -0.03197   0.24560   0.00359
  16 2235137.9      4.5      0.00001  -0.40644  -0.05797  -0.01637
  17 2235381.7      4.5     -0.00000  -0.00023   0.00292   0.00002
  18 2241967.1      4.5      0.00006   0.00768   0.00388  -0.21378
  19 2242006.3      4.5     -0.00016   0.00720   0.00326  -0.17700
  20 2243270.9      4.5      0.00010  -1.20573  -0.17133  -0.04849

Total run time:      283.198 sec

           *** ORCA-CIS/TD-DFT FINISHED WITHOUT ERROR ***

-----------------------
CIS/TD-DFT TOTAL ENERGY
-----------------------

    E(SCF)  =   -491.831032168 Eh
    DE(CIS) =     10.084594902 Eh (Root  1)
    ----------------------------- ---------
    E(tot)  =   -481.746437266 Eh


-------------------------   --------------------
FINAL SINGLE POINT ENERGY      -481.746437265674
-------------------------   --------------------


                            ***************************************
                            *     ORCA property calculations      *
                            ***************************************

                                    ---------------------
                                    Active property flags
                                    ---------------------
   (+) Dipole Moment


------------------------------------------------------------------------------
                       ORCA ELECTRIC PROPERTIES CALCULATION
------------------------------------------------------------------------------

Dipole Moment Calculation                       ... on
Quadrupole Moment Calculation                   ... off
Polarizability Calculation                      ... off
GBWName                                         ... /Users/lailaal-madhagi/Desktop/Testing_XAS_Analysis_code/ParaNitroAniline//Results_dir_ParaNitroAniline_geom_element_C_2019-11-16_00-52-09//GTE1_ParaNitroAniline_geom_2019-11-16_00-52-43//TDDFT_C-edge.gbw
Electron density file                           ... /Users/lailaal-madhagi/Desktop/Testing_XAS_Analysis_code/ParaNitroAniline//Results_dir_ParaNitroAniline_geom_element_C_2019-11-16_00-52-09//GTE1_ParaNitroAniline_geom_2019-11-16_00-52-43//TDDFT_C-edge.scfp.tmp
The origin for moment calculation is the CENTER OF MASS  = (-3.082981, -0.383724 -0.047960)

-------------
DIPOLE MOMENT
-------------
                                X             Y             Z
Electronic contribution:      1.03184      -7.23152      -0.10838
Nuclear contribution   :     -1.45353      10.18525       0.15498
                        -----------------------------------------
Total Dipole Moment    :     -0.42169       2.95373       0.04660
                        -----------------------------------------
Magnitude (a.u.)       :      2.98404
Magnitude (Debye)      :      7.58483



--------------------
Rotational spectrum 
--------------------
 
Rotational constants in cm-1:     0.130358     0.027381     0.022628 
Rotational constants in MHz :  3908.037382   820.853699   678.367718 

 Dipole components along the rotational axes: 
x,y,z [a.u.] :     2.984039    -0.000084     0.002631 
x,y,z [Debye]:     7.584825    -0.000212     0.006688 

 

Timings for individual modules:

Sum of individual times         ...      343.312 sec (=   5.722 min)
GTO integral calculation        ...        0.752 sec (=   0.013 min)   0.2 %
SCF iterations                  ...       58.508 sec (=   0.975 min)  17.0 %
CIS module                      ...      284.052 sec (=   4.734 min)  82.7 %
                             ****ORCA TERMINATED NORMALLY****
TOTAL RUN TIME: 0 days 0 hours 5 minutes 43 seconds 477 msec
