10
	Energy:       5.9019339
C         -3.72067        0.17305        0.13923
N         -4.87489        1.01866       -0.15428
C         -2.42334        0.88316       -0.15053
H         -3.74186       -0.13356        1.20920
H         -3.76967       -0.73858       -0.49314
O         -2.41822        2.03474       -0.55745
O         -1.24887        0.24397        0.02978
H         -4.89297        1.82161        0.51520
H         -5.74412        0.45836       -0.00474
H         -1.21425       -0.67313        0.33602
