
                                 *****************
                                 * O   R   C   A *
                                 *****************

           --- An Ab Initio, DFT and Semiempirical electronic structure package ---

                  #######################################################
                  #                        -***-                        #
                  #          Department of theory and spectroscopy      #
                  #               Directorship: Frank Neese             #
                  #        Max Planck Institute fuer Kohlenforschung    #
                  #                Kaiser Wilhelm Platz 1               #
                  #                 D-45470 Muelheim/Ruhr               #
                  #                      Germany                        #
                  #                                                     #
                  #                  All rights reserved                #
                  #                        -***-                        #
                  #######################################################


                         Program Version 4.1.0  - RELEASE  -


 With contributions from (in alphabetic order):
   Daniel Aravena         : Magnetic Properties
   Michael Atanasov       : Ab Initio Ligand Field Theory
   Alexander A. Auer      : GIAO ZORA
   Ute Becker             : Parallelization
   Giovanni Bistoni       : ED, Open-shell LED
   Martin Brehm           : Molecular dynamics
   Dmytro Bykov           : SCF Hessian
   Vijay G. Chilkuri      : MRCI spin determinant printing
   Dipayan Datta          : RHF DLPNO-CCSD density
   Achintya Kumar Dutta   : EOM-CC, STEOM-CC
   Dmitry Ganyushin       : Spin-Orbit,Spin-Spin,Magnetic field MRCI
   Miquel Garcia          : C-PCM Hessian
   Yang Guo               : DLPNO-NEVPT2, CIM, IAO-localization
   Andreas Hansen         : Spin unrestricted coupled pair/coupled cluster methods
   Benjamin Helmich-Paris : CASSCF linear response (MC-RPA)
   Lee Huntington         : MR-EOM, pCC
   Robert Izsak           : Overlap fitted RIJCOSX, COSX-SCS-MP3, EOM
   Christian Kollmar      : KDIIS, OOCD, Brueckner-CCSD(T), CCSD density
   Simone Kossmann        : Meta GGA functionals, TD-DFT gradient, OOMP2, MP2 Hessian
   Martin Krupicka        : AUTO-CI
   Lucas Lang             : DCDCAS
   Dagmar Lenk            : GEPOL surface, SMD
   Dimitrios Liakos       : Extrapolation schemes; parallel MDCI
   Dimitrios Manganas     : ROCIS; embedding schemes
   Dimitrios Pantazis     : SARC Basis sets
   Taras Petrenko         : DFT Hessian,TD-DFT gradient, ASA, ECA, R-Raman, ABS, FL, XAS/XES, NRVS
   Peter Pinski           : DLPNO-MP2, DLPNO-MP2 Gradient
   Christoph Reimann      : Effective Core Potentials
   Marius Retegan         : Local ZFS, SOC
   Christoph Riplinger    : Optimizer, TS searches, QM/MM, DLPNO-CCSD(T), (RO)-DLPNO pert. Triples
   Tobias Risthaus        : Range-separated hybrids, TD-DFT gradient, RPA, STAB
   Michael Roemelt        : Restricted open shell CIS
   Masaaki Saitow         : Open-shell DLPNO
   Barbara Sandhoefer     : DKH picture change effects
   Avijit Sen             : IP-ROCIS
   Kantharuban Sivalingam : CASSCF convergence, NEVPT2, FIC-MRCI
   Bernardo de Souza      : ESD, SOC TD-DFT
   Georgi Stoychev        : AutoAux, RI-MP2 NMR
   Willem Van den Heuvel  : Paramagnetic NMR
   Boris Wezisla          : Elementary symmetry handling
   Frank Wennmohs         : Technical directorship


 We gratefully acknowledge several colleagues who have allowed us to
 interface, adapt or use parts of their codes:
   Stefan Grimme, W. Hujo, H. Kruse,             : VdW corrections, initial TS optimization,
                  C. Bannwarth                     DFT functionals, gCP, sTDA/sTD-DF
   Ed Valeev                                     : LibInt (2-el integral package), F12 methods
   Garnet Chan, S. Sharma, J. Yang, R. Olivares  : DMRG
   Ulf Ekstrom                                   : XCFun DFT Library
   Mihaly Kallay                                 : mrcc  (arbitrary order and MRCC methods)
   Andreas Klamt, Michael Diedenhofen            : otool_cosmo (COSMO solvation model)
   Jiri Pittner, Ondrej Demel                    : Mk-CCSD
   Frank Weinhold                                : gennbo (NPA and NBO analysis)
   Christopher J. Cramer and Donald G. Truhlar   : smd solvation model
   Lars Goerigk                                  : TD-DFT with DH, B97 family of functionals
   V. Asgeirsson, H. Jonsson                     : NEB implementation
   FAccTs GmbH                                   : IRC, NEB, NEB-TS, Multilevel


 Your calculation uses the libint2 library for the computation of 2-el integrals
 For citations please refer to: http://libint.valeyev.net

 This ORCA versions uses:
   CBLAS   interface :  Fast vector & matrix operations
   LAPACKE interface :  Fast linear algebra routines
   SCALAPACK package :  Parallel linear algebra routines




***************************************
The coordinates will be read from file: /Users/lailaal-madhagi/Desktop/Testing_XAS_Analysis_code/PhenylAcetaldehyde/PhenylAcetaldehyde_geom.xyz
***************************************


----- Orbital basis set information -----
Your calculation utilizes the basis: 6-31G*
   H-He, Li-Ne : W. J. Hehre, R. Ditchfield and J.A. Pople, J. Chem. Phys. 56, 2257 (1972).
                 Note: He and Ne are unpublished basis sets taken from the Gaussian program.
                 Note: Li and B from J. D. Dill and J. A. Pople, J. Chem. Phys. 62, 2921 (1975).
   Na - Ar     : M. M. Francl, W. J. Pietro, W. J. Hehre, J. S. Binkley, M. S. Gordon, 
                 D. J. DeFrees and J. A. Pople, J. Chem. Phys. 77, 3654 (1982).
   K - Zn      : V. A. Rassolov, J. A. Pople, M. A. Ratner, and T. L. Windus, J. Chem. Phys. 109, 1223 (1998).

================================================================================
                                        WARNINGS
                       Please study these warnings very carefully!
================================================================================


WARNING: Geometry Optimization
  ===> : Switching off AutoStart
         For restart on a previous wavefunction, please use MOREAD

INFO   : the flag for use of LIBINT has been found!

================================================================================
                                       INPUT FILE
================================================================================
NAME = /Users/lailaal-madhagi/Desktop/Testing_XAS_Analysis_code/PhenylAcetaldehyde//Results_dir_PhenylAcetaldehyde_geom_element_C_2019-11-16_18-39-39//GTE1_PhenylAcetaldehyde_geom_2019-11-16_18-39-50//opt.inp
|  1> ! B3LYP 6-31G* TIGHTSCF Grid3 FinalGrid5 Opt 
|  2> !NormalPrint 
|  3> %output 
|  4> Print[P_Basis] 2 
|  5> Print[P_MOS] 1 
|  6> end 
|  7> *xyzfile 0 1 /Users/lailaal-madhagi/Desktop/Testing_XAS_Analysis_code/PhenylAcetaldehyde/PhenylAcetaldehyde_geom.xyz                           ****END OF INPUT****
================================================================================

                       *****************************
                       * Geometry Optimization Run *
                       *****************************

Geometry optimization settings:
Update method            Update   .... BFGS
Choice of coordinates    CoordSys .... Z-matrix Internals
Initial Hessian          InHess   .... Almoef's Model

Convergence Tolerances:
Energy Change            TolE     ....  5.0000e-06 Eh
Max. Gradient            TolMAXG  ....  3.0000e-04 Eh/bohr
RMS Gradient             TolRMSG  ....  1.0000e-04 Eh/bohr
Max. Displacement        TolMAXD  ....  4.0000e-03 bohr
RMS Displacement         TolRMSD  ....  2.0000e-03 bohr

------------------------------------------------------------------------------
                        ORCA OPTIMIZATION COORDINATE SETUP
------------------------------------------------------------------------------

The optimization will be done in new redundant internal coordinates
Making redundant internal coordinates   ...  (new redundants) done
Evaluating the initial hessian          ...  (Almloef) done
Evaluating the coordinates              ...  done
Calculating the B-matrix                .... done
Calculating the G-matrix                .... done
Diagonalizing the G-matrix              .... done
Small eigenvalue found = 2.293e-02
The first mode is                       ....   35
The number of degrees of freedom        ....   45

    -----------------------------------------------------------------
                    Redundant Internal Coordinates


    -----------------------------------------------------------------
         Definition                    Initial Value    Approx d2E/dq
    -----------------------------------------------------------------
      1. B(C   1,C   0)                  1.4078         0.585256   
      2. B(C   2,C   0)                  1.3975         0.607855   
      3. B(C   3,C   2)                  1.3947         0.614186   
      4. B(C   4,C   3)                  1.3953         0.612859   
      5. B(C   5,C   4)                  1.3991         0.604242   
      6. B(C   5,C   1)                  1.4137         0.572649   
      7. B(C   6,C   1)                  1.5202         0.387206   
      8. B(C   7,C   6)                  1.5068         0.406740   
      9. B(H   8,C   6)                  1.1117         0.332552   
     10. B(H   9,C   6)                  1.1117         0.332553   
     11. B(O  10,C   7)                  1.2205         1.043214   
     12. B(H  11,C   7)                  1.0791         0.374864   
     13. B(H  12,C   0)                  1.0835         0.368802   
     14. B(H  13,C   2)                  1.0824         0.370293   
     15. B(H  14,C   3)                  1.0824         0.370340   
     16. B(H  15,C   5)                  1.0765         0.378407   
     17. B(H  16,C   4)                  1.0826         0.370075   
     18. A(C   1,C   0,H  12)          120.2311         0.350898   
     19. A(C   2,C   0,H  12)          118.8419         0.353154   
     20. A(C   1,C   0,C   2)          120.9270         0.428070   
     21. A(C   0,C   1,C   5)          118.3208         0.423521   
     22. A(C   0,C   1,C   6)          116.9199         0.395167   
     23. A(C   5,C   1,C   6)          124.7593         0.393662   
     24. A(C   3,C   2,H  13)          119.9447         0.354016   
     25. A(C   0,C   2,C   3)          120.0763         0.431793   
     26. A(C   0,C   2,H  13)          119.9789         0.353395   
     27. A(C   2,C   3,C   4)          119.9061         0.432429   
     28. A(C   2,C   3,H  14)          120.0437         0.354023   
     29. A(C   4,C   3,H  14)          120.0501         0.353894   
     30. A(C   3,C   4,H  16)          119.7655         0.353851   
     31. A(C   3,C   4,C   5)          120.3280         0.431163   
     32. A(C   5,C   4,H  16)          119.9064         0.353003   
     33. A(C   1,C   5,C   4)          120.4417         0.425947   
     34. A(C   4,C   5,H  15)          116.9136         0.354337   
     35. A(C   1,C   5,H  15)          122.6447         0.351131   
     36. A(H   8,C   6,H   9)          108.3531         0.283698   
     37. A(C   7,C   6,H   9)          107.3435         0.324611   
     38. A(C   1,C   6,H   9)          107.7640         0.322001   
     39. A(C   7,C   6,H   8)          107.3423         0.324610   
     40. A(C   1,C   6,H   8)          107.7641         0.322000   
     41. A(C   1,C   6,C   7)          117.9646         0.370962   
     42. A(C   6,C   7,O  10)          119.0675         0.438966   
     43. A(O  10,C   7,H  11)          117.6218         0.386142   
     44. A(C   6,C   7,H  11)          123.3107         0.331085   
     45. D(C   6,C   1,C   0,H  12)      0.0006         0.023553   
     46. D(C   5,C   1,C   0,H  12)   -179.9995         0.023553   
     47. D(C   5,C   1,C   0,C   2)      0.0001         0.023553   
     48. D(C   6,C   1,C   0,C   2)   -179.9998         0.023553   
     49. D(C   3,C   2,C   0,C   1)     -0.0002         0.025508   
     50. D(H  13,C   2,C   0,H  12)     -0.0005         0.025508   
     51. D(C   3,C   2,C   0,H  12)    179.9995         0.025508   
     52. D(H  13,C   2,C   0,C   1)    179.9999         0.025508   
     53. D(H  14,C   3,C   2,H  13)     -0.0002         0.026073   
     54. D(H  14,C   3,C   2,C   0)    179.9999         0.026073   
     55. D(C   4,C   3,C   2,H  13)   -180.0000         0.026073   
     56. D(C   4,C   3,C   2,C   0)      0.0001         0.026073   
     57. D(C   5,C   4,C   3,H  14)   -179.9997         0.025954   
     58. D(H  16,C   4,C   3,C   2)   -179.9998         0.025954   
     59. D(C   5,C   4,C   3,C   2)      0.0001         0.025954   
     60. D(H  16,C   4,C   3,H  14)      0.0004         0.025954   
     61. D(H  15,C   5,C   4,H  16)      0.0002         0.025189   
     62. D(C   1,C   5,C   4,H  16)    179.9997         0.025189   
     63. D(C   1,C   5,C   4,C   3)     -0.0001         0.025189   
     64. D(H  15,C   5,C   1,C   6)     -0.0006         0.022504   
     65. D(H  15,C   5,C   1,C   0)    179.9995         0.022504   
     66. D(H  15,C   5,C   4,C   3)   -179.9996         0.025189   
     67. D(C   4,C   5,C   1,C   6)    179.9999         0.022504   
     68. D(C   4,C   5,C   1,C   0)      0.0000         0.022504   
     69. D(H   9,C   6,C   1,C   5)    121.6304         0.011163   
     70. D(H   9,C   6,C   1,C   0)    -58.3697         0.011163   
     71. D(H   8,C   6,C   1,C   5)   -121.6368         0.011163   
     72. D(H   8,C   6,C   1,C   0)     58.3631         0.011163   
     73. D(C   7,C   6,C   1,C   5)     -0.0040         0.011163   
     74. D(C   7,C   6,C   1,C   0)    179.9959         0.011163   
     75. D(O  10,C   7,C   6,C   1)   -179.9997         0.012260   
     76. D(H  11,C   7,C   6,H   9)   -121.8509         0.012260   
     77. D(H  11,C   7,C   6,H   8)    121.8471         0.012260   
     78. D(H  11,C   7,C   6,C   1)     -0.0014         0.012260   
     79. D(O  10,C   7,C   6,H   9)     58.1509         0.012260   
     80. D(O  10,C   7,C   6,H   8)    -58.1511         0.012260   
    -----------------------------------------------------------------

Number of atoms                         .... 17
Number of degrees of freedom            .... 80

         *************************************************************
         *                GEOMETRY OPTIMIZATION CYCLE   1            *
         *************************************************************
---------------------------------
CARTESIAN COORDINATES (ANGSTROEM)
---------------------------------
  C     -1.715330    1.166160   -0.015040
  C     -0.420090    1.717620   -0.003400
  C     -1.906650   -0.218150   -0.008680
  C     -0.806900   -1.075650    0.009420
  C      0.485310   -0.549550    0.021180
  C      0.684360    0.835310    0.014910
  C     -0.317700    3.234390   -0.011610
  C      1.057680    3.849830    0.000660
  H     -0.859340    3.615730    0.881140
  H     -0.838280    3.604550   -0.921430
  O      1.163300    5.065690   -0.005640
  H      1.966810    3.268750    0.014920
  H     -2.583870    1.813780   -0.029160
  H     -2.909390   -0.625610   -0.017810
  H     -0.955690   -2.147730    0.014340
  H      1.703760    1.181120    0.024610
  H      1.337320   -1.217250    0.035220

----------------------------
CARTESIAN COORDINATES (A.U.)
----------------------------
  NO LB      ZA    FRAG     MASS         X           Y           Z
   0 C     6.0000    0    12.011   -3.241504    2.203723   -0.028421
   1 C     6.0000    0    12.011   -0.793855    3.245831   -0.006425
   2 C     6.0000    0    12.011   -3.603046   -0.412244   -0.016403
   3 C     6.0000    0    12.011   -1.524820   -2.032684    0.017801
   4 C     6.0000    0    12.011    0.917103   -1.038499    0.040024
   5 C     6.0000    0    12.011    1.293253    1.578507    0.028176
   6 C     6.0000    0    12.011   -0.600366    6.112111   -0.021940
   7 C     6.0000    0    12.011    1.998726    7.275124    0.001247
   8 H     1.0000    0     1.008   -1.623917    6.832739    1.665113
   9 H     1.0000    0     1.008   -1.584120    6.811612   -1.741250
  10 O     8.0000    0    15.999    2.198318    9.572767   -0.010658
  11 H     1.0000    0     1.008    3.716732    6.177042    0.028195
  12 H     1.0000    0     1.008   -4.882807    3.427547   -0.055104
  13 H     1.0000    0     1.008   -5.497950   -1.182232   -0.033656
  14 H     1.0000    0     1.008   -1.805992   -4.058622    0.027099
  15 H     1.0000    0     1.008    3.219640    2.231993    0.046506
  16 H     1.0000    0     1.008    2.527169   -2.300269    0.066556

--------------------------------
INTERNAL COORDINATES (ANGSTROEM)
--------------------------------
 C      0   0   0     0.000000000000     0.00000000     0.00000000
 C      1   0   0     1.407796249036     0.00000000     0.00000000
 C      1   2   0     1.397482725510   120.92704558     0.00000000
 C      3   1   2     1.394662655448   120.07634758     0.00000000
 C      4   3   1     1.395251300555   119.90612500     0.00000000
 C      5   4   3     1.399105941307   120.32804699     0.00000000
 C      2   1   3     1.520244174171   116.91993387   180.00022860
 C      7   2   1     1.506846737694   117.96464321   179.99591660
 H      7   2   1     1.111663909507   107.76410538    58.36306870
 H      7   2   1     1.111662896026   107.76404894   301.63029934
 O      8   7   2     1.220455166731   119.06754157   180.00031455
 H      8   7   2     1.079061940252   123.31069511     0.00000000
 H      1   2   3     1.083500240148   120.23109386   180.00033190
 H      3   1   2     1.082402197014   119.97891697   179.99987253
 H      4   3   1     1.082366941892   120.04372654   179.99989462
 H      6   5   4     1.076501280120   116.91362868   180.00037546
 H      5   4   3     1.082562447021   119.76553011   180.00021377

---------------------------
INTERNAL COORDINATES (A.U.)
---------------------------
 C      0   0   0     0.000000000000     0.00000000     0.00000000
 C      1   0   0     2.660349363040     0.00000000     0.00000000
 C      1   2   0     2.640859628101   120.92704558     0.00000000
 C      3   1   2     2.635530468003   120.07634758     0.00000000
 C      4   3   1     2.636642846046   119.90612500     0.00000000
 C      5   4   3     2.643927061412   120.32804699     0.00000000
 C      2   1   3     2.872845145872   116.91993387   180.00022860
 C      7   2   1     2.847527660035   117.96464321   179.99591660
 H      7   2   1     2.100740341932   107.76410538    58.36306870
 H      7   2   1     2.100738426730   107.76404894   301.63029934
 O      8   7   2     2.306326023850   119.06754157   180.00031455
 H      8   7   2     2.039131548614   123.31069511     0.00000000
 H      1   2   3     2.047518719917   120.23109386   180.00033190
 H      3   1   2     2.045443719110   119.97891697   179.99987253
 H      4   3   1     2.045377096585   120.04372654   179.99989462
 H      6   5   4     2.034292602242   116.91362868   180.00037546
 H      5   4   3     2.045746547737   119.76553011   180.00021377

---------------------
BASIS SET INFORMATION
---------------------
There are 3 groups of distinct atoms

 Group   1 Type C   : 10s4p1d contracted to 3s2p1d pattern {631/31/1}
 Group   2 Type H   : 4s contracted to 2s pattern {31}
 Group   3 Type O   : 10s4p1d contracted to 3s2p1d pattern {631/31/1}

Atom   0C    basis set group =>   1
Atom   1C    basis set group =>   1
Atom   2C    basis set group =>   1
Atom   3C    basis set group =>   1
Atom   4C    basis set group =>   1
Atom   5C    basis set group =>   1
Atom   6C    basis set group =>   1
Atom   7C    basis set group =>   1
Atom   8H    basis set group =>   2
Atom   9H    basis set group =>   2
Atom  10O    basis set group =>   3
Atom  11H    basis set group =>   2
Atom  12H    basis set group =>   2
Atom  13H    basis set group =>   2
Atom  14H    basis set group =>   2
Atom  15H    basis set group =>   2
Atom  16H    basis set group =>   2

-------------------------
BASIS SET IN INPUT FORMAT
-------------------------

 # Basis set for element : H 
 NewGTO H 
 S 3 
   1      18.7311370000      0.0334945995
   2       2.8253937000      0.2347269467
   3       0.6401217000      0.8137573184
 S 1 
   1       0.1612778000      1.0000000000
  end;

 # Basis set for element : C 
 NewGTO C 
 S 6 
   1    3047.5249000000      0.0018347002
   2     457.3695100000      0.0140373012
   3     103.9486900000      0.0688426061
   4      29.2101550000      0.2321844206
   5       9.2866630000      0.4679413416
   6       3.1639270000      0.3623120322
 S 3 
   1       7.8682724000     -0.1193324086
   2       1.8812885000     -0.1608542116
   3       0.5442493000      1.1434564826
 P 3 
   1       7.8682724000      0.0689990956
   2       1.8812885000      0.3164239798
   3       0.5442493000      0.7443082524
 S 1 
   1       0.1687144000      1.0000000000
 P 1 
   1       0.1687144000      1.0000000000
 D 1 
   1       0.8000000000      1.0000000000
  end;

 # Basis set for element : O 
 NewGTO O 
 S 6 
   1    5484.6717000000      0.0018310998
   2     825.2349500000      0.0139500985
   3     188.0469600000      0.0684450927
   4      52.9645000000      0.2327142753
   5      16.8975700000      0.4701929501
   6       5.7996353000      0.3585208619
 S 3 
   1      15.5396160000     -0.1107775038
   2       3.5999336000     -0.1480263051
   3       1.0137618000      1.1307670390
 P 3 
   1      15.5396160000      0.0708742995
   2       3.5999336000      0.3397527978
   3       1.0137618000      0.7271585953
 S 1 
   1       0.2700058000      1.0000000000
 P 1 
   1       0.2700058000      1.0000000000
 D 1 
   1       0.8000000000      1.0000000000
  end;

------------------------------------------------------------------------------
                           ORCA GTO INTEGRAL CALCULATION
------------------------------------------------------------------------------

                         BASIS SET STATISTICS AND STARTUP INFO

 # of primitive gaussian shells          ...  167
 # of primitive gaussian functions       ...  275
 # of contracted shells                  ...   70
 # of contracted basis functions         ...  142
 Highest angular momentum                ...    2
 Maximum contraction depth               ...    6
 Integral package used                   ... LIBINT
 Integral threshhold            Thresh   ...  2.500e-11
 Primitive cut-off              TCut     ...  2.500e-12


------------------------------ INTEGRAL EVALUATION ----------------------------


 * One electron integrals 
 Pre-screening matrix                    ... done
 Shell pair data                         ... done (   0.002 sec)

-------------------------------------------------------------------------------
                                 ORCA SCF
-------------------------------------------------------------------------------

------------
SCF SETTINGS
------------
Hamiltonian:
 Density Functional     Method          .... DFT(GTOs)
 Exchange Functional    Exchange        .... B88
   X-Alpha parameter    XAlpha          ....  0.666667
   Becke's b parameter  XBeta           ....  0.004200
 Correlation Functional Correlation     .... LYP
 LDA part of GGA corr.  LDAOpt          .... VWN-5
 Gradients option       PostSCFGGA      .... off
 Hybrid DFT is turned on
   Fraction HF Exchange ScalHFX         ....  0.200000
   Scaling of DF-GGA-X  ScalDFX         ....  0.720000
   Scaling of DF-GGA-C  ScalDFC         ....  0.810000
   Scaling of DF-LDA-C  ScalLDAC        ....  1.000000
   Perturbative correction              ....  0.000000
   Density functional embedding theory  .... OFF
   NL short-range parameter             ....  4.800000


General Settings:
 Integral files         IntName         .... /Users/lailaal-madhagi/Desktop/Testing_XAS_Analysis_code/PhenylAcetaldehyde//Results_dir_PhenylAcetaldehyde_geom_element_C_2019-11-16_18-39-39//GTE1_PhenylAcetaldehyde_geom_2019-11-16_18-39-50//opt
 Hartree-Fock type      HFTyp           .... RHF
 Total Charge           Charge          ....    0
 Multiplicity           Mult            ....    1
 Number of Electrons    NEL             ....   64
 Basis Dimension        Dim             ....  142
 Nuclear Repulsion      ENuc            ....    389.5267155264 Eh

Convergence Acceleration:
 DIIS                   CNVDIIS         .... on
   Start iteration      DIISMaxIt       ....    12
   Startup error        DIISStart       ....  0.200000
   # of expansion vecs  DIISMaxEq       ....     5
   Bias factor          DIISBfac        ....   1.050
   Max. coefficient     DIISMaxC        ....  10.000
 Newton-Raphson         CNVNR           .... off
 SOSCF                  CNVSOSCF        .... on
   Start iteration      SOSCFMaxIt      ....   150
   Startup grad/error   SOSCFStart      ....  0.003300
 Level Shifting         CNVShift        .... on
   Level shift para.    LevelShift      ....    0.2500
   Turn off err/grad.   ShiftErr        ....    0.0010
 Zerner damping         CNVZerner       .... off
 Static damping         CNVDamp         .... on
   Fraction old density DampFac         ....    0.7000
   Max. Damping (<1)    DampMax         ....    0.9800
   Min. Damping (>=0)   DampMin         ....    0.0000
   Turn off err/grad.   DampErr         ....    0.1000
 Fernandez-Rico         CNVRico         .... off

SCF Procedure:
 Maximum # iterations   MaxIter         ....   125
 SCF integral mode      SCFMode         .... Direct
   Integral package                     .... LIBINT
 Reset frequency        DirectResetFreq ....    20
 Integral Threshold     Thresh          ....  2.500e-11 Eh
 Primitive CutOff       TCut            ....  2.500e-12 Eh

Convergence Tolerance:
 Convergence Check Mode ConvCheckMode   .... Total+1el-Energy
 Convergence forced     ConvForced      .... 0
 Energy Change          TolE            ....  1.000e-08 Eh
 1-El. energy change                    ....  1.000e-05 Eh
 Orbital Gradient       TolG            ....  1.000e-05
 Orbital Rotation angle TolX            ....  1.000e-05
 DIIS Error             TolErr          ....  5.000e-07


Diagonalization of the overlap matrix:
Smallest eigenvalue                        ... 4.886e-04
Time for diagonalization                   ...    0.004 sec
Threshold for overlap eigenvalues          ... 1.000e-08
Number of eigenvalues below threshold      ... 0
Time for construction of square roots      ...    0.002 sec
Total time needed                          ...    0.006 sec

-------------------
DFT GRID GENERATION
-------------------

General Integration Accuracy     IntAcc      ...  4.340
Radial Grid Type                 RadialGrid  ... Gauss-Chebyshev
Angular Grid (max. acc.)         AngularGrid ... Lebedev-194
Angular grid pruning method      GridPruning ... 3 (G Style)
Weight generation scheme         WeightScheme... Becke
Basis function cutoff            BFCut       ...    1.0000e-11
Integration weight cutoff        WCut        ...    1.0000e-14
Grids for H and He will be reduced by one unit

# of grid points (after initial pruning)     ...  41790 (   0.0 sec)
# of grid points (after weights+screening)   ...  38390 (   0.1 sec)
nearest neighbour list constructed           ...    0.0 sec
Grid point re-assignment to atoms done       ...    0.0 sec
Grid point division into batches done        ...    0.1 sec
Reduced shell lists constructed in    0.4 sec

Total number of grid points                  ...    38390
Total number of batches                      ...      609
Average number of points per batch           ...       63
Average number of grid points per atom       ...     2258
Average number of shells per batch           ...    45.84 (65.49%)
Average number of basis functions per batch  ...    94.31 (66.42%)
Average number of large shells per batch     ...    35.15 (76.67%)
Average number of large basis fcns per batch ...    72.77 (77.16%)
Maximum spatial batch extension              ...  19.03, 19.33, 22.17 au
Average spatial batch extension              ...   3.19,  2.97,  3.55 au

Time for grid setup =    0.583 sec

------------------------------
INITIAL GUESS: MODEL POTENTIAL
------------------------------
Loading Hartree-Fock densities                     ... done
Calculating cut-offs                               ... done
Setting up the integral package                    ... done
Initializing the effective Hamiltonian             ... done
Starting the Coulomb interaction                   ... done (   0.1 sec)
Reading the grid                                   ... done
Mapping shells                                     ... done
Starting the XC term evaluation                    ... done (   0.3 sec)
  promolecular density results
     # of electrons  =     63.994052065
     EX              =    -51.658156958
     EC              =     -2.139530536
     EX+EC           =    -53.797687493
Transforming the Hamiltonian                       ... done (   0.0 sec)
Diagonalizing the Hamiltonian                      ... done (   0.0 sec)
Back transforming the eigenvectors                 ... done (   0.0 sec)
Now organizing SCF variables                       ... done
                      ------------------
                      INITIAL GUESS DONE (   1.1 sec)
                      ------------------
--------------
SCF ITERATIONS
--------------
               ***  Starting incremental Fock matrix formation  ***

                         ----------------------------
                         !        ITERATION     0   !
                         ----------------------------
   Total Energy        :    -384.389616139001 Eh
   Energy Change       :    -384.389616139001 Eh
   MAX-DP              :       0.110208588029
   RMS-DP              :       0.002958112380
   Actual Damping      :       0.7000
   Actual Level Shift  :       0.2500 Eh
   Int. Num. El.       :    63.99902278 (UP=   31.99951139 DN=   31.99951139)
   Exchange            :   -42.36873548
   Correlation         :    -2.55653526


                         ----------------------------
                         !        ITERATION     1   !
                         ----------------------------
   Total Energy        :    -384.499400118393 Eh
   Energy Change       :      -0.109783979392 Eh
   MAX-DP              :       0.060483696387
   RMS-DP              :       0.001958062369
   Actual Damping      :       0.7000
   Actual Level Shift  :       0.2500 Eh
   Int. Num. El.       :    63.99882364 (UP=   31.99941182 DN=   31.99941182)
   Exchange            :   -42.06776949
   Correlation         :    -2.54493751

                               ***Turning on DIIS***

                         ----------------------------
                         !        ITERATION     2   !
                         ----------------------------
   Total Energy        :    -384.541899353410 Eh
   Energy Change       :      -0.042499235018 Eh
   MAX-DP              :       0.063217257983
   RMS-DP              :       0.002989447271
   Actual Damping      :       0.0000
   Actual Level Shift  :       0.2500 Eh
   Int. Num. El.       :    63.99868134 (UP=   31.99934067 DN=   31.99934067)
   Exchange            :   -41.87351180
   Correlation         :    -2.53682669
   DIIS-Error          :       0.039571404875


                         ----------------------------
                         !        ITERATION     3   !
                         ----------------------------
   Total Energy        :    -384.610860633481 Eh
   Energy Change       :      -0.068961280070 Eh
   MAX-DP              :       0.053231998482
   RMS-DP              :       0.001436635171
   Actual Damping      :       0.0000
   Actual Level Shift  :       0.2500 Eh
   Int. Num. El.       :    63.99846359 (UP=   31.99923179 DN=   31.99923179)
   Exchange            :   -41.59194130
   Correlation         :    -2.52391903
   DIIS-Error          :       0.049848055116
   DIIS coefficients:
      0.55635   0.44365


                         ----------------------------
                         !        ITERATION     4   !
                         ----------------------------
   Total Energy        :    -384.624480356127 Eh
   Energy Change       :      -0.013619722646 Eh
   MAX-DP              :       0.012246542774
   RMS-DP              :       0.000461247760
   Actual Damping      :       0.0000
   Actual Level Shift  :       0.2500 Eh
   Int. Num. El.       :    63.99855881 (UP=   31.99927941 DN=   31.99927941)
   Exchange            :   -41.71101842
   Correlation         :    -2.52929775
   DIIS-Error          :       0.024167489222
   DIIS coefficients:
      0.27888   0.12608   0.59503


                         ----------------------------
                         !        ITERATION     5   !
                         ----------------------------
   Total Energy        :    -384.625854702346 Eh
   Energy Change       :      -0.001374346219 Eh
   MAX-DP              :       0.003155420740
   RMS-DP              :       0.000128642119
   Actual Damping      :       0.0000
   Actual Level Shift  :       0.2500 Eh
   Int. Num. El.       :    63.99858004 (UP=   31.99929002 DN=   31.99929002)
   Exchange            :   -41.72581589
   Correlation         :    -2.53041223
   DIIS-Error          :       0.004951882431
   DIIS coefficients:
      0.06143   0.00678   0.14326   0.78853

                      *** Initiating the SOSCF procedure ***
                           *** Shutting down DIIS ***
                      *** Re-Reading the Fockian *** 
                      *** Removing any level shift *** 

                         ----------------------------
                         !        ITERATION     6   !
                         ----------------------------
   Total Energy        :    -384.625909780380 Eh
   Energy Change       :      -0.000055078034 Eh
   MAX-DP              :       0.001177486481
   RMS-DP              :       0.000053327958
   Orbital gradient    :       0.000210515251
   Orbital Rotation    :       0.000210515251
   Actual Damping      :       0.0000
   Int. Num. El.       :    63.99858482 (UP=   31.99929241 DN=   31.99929241)
   Exchange            :   -41.73400661
   Correlation         :    -2.53070809

               *** Restarting incremental Fock matrix formation ***

                         ----------------------------
                         !        ITERATION     7   !
                         ----------------------------
   Total Energy        :    -384.625911395914 Eh
   Energy Change       :      -0.000001615534 Eh
   MAX-DP              :       0.000882569784
   RMS-DP              :       0.000027816712
   Orbital gradient    :       0.000236922183
   Orbital Rotation    :       0.000988376715
   Actual Damping      :       0.0000
   Int. Num. El.       :    63.99858520 (UP=   31.99929260 DN=   31.99929260)
   Exchange            :   -41.73421312
   Correlation         :    -2.53072132


                         ----------------------------
                         !        ITERATION     8   !
                         ----------------------------
   Total Energy        :    -384.625909617160 Eh
   Energy Change       :       0.000001778754 Eh
   MAX-DP              :       0.000555411888
   RMS-DP              :       0.000017456840
   Orbital gradient    :       0.000472045083
   Orbital Rotation    :       0.000674644827
   Actual Damping      :       0.0000
   Int. Num. El.       :    63.99858502 (UP=   31.99929251 DN=   31.99929251)
   Exchange            :   -41.73406707
   Correlation         :    -2.53071255


                         ----------------------------
                         !        ITERATION     9   !
                         ----------------------------
   Total Energy        :    -384.625912171928 Eh
   Energy Change       :      -0.000002554769 Eh
   MAX-DP              :       0.000180912535
   RMS-DP              :       0.000005685970
   Orbital gradient    :       0.000041997521
   Orbital Rotation    :       0.000084673367
   Actual Damping      :       0.0000
   Int. Num. El.       :    63.99858508 (UP=   31.99929254 DN=   31.99929254)
   Exchange            :   -41.73417311
   Correlation         :    -2.53071663


                         ----------------------------
                         !        ITERATION    10   !
                         ----------------------------
   Total Energy        :    -384.625912137436 Eh
   Energy Change       :       0.000000034492 Eh
   MAX-DP              :       0.000139549895
   RMS-DP              :       0.000003519857
   Orbital gradient    :       0.000062992877
   Orbital Rotation    :       0.000068124306
   Actual Damping      :       0.0000
   Int. Num. El.       :    63.99858505 (UP=   31.99929253 DN=   31.99929253)
   Exchange            :   -41.73410589
   Correlation         :    -2.53071790


                         ----------------------------
                         !        ITERATION    11   !
                         ----------------------------
   Total Energy        :    -384.625912203663 Eh
   Energy Change       :      -0.000000066227 Eh
   MAX-DP              :       0.000061347889
   RMS-DP              :       0.000001537015
   Orbital gradient    :       0.000016082703
   Orbital Rotation    :       0.000031479964
   Actual Damping      :       0.0000
   Int. Num. El.       :    63.99858509 (UP=   31.99929254 DN=   31.99929254)
   Exchange            :   -41.73417367
   Correlation         :    -2.53071787


                         ----------------------------
                         !        ITERATION    12   !
                         ----------------------------
   Total Energy        :    -384.625912198589 Eh
   Energy Change       :       0.000000005074 Eh
   MAX-DP              :       0.000034923747
   RMS-DP              :       0.000000986403
   Orbital gradient    :       0.000020305192
   Orbital Rotation    :       0.000016513873
   Actual Damping      :       0.0000
   Int. Num. El.       :    63.99858506 (UP=   31.99929253 DN=   31.99929253)
   Exchange            :   -41.73412733
   Correlation         :    -2.53071626

                  ***Gradient check signals convergence***
              ***Rediagonalizing the Fockian in SOSCF/NRSCF***

               *****************************************************
               *                     SUCCESS                       *
               *           SCF CONVERGED AFTER  13 CYCLES          *
               *****************************************************

Setting up the final grid:

General Integration Accuracy     IntAcc      ...  5.010
Radial Grid Type                 RadialGrid  ... Gauss-Chebyshev
Angular Grid (max. acc.)         AngularGrid ... Lebedev-434
Angular grid pruning method      GridPruning ... 3 (G Style)
Weight generation scheme         WeightScheme... Becke
Basis function cutoff            BFCut       ...    1.0000e-11
Integration weight cutoff        WCut        ...    1.0000e-14
Grids for H and He will be reduced by one unit

# of grid points (after initial pruning)     ... 149962 (   0.1 sec)
# of grid points (after weights+screening)   ... 136420 (   0.3 sec)
nearest neighbour list constructed           ...    0.0 sec
Grid point re-assignment to atoms done       ...    0.0 sec
Grid point division into batches done        ...    0.8 sec
Reduced shell lists constructed in    1.4 sec

Total number of grid points                  ...   136420
Total number of batches                      ...     2142
Average number of points per batch           ...       63
Average number of grid points per atom       ...     8025
Average number of shells per batch           ...    42.57 (60.81%)
Average number of basis functions per batch  ...    87.26 (61.45%)
Average number of large shells per batch     ...    31.98 (75.12%)
Average number of large basis fcns per batch ...    65.96 (75.59%)
Maximum spatial batch extension              ...  18.31, 17.34, 23.82 au
Average spatial batch extension              ...   2.06,  2.00,  2.18 au

Final grid set up in    1.8 sec
Final integration                            ... done (   1.1 sec)
Change in XC energy                          ...    -0.000157504
Integrated number of electrons               ...    63.999976609
Previous integrated no of electrons          ...    63.998585074

----------------
TOTAL SCF ENERGY
----------------

Total Energy       :         -384.62606971 Eh          -10466.20745 eV

Components:
Nuclear Repulsion  :          389.52671553 Eh           10599.56080 eV
Electronic Energy  :         -774.15278524 Eh          -21065.76825 eV
One Electron Energy:        -1291.75778307 Eh          -35150.51630 eV
Two Electron Energy:          517.60499783 Eh           14084.74805 eV

Virial components:
Potential Energy   :         -766.98124705 Eh          -20870.62077 eV
Kinetic Energy     :          382.35517734 Eh           10404.41333 eV
Virial Ratio       :            2.00593922


DFT components:
N(Alpha)           :       31.999988304706 electrons
N(Beta)            :       31.999988304706 electrons
N(Total)           :       63.999976609412 electrons
E(X)               :      -41.734336307319 Eh       
E(C)               :       -2.530694578200 Eh       
E(XC)              :      -44.265030885519 Eh       
DFET-embed. en.    :        0.000000000000 Eh       

---------------
SCF CONVERGENCE
---------------

  Last Energy change         ...   -9.0021e-09  Tolerance :   1.0000e-08
  Last MAX-Density change    ...    3.2286e-06  Tolerance :   1.0000e-07
  Last RMS-Density change    ...    1.0701e-07  Tolerance :   5.0000e-09
  Last Orbital Gradient      ...    5.1960e-07  Tolerance :   1.0000e-05
  Last Orbital Rotation      ...    2.0118e-06  Tolerance :   1.0000e-05

             **** THE GBW FILE WAS UPDATED (/Users/lailaal-madhagi/Desktop/Testing_XAS_Analysis_code/PhenylAcetaldehyde//Results_dir_PhenylAcetaldehyde_geom_element_C_2019-11-16_18-39-39//GTE1_PhenylAcetaldehyde_geom_2019-11-16_18-39-50//opt.gbw) ****
             **** DENSITY FILE WAS UPDATED (/Users/lailaal-madhagi/Desktop/Testing_XAS_Analysis_code/PhenylAcetaldehyde//Results_dir_PhenylAcetaldehyde_geom_element_C_2019-11-16_18-39-39//GTE1_PhenylAcetaldehyde_geom_2019-11-16_18-39-50//opt.scfp.tmp) ****
             **** ENERGY FILE WAS UPDATED (/Users/lailaal-madhagi/Desktop/Testing_XAS_Analysis_code/PhenylAcetaldehyde//Results_dir_PhenylAcetaldehyde_geom_element_C_2019-11-16_18-39-39//GTE1_PhenylAcetaldehyde_geom_2019-11-16_18-39-50//opt.en.tmp) ****
----------------
ORBITAL ENERGIES
----------------

  NO   OCC          E(Eh)            E(eV) 
   0   2.0000     -19.139724      -520.8184 
   1   2.0000     -10.269413      -279.4449 
   2   2.0000     -10.200605      -277.5726 
   3   2.0000     -10.198303      -277.5099 
   4   2.0000     -10.186847      -277.1982 
   5   2.0000     -10.185259      -277.1550 
   6   2.0000     -10.185088      -277.1503 
   7   2.0000     -10.184093      -277.1233 
   8   2.0000     -10.182377      -277.0766 
   9   2.0000      -1.037968       -28.2445 
  10   2.0000      -0.855948       -23.2915 
  11   2.0000      -0.785247       -21.3677 
  12   2.0000      -0.745829       -20.2950 
  13   2.0000      -0.708285       -19.2734 
  14   2.0000      -0.618649       -16.8343 
  15   2.0000      -0.595809       -16.2128 
  16   2.0000      -0.573587       -15.6081 
  17   2.0000      -0.520240       -14.1565 
  18   2.0000      -0.470363       -12.7992 
  19   2.0000      -0.460674       -12.5356 
  20   2.0000      -0.457467       -12.4483 
  21   2.0000      -0.443728       -12.0745 
  22   2.0000      -0.423218       -11.5163 
  23   2.0000      -0.411719       -11.2034 
  24   2.0000      -0.397265       -10.8101 
  25   2.0000      -0.369226       -10.0472 
  26   2.0000      -0.348028        -9.4703 
  27   2.0000      -0.347841        -9.4652 
  28   2.0000      -0.343899        -9.3580 
  29   2.0000      -0.251632        -6.8472 
  30   2.0000      -0.249404        -6.7866 
  31   2.0000      -0.243063        -6.6141 
  32   0.0000      -0.031622        -0.8605 
  33   0.0000      -0.003369        -0.0917 
  34   0.0000       0.001205         0.0328 
  35   0.0000       0.091657         2.4941 
  36   0.0000       0.101584         2.7642 
  37   0.0000       0.126874         3.4524 
  38   0.0000       0.137851         3.7511 
  39   0.0000       0.150710         4.1010 
  40   0.0000       0.159902         4.3512 
  41   0.0000       0.183669         4.9979 
  42   0.0000       0.199511         5.4290 
  43   0.0000       0.203204         5.5295 
  44   0.0000       0.243511         6.6263 
  45   0.0000       0.253051         6.8859 
  46   0.0000       0.273816         7.4509 
  47   0.0000       0.306058         8.3282 
  48   0.0000       0.324423         8.8280 
  49   0.0000       0.355926         9.6852 
  50   0.0000       0.395894        10.7728 
  51   0.0000       0.461336        12.5536 
  52   0.0000       0.510270        13.8851 
  53   0.0000       0.524375        14.2690 
  54   0.0000       0.535897        14.5825 
  55   0.0000       0.547412        14.8958 
  56   0.0000       0.555825        15.1248 
  57   0.0000       0.581188        15.8149 
  58   0.0000       0.597032        16.2461 
  59   0.0000       0.597703        16.2643 
  60   0.0000       0.606643        16.5076 
  61   0.0000       0.609978        16.5983 
  62   0.0000       0.618944        16.8423 
  63   0.0000       0.628861        17.1122 
  64   0.0000       0.667683        18.1686 
  65   0.0000       0.671447        18.2710 
  66   0.0000       0.674403        18.3514 
  67   0.0000       0.683371        18.5955 
  68   0.0000       0.726457        19.7679 
  69   0.0000       0.743557        20.2332 
  70   0.0000       0.798115        21.7178 
  71   0.0000       0.821409        22.3517 
  72   0.0000       0.835255        22.7284 
  73   0.0000       0.845371        23.0037 
  74   0.0000       0.845801        23.0154 
  75   0.0000       0.848131        23.0788 
  76   0.0000       0.870098        23.6766 
  77   0.0000       0.895072        24.3561 
  78   0.0000       0.912339        24.8260 
  79   0.0000       0.925211        25.1763 
  80   0.0000       0.942442        25.6452 
  81   0.0000       0.966939        26.3118 
  82   0.0000       0.997564        27.1451 
  83   0.0000       0.998946        27.1827 
  84   0.0000       1.004674        27.3386 
  85   0.0000       1.035923        28.1889 
  86   0.0000       1.084124        29.5005 
  87   0.0000       1.114714        30.3329 
  88   0.0000       1.134221        30.8637 
  89   0.0000       1.160185        31.5703 
  90   0.0000       1.191516        32.4228 
  91   0.0000       1.220641        33.2153 
  92   0.0000       1.252802        34.0905 
  93   0.0000       1.295072        35.2407 
  94   0.0000       1.414798        38.4986 
  95   0.0000       1.430886        38.9364 
  96   0.0000       1.451020        39.4843 
  97   0.0000       1.478838        40.2412 
  98   0.0000       1.492133        40.6030 
  99   0.0000       1.510430        41.1009 
 100   0.0000       1.514774        41.2191 
 101   0.0000       1.555117        42.3169 
 102   0.0000       1.700359        46.2691 
 103   0.0000       1.738511        47.3073 
 104   0.0000       1.745190        47.4890 
 105   0.0000       1.802547        49.0498 
 106   0.0000       1.811374        49.2900 
 107   0.0000       1.818342        49.4796 
 108   0.0000       1.845378        50.2153 
 109   0.0000       1.867660        50.8216 
 110   0.0000       1.900799        51.7234 
 111   0.0000       1.910013        51.9741 
 112   0.0000       1.966755        53.5181 
 113   0.0000       1.981624        53.9227 
 114   0.0000       2.045529        55.6617 
 115   0.0000       2.058787        56.0224 
 116   0.0000       2.081548        56.6418 
 117   0.0000       2.133000        58.0419 
 118   0.0000       2.137760        58.1714 
 119   0.0000       2.151494        58.5451 
 120   0.0000       2.180487        59.3341 
 121   0.0000       2.202405        59.9305 
 122   0.0000       2.233600        60.7793 
 123   0.0000       2.303099        62.6705 
 124   0.0000       2.304862        62.7185 
 125   0.0000       2.321028        63.1584 
 126   0.0000       2.335136        63.5423 
 127   0.0000       2.392303        65.0979 
 128   0.0000       2.532171        68.9039 
 129   0.0000       2.581390        70.2432 
 130   0.0000       2.585423        70.3529 
 131   0.0000       2.615476        71.1707 
 132   0.0000       2.650952        72.1361 
 133   0.0000       2.692143        73.2569 
 134   0.0000       2.742083        74.6159 
 135   0.0000       2.751059        74.8601 
 136   0.0000       2.794726        76.0484 
 137   0.0000       2.820813        76.7582 
 138   0.0000       2.943524        80.0974 
 139   0.0000       2.965520        80.6959 
 140   0.0000       3.102171        84.4144 
 141   0.0000       3.404846        92.6506 
------------------
MOLECULAR ORBITALS
------------------
                      0         1         2         3         4         5   
                 -19.13972 -10.26941 -10.20060 -10.19830 -10.18685 -10.18526
                   2.00000   2.00000   2.00000   2.00000   2.00000   2.00000
                  --------  --------  --------  --------  --------  --------
  0C   1s         0.000052 -0.000060  0.012030 -0.000607  0.001978  0.010748
  0C   2s         0.000338 -0.000321 -0.001343 -0.000269  0.000138 -0.000305
  0C   1pz        0.000000 -0.000000 -0.000010  0.000001  0.000003 -0.000002
  0C   1px       -0.000048  0.000022 -0.001167 -0.000003  0.000239 -0.000084
  0C   1py       -0.000131  0.000071 -0.000536 -0.000182 -0.000022  0.000219
  0C   3s        -0.004730  0.002955  0.008502  0.000867  0.004926  0.005283
  0C   2pz       -0.000038  0.000020  0.000039  0.000003  0.000036  0.000046
  0C   2px       -0.002687  0.002002  0.003624  0.001557  0.002159  0.002558
  0C   2py        0.001117  0.000588  0.000556  0.002455 -0.001720 -0.002640
  0C   1dz2       0.000107 -0.000102  0.000651 -0.000152  0.000071 -0.000032
  0C   1dxz      -0.000003  0.000002 -0.000017  0.000005 -0.000000  0.000002
  0C   1dyz       0.000000 -0.000000 -0.000007 -0.000002  0.000001 -0.000000
  0C   1dx2y2    -0.000059  0.000053 -0.000747  0.000125  0.000080  0.000094
  0C   1dxy      -0.000040  0.000051 -0.000837 -0.000096 -0.000002 -0.000021
  1C   1s         0.000001 -0.000082  0.994454 -0.032631  0.013535  0.001600
  1C   2s         0.000174 -0.000171  0.036472 -0.002335  0.002426  0.000339
  1C   1pz        0.000002 -0.000002  0.000001  0.000001  0.000017  0.000000
  1C   1px        0.000273 -0.000322 -0.000047 -0.000259  0.000970  0.000100
  1C   1py        0.000226 -0.000222 -0.000232 -0.000701 -0.000909  0.000127
  1C   3s         0.002772 -0.002829 -0.030794  0.010718 -0.012176 -0.007348
  1C   2pz       -0.000019  0.000029 -0.000022  0.000021 -0.000061 -0.000029
  1C   2px       -0.003157  0.002577 -0.000804  0.005006 -0.001710 -0.000692
  1C   2py       -0.002938  0.000156  0.001987  0.006043  0.006706  0.003401
  1C   1dz2      -0.000009 -0.000027 -0.000576  0.000397 -0.000630 -0.000109
  1C   1dxz       0.000001  0.000001  0.000016  0.000002  0.000023  0.000004
  1C   1dyz       0.000002 -0.000002 -0.000006  0.000008 -0.000018 -0.000001
  1C   1dx2y2     0.000150 -0.000047  0.000296  0.000819  0.000302  0.000118
  1C   1dxy       0.000078 -0.000155 -0.000137 -0.000145 -0.001097 -0.000085
  2C   1s        -0.000015 -0.000008  0.000103 -0.000238  0.003851  0.090576
  2C   2s        -0.000088 -0.000025 -0.000130 -0.000354  0.000693  0.003203
  2C   1pz       -0.000001  0.000001 -0.000000  0.000000  0.000002 -0.000004
  2C   1px       -0.000028  0.000035 -0.000109 -0.000029  0.000168 -0.000236
  2C   1py        0.000111 -0.000089 -0.000145 -0.000055  0.000041  0.000149
  2C   3s         0.001576  0.000538 -0.002186  0.002710 -0.004425 -0.007904
  2C   2pz        0.000008 -0.000004 -0.000014 -0.000003 -0.000025 -0.000027
  2C   2px        0.001033 -0.000333 -0.001292  0.000807 -0.002774 -0.003065
  2C   2py        0.000683  0.000079 -0.000228  0.001941 -0.001140 -0.001439
  2C   1dz2      -0.000019 -0.000009 -0.000068 -0.000091  0.000099 -0.000036
  2C   1dxz      -0.000000  0.000000  0.000002  0.000001 -0.000002 -0.000001
  2C   1dyz      -0.000000 -0.000000 -0.000001 -0.000001  0.000001  0.000000
  2C   1dx2y2    -0.000027  0.000008  0.000027 -0.000047  0.000018 -0.000081
  2C   1dxy       0.000030 -0.000030 -0.000058  0.000016  0.000002  0.000099
  3C   1s         0.000002  0.000003 -0.000432 -0.000039 -0.006431  0.082690
  3C   2s         0.000021  0.000027 -0.000426  0.000009  0.000003  0.000731
  3C   1pz        0.000001 -0.000001  0.000001  0.000000  0.000002 -0.000009
  3C   1px        0.000094 -0.000098 -0.000004 -0.000011  0.000327 -0.001067
  3C   1py       -0.000016  0.000015 -0.000126 -0.000055  0.000231 -0.000524
  3C   3s        -0.000625 -0.000480  0.002961 -0.001644  0.004252  0.012288
  3C   2pz       -0.000004  0.000008 -0.000007 -0.000005 -0.000013 -0.000002
  3C   2px       -0.000287  0.000190  0.000408 -0.000956  0.000141  0.002969
  3C   2py        0.000075 -0.000926  0.001841 -0.000998  0.002358  0.005875
  3C   1dz2       0.000005  0.000001 -0.000070 -0.000002 -0.000033  0.000619
  3C   1dxz      -0.000000  0.000000  0.000001  0.000000  0.000001 -0.000019
  3C   1dyz       0.000000 -0.000000 -0.000001 -0.000000  0.000002 -0.000006
  3C   1dx2y2    -0.000005  0.000003  0.000009 -0.000008  0.000122 -0.000886
  3C   1dxy       0.000021 -0.000017  0.000004 -0.000018  0.000172 -0.000611
  4C   1s         0.000041 -0.000088  0.000137 -0.000217 -0.133739  0.978506
  4C   2s         0.000280 -0.000394 -0.000100 -0.000310 -0.002791  0.036013
  4C   1pz       -0.000000  0.000000  0.000002  0.000001 -0.000005 -0.000010
  4C   1px       -0.000059  0.000055  0.000037  0.000070  0.000215 -0.000511
  4C   1py       -0.000032  0.000052 -0.000191 -0.000031  0.001198  0.000720
  4C   3s        -0.001968  0.004072 -0.002391  0.001584 -0.009148 -0.033536
  4C   2pz        0.000009 -0.000024  0.000023 -0.000025  0.000060  0.000100
  4C   2px       -0.000129 -0.000623  0.001682 -0.001852  0.002602  0.005845
  4C   2py       -0.001613  0.002725 -0.000556  0.000515 -0.004865 -0.005218
  4C   1dz2       0.000098 -0.000128 -0.000055 -0.000091 -0.000526 -0.000637
  4C   1dxz      -0.000001  0.000001  0.000002  0.000001 -0.000004  0.000007
  4C   1dyz       0.000001 -0.000002  0.000000 -0.000001 -0.000008 -0.000004
  4C   1dx2y2     0.000086 -0.000121  0.000065 -0.000032 -0.001040 -0.000300
  4C   1dxy      -0.000026  0.000012  0.000030  0.000032  0.000361  0.000417
  5C   1s        -0.000019 -0.000078  0.013535 -0.001086 -0.985978 -0.133047
  5C   2s        -0.000035 -0.000067 -0.001358 -0.000097 -0.035912 -0.007054
  5C   1pz       -0.000002  0.000001  0.000017  0.000001  0.000007 -0.000004
  5C   1px       -0.000015 -0.000081  0.000995  0.000022  0.000648  0.000341
  5C   1py        0.000248 -0.000376 -0.000801 -0.000194  0.000129  0.001359
  5C   3s         0.002208 -0.003401  0.009735 -0.003130  0.031396  0.017913
  5C   2pz        0.000019 -0.000004 -0.000062  0.000023 -0.000057 -0.000036
  5C   2px        0.000766  0.001378 -0.004210  0.001037 -0.006028 -0.005509
  5C   2py       -0.001608  0.003160  0.002108 -0.001731 -0.002080 -0.004454
  5C   1dz2      -0.000024  0.000043  0.000632 -0.000040  0.000503  0.000660
  5C   1dxz      -0.000002  0.000003 -0.000022  0.000003 -0.000011  0.000001
  5C   1dyz      -0.000001  0.000001  0.000018  0.000003  0.000010  0.000012
  5C   1dx2y2    -0.000222  0.000265 -0.000241  0.000277  0.000139  0.001137
  5C   1dxy       0.000062 -0.000058  0.001079  0.000122  0.000330 -0.000184
  6C   1s        -0.000059  0.001268  0.032653  0.994898 -0.000642  0.000078
  6C   2s        -0.000044 -0.000636  0.000350  0.038939  0.000327 -0.000189
  6C   1pz       -0.000000 -0.000008 -0.000007  0.000004  0.000001  0.000000
  6C   1px        0.000085 -0.000867 -0.000128  0.000241  0.000082  0.000009
  6C   1py        0.000200 -0.000324  0.000817 -0.000149 -0.000053 -0.000007
  6C   3s         0.003406  0.004260  0.004301 -0.039931 -0.002385 -0.000028
  6C   2pz        0.000016  0.000030  0.000036 -0.000046 -0.000003  0.000001
  6C   2px        0.001909  0.002308  0.001661 -0.002578 -0.000012  0.000080
  6C   2py        0.001077 -0.000534 -0.002591  0.002487  0.000459 -0.000051
  6C   1dz2      -0.000068  0.000653  0.000599  0.000050  0.000079 -0.000019
  6C   1dxz      -0.000002 -0.000016 -0.000000 -0.000002 -0.000001 -0.000000
  6C   1dyz       0.000003 -0.000006  0.000011  0.000004 -0.000000 -0.000001
  6C   1dx2y2    -0.000116 -0.000650  0.000958  0.000048 -0.000027 -0.000057
  6C   1dxy       0.000337 -0.000772 -0.000121  0.000242 -0.000097 -0.000019
  7C   1s        -0.000194  0.995122  0.000055 -0.001212 -0.000094  0.000011
  7C   2s        -0.000094  0.035991 -0.000238 -0.001147  0.000299 -0.000077
  7C   1pz       -0.000002 -0.000013  0.000001  0.000004  0.000001  0.000000
  7C   1px       -0.000088 -0.000011  0.000098  0.000445  0.000016  0.000006
  7C   1py        0.000132  0.002053  0.000058  0.000152 -0.000070  0.000006
  7C   3s        -0.012291 -0.014896 -0.001693  0.009113 -0.000238 -0.000178
  7C   2pz        0.000074 -0.000034  0.000015 -0.000035 -0.000015  0.000002
  7C   2px        0.001908  0.000742  0.000997 -0.004269 -0.000848 -0.000019
  7C   2py       -0.008268  0.006851 -0.000553 -0.002394  0.000754 -0.000308
  7C   1dz2      -0.000091 -0.001264  0.000028  0.000447 -0.000003 -0.000003
  7C   1dxz      -0.000008  0.000008  0.000001 -0.000013 -0.000001  0.000000
  7C   1dyz      -0.000004 -0.000018 -0.000001 -0.000007  0.000000  0.000000
  7C   1dx2y2    -0.000725 -0.001355  0.000041 -0.000667 -0.000048  0.000017
  7C   1dxy       0.000139  0.000316 -0.000166 -0.000673  0.000032 -0.000004
  8H   1s        -0.000097 -0.000326 -0.000415 -0.000121  0.000032 -0.000039
  8H   2s         0.000399  0.000868  0.001321  0.005604  0.000065 -0.000015
  9H   1s        -0.000097 -0.000326 -0.000415 -0.000121  0.000032 -0.000039
  9H   2s         0.000398  0.000868  0.001321  0.005604  0.000065 -0.000015
 10O   1s        -0.995144 -0.000011 -0.000019 -0.000008  0.000009 -0.000005
 10O   2s        -0.029777  0.000766 -0.000292 -0.000320  0.000136 -0.000073
 10O   1pz       -0.000011 -0.000005  0.000001 -0.000000 -0.000000  0.000000
 10O   1px        0.000222  0.000148  0.000050  0.000038 -0.000020  0.000004
 10O   1py        0.002215  0.001040  0.000002  0.000136  0.000008 -0.000001
 10O   3s         0.021414 -0.006909  0.001301  0.000193 -0.000647  0.000359
 10O   2pz        0.000028 -0.000029 -0.000001  0.000006  0.000001  0.000000
 10O   2px       -0.001032  0.000164 -0.000365  0.000433  0.000219 -0.000028
 10O   2py       -0.006546  0.004952 -0.000518 -0.000102  0.000195 -0.000121
 10O   1dz2      -0.000133  0.001163 -0.000049 -0.000224  0.000020 -0.000006
 10O   1dxz      -0.000002 -0.000002  0.000000  0.000006  0.000000 -0.000000
 10O   1dyz      -0.000001  0.000020 -0.000000 -0.000003 -0.000000 -0.000000
 10O   1dx2y2    -0.000309  0.001697 -0.000056  0.000089  0.000021 -0.000013
 10O   1dxy       0.000169 -0.000237  0.000044 -0.000094 -0.000043  0.000005
 11H   1s         0.000130 -0.001087 -0.000107 -0.000402  0.000084 -0.000024
 11H   2s        -0.000747  0.005259 -0.000422  0.000214  0.001125  0.000078
 12H   1s        -0.000073 -0.000011 -0.000252 -0.000145  0.000062  0.000083
 12H   2s        -0.000798  0.000329  0.000165 -0.000179  0.000462  0.001038
 13H   1s         0.000056 -0.000060 -0.000047 -0.000007 -0.000096 -0.000203
 13H   2s         0.000294 -0.000095 -0.000117  0.000498 -0.000871 -0.000177
 14H   1s         0.000036 -0.000078  0.000043 -0.000056  0.000093 -0.000241
 14H   2s         0.000040 -0.000245  0.000563 -0.000211  0.000309  0.001633
 15H   1s         0.000132 -0.000250 -0.000278  0.000033  0.001434  0.000052
 15H   2s        -0.000983 -0.000785  0.000473 -0.000103 -0.003295  0.000698
 16H   1s         0.000010 -0.000000 -0.000074  0.000084  0.000304 -0.001340
 16H   2s        -0.000241  0.000641 -0.000259  0.000645 -0.001560  0.002554
                      6         7         8         9        10        11   
                 -10.18509 -10.18409 -10.18238  -1.03797  -0.85595  -0.78525
                   2.00000   2.00000   2.00000   2.00000   2.00000   2.00000
                  --------  --------  --------  --------  --------  --------
  0C   1s         0.220558 -0.970210  0.010038 -0.000536 -0.093496 -0.011657
  0C   2s         0.006051 -0.036109  0.000613  0.002450  0.176165  0.023316
  0C   1pz       -0.000004 -0.000012 -0.000001  0.000007  0.000733 -0.000030
  0C   1px        0.000294 -0.000586 -0.000071  0.000558  0.050286  0.036066
  0C   1py        0.001206  0.000780  0.000093 -0.000000 -0.024021  0.072412
  0C   3s         0.005285  0.035596 -0.007732 -0.018140  0.117204  0.019304
  0C   2pz        0.000040  0.000114 -0.000053 -0.000117  0.000111 -0.000009
  0C   2px        0.001414  0.006941 -0.003022 -0.009322  0.007822  0.005006
  0C   2py       -0.003735 -0.005416  0.002883  0.001292 -0.002816  0.010842
  0C   1dz2       0.000460  0.000707 -0.000097  0.000192 -0.009162 -0.000916
  0C   1dxz       0.000004 -0.000006  0.000001 -0.000003  0.000185  0.000057
  0C   1dyz       0.000008  0.000004 -0.000000  0.000001 -0.000088  0.000059
  0C   1dx2y2     0.000985  0.000399 -0.000047  0.000037  0.000406  0.005074
  0C   1dxy      -0.000278 -0.000520  0.000076 -0.000139  0.000748  0.003236
  1C   1s        -0.002970  0.011836  0.000185 -0.003403 -0.107413 -0.088826
  1C   2s        -0.000531  0.002409 -0.000493  0.007368  0.205570  0.173746
  1C   1pz        0.000002 -0.000010 -0.000001  0.000001  0.000135 -0.000419
  1C   1px        0.000341 -0.001138  0.000024  0.002624 -0.008606  0.003403
  1C   1py        0.000336 -0.000563  0.000201  0.004750 -0.037791  0.073987
  1C   3s        -0.001780 -0.014433  0.005387  0.013244  0.116622  0.108388
  1C   2pz        0.000012 -0.000002  0.000024 -0.000199  0.000065 -0.000147
  1C   2px        0.000723  0.003721 -0.000587 -0.018002  0.000380 -0.000977
  1C   2py       -0.000513  0.007359 -0.005031 -0.001339 -0.010119  0.022265
  1C   1dz2       0.000131 -0.000608 -0.000070 -0.000535 -0.009453 -0.006551
  1C   1dxz      -0.000003  0.000017  0.000002  0.000003  0.000189  0.000080
  1C   1dyz      -0.000003  0.000007 -0.000001 -0.000004 -0.000106 -0.000087
  1C   1dx2y2    -0.000152  0.000822  0.000030 -0.000438 -0.000275 -0.004044
  1C   1dxy      -0.000261  0.000699 -0.000016  0.000407 -0.000234  0.000725
  2C   1s         0.962840  0.219209 -0.083586 -0.000227 -0.084035  0.068699
  2C   2s         0.034733  0.010074 -0.005227 -0.000040  0.159396 -0.131938
  2C   1pz        0.000007 -0.000004 -0.000018 -0.000003  0.000431 -0.000701
  2C   1px        0.000673  0.000374 -0.001122 -0.000034  0.049677 -0.042853
  2C   1py        0.000057  0.001353  0.000749  0.000496  0.023735  0.032752
  2C   3s        -0.027364 -0.020061  0.017013  0.004086  0.097668 -0.094125
  2C   2pz       -0.000046 -0.000042  0.000082  0.000027  0.000028 -0.000076
  2C   2px       -0.004854 -0.006174  0.007307  0.003517  0.003395 -0.003944
  2C   2py       -0.001674 -0.004797  0.000525  0.002336  0.001498  0.004947
  2C   1dz2      -0.000404 -0.000722  0.000681 -0.000114 -0.008124  0.005748
  2C   1dxz       0.000009 -0.000000 -0.000022  0.000000  0.000160 -0.000173
  2C   1dyz      -0.000008 -0.000013  0.000020 -0.000001 -0.000086  0.000079
  2C   1dx2y2    -0.000048 -0.001191 -0.000133 -0.000126 -0.000206 -0.003229
  2C   1dxy      -0.000282  0.000159  0.001163  0.000126  0.000228  0.003231
  3C   1s         0.071668  0.027385  0.988704 -0.000112 -0.081711  0.098440
  3C   2s         0.000780  0.000534  0.036653  0.000206  0.154143 -0.189378
  3C   1pz        0.000018  0.000001 -0.000005  0.000004 -0.000251  0.000158
  3C   1px        0.001122  0.000136  0.000115  0.000377  0.007122 -0.005949
  3C   1py       -0.000761  0.000052  0.000976  0.000050  0.053754 -0.036671
  3C   3s         0.007732  0.007756 -0.035093 -0.000475  0.100313 -0.131574
  3C   2pz       -0.000049 -0.000027  0.000039 -0.000016 -0.000024  0.000009
  3C   2px       -0.001953 -0.000146 -0.001112 -0.000705  0.001823  0.000802
  3C   2py        0.004188  0.004143 -0.008373  0.001201  0.007581 -0.000009
  3C   1dz2       0.000488  0.000160 -0.000724 -0.000016 -0.007981  0.008231
  3C   1dxz      -0.000020 -0.000005  0.000022 -0.000000  0.000159 -0.000171
  3C   1dyz       0.000017  0.000003 -0.000006  0.000001 -0.000086  0.000086
  3C   1dx2y2    -0.000255 -0.000094  0.000529 -0.000006 -0.000144 -0.000468
  3C   1dxy       0.001123  0.000185 -0.000160  0.000090  0.000016  0.000035
  4C   1s        -0.095375 -0.011779 -0.075641 -0.000048 -0.083876  0.071098
  4C   2s        -0.003824  0.000045 -0.004932  0.001431  0.158818 -0.136767
  4C   1pz        0.000005 -0.000001  0.000012 -0.000004 -0.000698  0.000462
  4C   1px        0.000419 -0.000016  0.001274 -0.000275 -0.040738  0.049326
  4C   1py       -0.000046  0.000089  0.000427  0.000113  0.036291  0.017893
  4C   3s         0.000467 -0.005376  0.016801 -0.009709  0.099742 -0.094813
  4C   2pz        0.000007  0.000049 -0.000095  0.000064 -0.000062  0.000044
  4C   2px        0.000389  0.002969 -0.006828  0.001508 -0.002442  0.006858
  4C   2py       -0.000398 -0.002329  0.002535 -0.007456  0.005068  0.005933
  4C   1dz2       0.000036  0.000108  0.000666  0.000235 -0.008175  0.005934
  4C   1dxz      -0.000001 -0.000002 -0.000016 -0.000001  0.000161 -0.000163
  4C   1dyz      -0.000001  0.000000 -0.000008  0.000004 -0.000091  0.000026
  4C   1dx2y2    -0.000094 -0.000031 -0.000734  0.000272 -0.000373 -0.004275
  4C   1dxy      -0.000110 -0.000043 -0.000911 -0.000057 -0.000043 -0.001025
  5C   1s         0.016552  0.000454  0.003547 -0.001282 -0.092208 -0.006806
  5C   2s         0.000363 -0.000087  0.000392  0.001919  0.174243  0.013654
  5C   1pz        0.000003 -0.000002  0.000001 -0.000020 -0.000554 -0.000644
  5C   1px        0.000165 -0.000170  0.000109 -0.000460 -0.053789 -0.014094
  5C   1py       -0.000102  0.000043  0.000072  0.002414 -0.011703  0.077519
  5C   3s        -0.000187  0.006321 -0.007752  0.017119  0.111421  0.015020
  5C   2pz       -0.000007 -0.000036  0.000031 -0.000008 -0.000087 -0.000164
  5C   2px       -0.000789 -0.003783  0.003691 -0.003627 -0.006881 -0.004578
  5C   2py       -0.000412 -0.001303  0.001924 -0.005667  0.001533  0.017715
  5C   1dz2      -0.000154  0.000021 -0.000079 -0.000331 -0.009054 -0.000569
  5C   1dxz       0.000001  0.000000  0.000001 -0.000001  0.000191  0.000078
  5C   1dyz      -0.000002  0.000000 -0.000002 -0.000008 -0.000106 -0.000054
  5C   1dx2y2    -0.000139  0.000053 -0.000062 -0.000707  0.000317  0.002744
  5C   1dxy       0.000022 -0.000046 -0.000045 -0.000024 -0.000910 -0.005542
  6C   1s         0.000192 -0.000122  0.000013 -0.021387 -0.052001 -0.131029
  6C   2s        -0.000260  0.000144 -0.000148  0.039357  0.096512  0.251058
  6C   1pz        0.000000  0.000000  0.000000  0.000144  0.000211  0.000347
  6C   1px        0.000032 -0.000023 -0.000016  0.021919 -0.000375  0.013232
  6C   1py        0.000037 -0.000089 -0.000066  0.018253 -0.034745 -0.031019
  6C   3s         0.001079 -0.001557  0.002501  0.029561  0.084068  0.209650
  6C   2pz       -0.000002 -0.000008  0.000008  0.000031  0.000018 -0.000022
  6C   2px       -0.000689 -0.000025  0.000264  0.010787 -0.005868 -0.006188
  6C   2py       -0.001021  0.001178 -0.000833  0.014281 -0.013072 -0.007653
  6C   1dz2      -0.000028  0.000064 -0.000029 -0.002370 -0.001562 -0.000022
  6C   1dxz      -0.000000 -0.000002  0.000000  0.000043 -0.000009 -0.000015
  6C   1dyz      -0.000000  0.000001 -0.000000  0.000037 -0.000034 -0.000006
  6C   1dx2y2    -0.000046 -0.000039 -0.000011  0.001900 -0.003308 -0.001209
  6C   1dxy       0.000027  0.000018  0.000007  0.004368  0.000268  0.000176
  7C   1s         0.000004  0.000002  0.000005 -0.117847 -0.011382 -0.043332
  7C   2s        -0.000041  0.000109  0.000020  0.225305  0.022284  0.086166
  7C   1pz        0.000000 -0.000000  0.000000 -0.000976 -0.000044 -0.000249
  7C   1px        0.000014 -0.000026  0.000019  0.011773 -0.020439 -0.068993
  7C   1py       -0.000011  0.000012 -0.000003  0.179658 -0.031476 -0.089871
  7C   3s         0.000460 -0.000143 -0.000358  0.072037  0.017387  0.068093
  7C   2pz       -0.000005  0.000002  0.000002  0.000298 -0.000061 -0.000049
  7C   2px       -0.000352  0.000278  0.000297  0.012152 -0.006829 -0.014084
  7C   2py        0.000193  0.000190  0.000186 -0.024471 -0.003231 -0.018951
  7C   1dz2      -0.000013  0.000020  0.000007 -0.015254 -0.000998 -0.003056
  7C   1dxz       0.000000 -0.000000 -0.000000  0.000023  0.000048  0.000155
  7C   1dyz      -0.000000  0.000000 -0.000000 -0.000272  0.000023  0.000059
  7C   1dx2y2     0.000007  0.000002 -0.000016 -0.022891  0.003024  0.009447
  7C   1dxy      -0.000004  0.000004 -0.000007  0.002864  0.001292  0.002874
  8H   1s        -0.000072  0.000078 -0.000037  0.008429  0.025044  0.073497
  8H   2s        -0.000044 -0.000225 -0.000014  0.000741  0.000530  0.010123
  9H   1s        -0.000072  0.000078 -0.000037  0.008428  0.025044  0.073496
  9H   2s        -0.000044 -0.000225 -0.000014  0.000736  0.000537  0.010130
 10O   1s         0.000001  0.000003 -0.000000 -0.193200  0.012935  0.036131
 10O   2s         0.000000  0.000064 -0.000007  0.424725 -0.029197 -0.082554
 10O   1pz        0.000000 -0.000000  0.000000  0.000814 -0.000066 -0.000191
 10O   1px        0.000010 -0.000007  0.000014 -0.015607 -0.002954 -0.014120
 10O   1py        0.000004 -0.000005  0.000001 -0.160705  0.005006  0.004170
 10O   3s        -0.000141 -0.000229 -0.000010  0.383594 -0.029069 -0.084217
 10O   2pz       -0.000000 -0.000000 -0.000001  0.000237 -0.000009 -0.000035
 10O   2px       -0.000004  0.000009 -0.000094 -0.007226 -0.000433 -0.004248
 10O   2py        0.000023  0.000079 -0.000005 -0.052057  0.000759 -0.002213
 10O   1dz2      -0.000014  0.000013 -0.000003 -0.003299 -0.000170 -0.000906
 10O   1dxz       0.000000 -0.000000 -0.000000 -0.000082  0.000004  0.000008
 10O   1dyz      -0.000000  0.000000  0.000000 -0.000077  0.000002  0.000006
 10O   1dx2y2     0.000003  0.000002  0.000003 -0.011407  0.000154 -0.000176
 10O   1dxy       0.000002  0.000001  0.000015  0.002484  0.000263  0.001420
 11H   1s         0.000015  0.000033  0.000024  0.031945  0.008067  0.026580
 11H   2s         0.000140 -0.000176 -0.000116 -0.010749  0.004927  0.005891
 12H   1s        -0.000450  0.001281 -0.000096  0.000180  0.037177  0.013023
 12H   2s         0.001454 -0.002230 -0.000717 -0.001671  0.005084  0.004041
 13H   1s        -0.001356 -0.000193 -0.000018  0.000218  0.031418 -0.033858
 13H   2s         0.002998 -0.000650  0.001061  0.001207  0.002808 -0.006195
 14H   1s        -0.000228 -0.000006 -0.001342  0.000137  0.030272 -0.049127
 14H   2s         0.001146  0.000794  0.002452  0.000401  0.003862 -0.008186
 15H   1s         0.000056  0.000097 -0.000097  0.001472  0.037182  0.009519
 15H   2s         0.000493  0.000972 -0.000655 -0.000351  0.004974  0.004383
 16H   1s         0.000095 -0.000106 -0.000028  0.000003  0.031454 -0.035326
 16H   2s        -0.000290 -0.001058  0.001087 -0.001760  0.003324 -0.006696
                     12        13        14        15        16        17   
                  -0.74583  -0.70828  -0.61865  -0.59581  -0.57359  -0.52024
                   2.00000   2.00000   2.00000   2.00000   2.00000   2.00000
                  --------  --------  --------  --------  --------  --------
  0C   1s         0.112131 -0.073390  0.033681 -0.084082 -0.030775  0.009603
  0C   2s        -0.218376  0.142876 -0.067270  0.171579  0.061712 -0.020105
  0C   1pz       -0.000081  0.000383  0.000135 -0.001300  0.000511  0.002314
  0C   1px        0.021196  0.047069 -0.060740 -0.125080  0.085848  0.124715
  0C   1py        0.053002  0.026284 -0.135467 -0.025081  0.078713 -0.138999
  0C   3s        -0.164790  0.118173 -0.056746  0.131672  0.060550 -0.043975
  0C   2pz        0.000139 -0.000020  0.000229 -0.000786  0.000068  0.000769
  0C   2px        0.010636  0.002844 -0.011214 -0.056297  0.017133  0.041660
  0C   2py       -0.002986  0.009057 -0.058442  0.021870  0.021046 -0.046921
  0C   1dz2       0.008485 -0.005035  0.001774 -0.003889 -0.001210  0.001587
  0C   1dxz      -0.000117  0.000176 -0.000100  0.000077  0.000109 -0.000039
  0C   1dyz       0.000128 -0.000019 -0.000018 -0.000123  0.000009 -0.000003
  0C   1dx2y2     0.004888  0.006243 -0.005616 -0.002993  0.006463 -0.001165
  0C   1dxy       0.000495 -0.000277 -0.000180 -0.005327 -0.001519 -0.001138
  1C   1s         0.000279 -0.069107  0.034718  0.083950 -0.042931  0.013288
  1C   2s        -0.000731  0.136216 -0.070817 -0.171891  0.090304 -0.028841
  1C   1pz        0.001438  0.000523  0.002177 -0.001316 -0.000458  0.000926
  1C   1px        0.115169 -0.019892  0.155857 -0.108268 -0.067533 -0.002875
  1C   1py       -0.015953 -0.121680 -0.058722  0.009387 -0.052368 -0.154763
  1C   3s         0.002169  0.117816 -0.048981 -0.137515  0.058255 -0.033251
  1C   2pz        0.000188  0.000158  0.000270 -0.000088 -0.000221  0.000206
  1C   2px        0.016168  0.004142  0.015293 -0.026010 -0.018090 -0.013319
  1C   2py       -0.000148 -0.018383 -0.014308 -0.034815  0.002531 -0.058063
  1C   1dz2       0.000006 -0.003631  0.001021  0.002089 -0.000602  0.000042
  1C   1dxz       0.000026  0.000192  0.000010 -0.000052  0.000041 -0.000088
  1C   1dyz      -0.000123 -0.000016 -0.000009  0.000099  0.000094 -0.000008
  1C   1dx2y2    -0.002633  0.008769  0.001350  0.002043  0.005477 -0.006136
  1C   1dxy      -0.009194 -0.002661 -0.002451  0.005459  0.005700  0.002598
  2C   1s         0.111121  0.033905 -0.084416  0.003715  0.062307 -0.000977
  2C   2s        -0.217003 -0.066766  0.171062 -0.007728 -0.127544  0.000235
  2C   1pz        0.000406 -0.001047 -0.000422 -0.002009  0.000805  0.001250
  2C   1px        0.004017 -0.035429 -0.044057 -0.079050  0.078869  0.155878
  2C   1py       -0.058215  0.102445 -0.014471  0.175776  0.018059  0.090696
  2C   3s        -0.163031 -0.060265  0.122229  0.002425 -0.105411 -0.009578
  2C   2pz        0.000199 -0.000186 -0.000269 -0.000566  0.000485  0.000421
  2C   2px        0.012507 -0.005266 -0.034971 -0.020667  0.045910  0.052558
  2C   2py       -0.008202  0.019939 -0.022183  0.052076  0.008081  0.031460
  2C   1dz2       0.008354  0.002409 -0.004065  0.000057  0.002780  0.001045
  2C   1dxz      -0.000104 -0.000152  0.000094 -0.000099 -0.000071 -0.000014
  2C   1dyz       0.000078  0.000067  0.000008  0.000021 -0.000024  0.000048
  2C   1dx2y2     0.003896 -0.005452  0.002645 -0.005792 -0.002966  0.001731
  2C   1dxy      -0.003085  0.006431  0.003036  0.004884 -0.003029  0.002231
  3C   1s         0.001678  0.105089  0.035525  0.073132 -0.040719  0.019453
  3C   2s        -0.003373 -0.207885 -0.071967 -0.148853  0.083289 -0.041209
  3C   1pz        0.001378  0.000017 -0.001873  0.001195  0.001230 -0.000805
  3C   1px        0.110120  0.003743 -0.139955  0.118512  0.087554  0.040600
  3C   1py       -0.015730  0.004309  0.039657  0.029396 -0.034234  0.206033
  3C   3s        -0.001175 -0.155901 -0.052302 -0.107083  0.057501 -0.049930
  3C   2pz        0.000257 -0.000113 -0.000453  0.000203  0.000454 -0.000299
  3C   2px        0.020972  0.002014 -0.027592  0.035583  0.024400  0.013152
  3C   2py       -0.002238  0.022045  0.021170  0.034579 -0.027557  0.072717
  3C   1dz2       0.000115  0.006988  0.001700  0.003169 -0.001521  0.001865
  3C   1dxz      -0.000030 -0.000144  0.000005 -0.000012 -0.000031 -0.000038
  3C   1dyz       0.000130  0.000077 -0.000065  0.000106  0.000010  0.000024
  3C   1dx2y2     0.002727 -0.000182 -0.000330  0.006037 -0.003164  0.000122
  3C   1dxy       0.009581  0.000255 -0.006997  0.002947  0.003971  0.000284
  4C   1s        -0.110306  0.028982  0.056911 -0.089121  0.001066 -0.004774
  4C   2s         0.215535 -0.056950 -0.115992  0.181483 -0.002817  0.008377
  4C   1pz       -0.000083  0.000173 -0.000108  0.001194 -0.000499 -0.002289
  4C   1px        0.023229  0.062789  0.049878  0.105885 -0.094812 -0.136511
  4C   1py        0.057098  0.089756  0.110767  0.006122 -0.097283  0.113052
  4C   3s         0.159929 -0.056010 -0.079064  0.144114  0.000438 -0.002928
  4C   2pz        0.000154  0.000006 -0.000241  0.000738 -0.000158 -0.000735
  4C   2px        0.016022  0.007931  0.005243  0.056342 -0.026184 -0.043688
  4C   2py        0.004500  0.014119  0.049061 -0.014462 -0.023686  0.037435
  4C   1dz2      -0.008322  0.002065  0.002600 -0.004136  0.000078  0.001019
  4C   1dxz       0.000111 -0.000119 -0.000129  0.000103  0.000047  0.000008
  4C   1dyz      -0.000128 -0.000059  0.000011 -0.000115  0.000037 -0.000023
  4C   1dx2y2    -0.005203 -0.008064 -0.005741 -0.001238  0.004550  0.000713
  4C   1dxy      -0.000541 -0.002657  0.001551 -0.005418  0.000704 -0.003292
  5C   1s        -0.114079 -0.074119 -0.077623  0.016753  0.050478  0.012756
  5C   2s         0.222463  0.144956  0.156079 -0.032503 -0.104574 -0.026824
  5C   1pz        0.000457 -0.000627  0.000206  0.002146 -0.001303 -0.001585
  5C   1px        0.008755 -0.037704  0.048461  0.091059 -0.084532 -0.180979
  5C   1py       -0.057626  0.030452  0.057548 -0.175422  0.052077 -0.083663
  5C   3s         0.169152  0.114651  0.124696 -0.042066 -0.085447 -0.036751
  5C   2pz        0.000136  0.000060  0.000044  0.000546 -0.000632 -0.000583
  5C   2px        0.010722  0.004488  0.028077  0.021964 -0.046575 -0.064137
  5C   2py       -0.001339 -0.001370  0.045706 -0.046257  0.014477 -0.026626
  5C   1dz2      -0.008721 -0.005001 -0.003963  0.000694  0.002316  0.001580
  5C   1dxz       0.000118  0.000184  0.000123 -0.000128 -0.000020 -0.000060
  5C   1dyz      -0.000082 -0.000052  0.000008  0.000033 -0.000004  0.000015
  5C   1dx2y2    -0.003401  0.005640  0.004722 -0.006741  0.000753 -0.001961
  5C   1dxy       0.002837 -0.002905  0.001803  0.005764 -0.002869  0.000865
  6C   1s        -0.000106  0.107324  0.027660 -0.008326  0.062086 -0.009875
  6C   2s         0.000850 -0.209117 -0.053014  0.017355 -0.123129  0.018017
  6C   1pz        0.000230 -0.000095  0.001218 -0.000218  0.001473 -0.000208
  6C   1px        0.020759 -0.041640  0.124656  0.032941  0.090257  0.058670
  6C   1py        0.001860 -0.063301  0.038426  0.097766 -0.066493  0.143870
  6C   3s        -0.003561 -0.204103 -0.065720  0.030747 -0.154023  0.050481
  6C   2pz        0.000060 -0.000010  0.000439 -0.000107  0.000459  0.000066
  6C   2px        0.006592 -0.008816  0.047094  0.000663  0.024596  0.036219
  6C   2py        0.002856 -0.014098  0.016589  0.018083 -0.028651  0.056374
  6C   1dz2      -0.000375 -0.003517 -0.003868  0.001872 -0.008487  0.001905
  6C   1dxz       0.000021 -0.000007  0.000158  0.000038  0.000171  0.000003
  6C   1dyz      -0.000019 -0.000080 -0.000008  0.000110 -0.000024  0.000078
  6C   1dx2y2     0.000315 -0.006691  0.006521  0.008234  0.002317  0.004776
  6C   1dxy      -0.001486 -0.000063 -0.000564  0.003329  0.004539  0.002434
  7C   1s        -0.007613  0.062294 -0.082096 -0.054087 -0.091995 -0.019834
  7C   2s         0.014975 -0.127322  0.170464  0.114295  0.194296  0.047021
  7C   1pz        0.000081  0.000353  0.001313  0.000282  0.002946 -0.001749
  7C   1px       -0.000893  0.083431  0.052469 -0.005251  0.190318 -0.137970
[...]
 4 C  dz2             0.6       0.0       2.3      10.7       0.0       4.4
 4 C  dxz             0.0       2.5       0.0       0.0       0.8       0.0
 4 C  dyz             0.0       0.8       0.0       0.0       1.0       0.0
 4 C  dx2y2           0.3       0.0       1.7       0.0       0.0       1.3
 4 C  dxy             0.0       0.0       2.6       3.9       0.0       1.5
 5 C  s               0.2       0.0       3.0       3.6       0.0       0.1
 5 C  pz              0.0       0.5       0.0       0.0       0.0       0.0
 5 C  px              0.0       0.0       0.9       0.2       0.0       0.0
 5 C  py              0.1       0.0       0.6       0.5       0.0       0.1
 5 C  dz2             0.3       0.0       5.0      10.2       0.0       0.2
 5 C  dxz             0.0      11.2       0.0       0.0       0.3       0.0
 5 C  dyz             0.0       0.0       0.0       0.0       1.0       0.0
 5 C  dx2y2           0.1       0.0       6.4       0.0       0.0       3.2
 5 C  dxy             0.5       0.0       0.2       5.9       0.0       1.2
 6 C  s               0.8       0.0       1.1       0.0       0.0       1.5
 6 C  pz              0.0       0.2       0.0       0.0       0.1       0.0
 6 C  px              1.4       0.0       0.7       0.1       0.0       0.7
 6 C  py              0.1       0.0       0.6       0.0       0.0       0.1
 6 C  dz2             5.4       0.0       2.5       0.1       0.0       6.9
 6 C  dxz             0.0       0.3       0.0       0.0       5.0       0.0
 6 C  dyz             0.0      24.3       0.0       0.0       1.3       0.0
 6 C  dx2y2           7.4       0.0       0.1       0.0       0.0       0.5
 6 C  dxy             0.6       0.0      10.2       0.3       0.0       1.8
 7 C  s               3.5       0.0       0.9       0.0       0.0       0.9
 7 C  pz              0.0       0.1       0.0       0.0       1.8       0.0
 7 C  px              1.7       0.0       0.9       0.0       0.0       0.4
 7 C  py              0.7       0.0       0.7       0.0       0.0       0.2
 7 C  dz2            21.3       0.0       1.9       0.1       0.0       2.8
 7 C  dxz             0.0       3.7       0.0       0.0       1.1       0.0
 7 C  dyz             0.0       0.7       0.0       0.0      36.7       0.0
 7 C  dx2y2          21.5       0.0      19.4       0.9       0.0       2.7
 7 C  dxy             0.1       0.0       0.5       0.0       0.0       0.0
 8 H  s               0.2       1.1       0.2       0.0       0.5       0.2
 9 H  s               0.2       1.1       0.2       0.0       0.5       0.2
10 O  s               3.3       0.0       1.7       0.2       0.0       0.0
10 O  pz              0.0       0.0       0.0       0.0       2.2       0.0
10 O  px              0.4       0.0       0.1       0.0       0.0       0.0
10 O  py              6.5       0.0       1.4       0.1       0.0       0.0
10 O  dz2             1.0       0.0       1.1       0.0       0.0       0.2
10 O  dxz             0.0       0.2       0.0       0.0       0.3       0.0
10 O  dyz             0.0       1.2       0.0       0.0      41.8       0.0
10 O  dx2y2           7.7       0.0       0.2       0.0       0.0       0.3
10 O  dxy             9.6       0.0       0.4       0.0       0.0       0.1
11 H  s               0.2       0.0       0.9       0.0       0.0       0.3
12 H  s               0.0       0.0       0.0       1.2       0.0       0.1
13 H  s               0.0       0.0       0.5       1.4       0.0       0.1
14 H  s               0.0       0.0       0.5       0.0       0.0       0.6
15 H  s               0.1       0.0       0.9       1.1       0.0       0.2
16 H  s               0.0       0.0       0.0       1.4       0.0       0.7

                    132       133       134       135       136       137   
                   2.65725   2.69555   2.74704   2.75133   2.79161   2.83126
                   0.00000   0.00000   0.00000   0.00000   0.00000   0.00000
                  --------  --------  --------  --------  --------  --------
 0 C  s               0.0       0.7       1.5       1.7       4.6       0.7
 0 C  px              0.0       0.6       0.2       0.5       1.4       0.1
 0 C  py              0.0       0.4       3.0       0.3       0.0       0.2
 0 C  dz2             0.0       1.8       1.1       1.8       6.3       1.2
 0 C  dxz             5.8       0.0       0.0       0.0       0.0       0.0
 0 C  dyz             9.8       0.0       0.0       0.0       0.0       0.0
 0 C  dx2y2           0.0       1.7      16.9       0.0       3.6       0.0
 0 C  dxy             0.0       4.6       0.6      17.2       0.3       0.7
 1 C  s               0.0       0.7       2.0       0.1       4.1       1.7
 1 C  px              0.0       0.0       0.0       3.8       0.6       0.1
 1 C  py              0.0       0.3       1.7       0.2       0.3       0.2
 1 C  dz2             0.0       1.6       0.2       0.2       5.8       3.7
 1 C  dxz            15.7       0.0       0.0       0.0       0.0       0.0
 1 C  dyz             0.3       0.0       0.0       0.0       0.0       0.0
 1 C  dx2y2           0.0      17.8       0.0       0.1       0.1       0.9
 1 C  dxy             0.0       1.1       0.1       1.1      10.2       6.2
 2 C  s               0.0       0.1       1.5       0.0       1.2       1.2
 2 C  px              0.0       0.1       0.0       0.1       0.1       0.8
 2 C  py              0.0       1.2       3.5       0.7       0.2       0.6
 2 C  dz2             0.0       0.3       1.6       0.4       2.2       1.3
 2 C  dxz             2.0       0.0       0.0       0.0       0.0       0.0
 2 C  dyz            13.1       0.0       0.0       0.0       0.0       0.0
 2 C  dx2y2           0.0       5.2       8.2       9.6       0.0       3.6
 2 C  dxy             0.0       0.7       8.9       6.9       2.2       4.9
 3 C  s               0.0       0.1       1.4       0.3       2.1       0.2
 3 C  px              0.0       0.0       0.0       1.1       1.7       3.1
 3 C  py              0.0       0.0       0.7       0.0       0.1       0.1
 3 C  dz2             0.0       0.0       0.0       0.5       3.0       0.3
 3 C  dxz            14.3       0.0       0.0       0.0       0.0       0.0
 3 C  dyz             0.2       0.0       0.0       0.0       0.0       0.0
 3 C  dx2y2           0.0      22.7       0.1       1.2       0.0       3.2
 3 C  dxy             0.0       1.7       0.2       1.9      10.1       9.7
 4 C  s               0.0       0.1       1.2       2.0       2.2       0.6
 4 C  px              0.0       0.4       0.2       0.3       1.4       0.9
 4 C  py              0.0       0.7       2.2       1.4       0.3       0.2
 4 C  dz2             0.0       0.1       0.8       4.6       2.6       0.0
 4 C  dxz             5.4       0.0       0.0       0.0       0.0       0.0
 4 C  dyz             9.6       0.0       0.0       0.0       0.0       0.0
 4 C  dx2y2           0.0       2.7      11.3       2.2       8.4       2.9
 4 C  dxy             0.0       6.9       3.5       7.1       0.0       4.9
 5 C  s               0.0       0.4       0.3       5.8       0.9       1.2
 5 C  px              0.0       0.3       0.2       0.8       0.1       0.7
 5 C  py              0.0       0.9       3.0       0.5       0.1       0.1
 5 C  dz2             0.0       1.0       0.1       7.9       1.2       1.2
 5 C  dxz             1.9       0.0       0.0       0.0       0.0       0.0
 5 C  dyz            13.1       0.0       0.0       0.0       0.0       0.0
 5 C  dx2y2           0.0       3.2       6.6       5.6       0.9       2.5
 5 C  dxy             0.0       0.4      13.9       6.4       0.2       0.4
 6 C  s               0.0       0.4       0.1       0.0       0.2       1.1
 6 C  px              0.0       0.2       0.0       0.0       0.4       0.8
 6 C  py              0.0       0.3       0.1       0.0       0.2       0.1
 6 C  dz2             0.0       0.8       0.0       0.0       0.8       4.0
 6 C  dxz             2.5       0.0       0.0       0.0       0.0       0.0
 6 C  dx2y2           0.0       0.1       0.0       0.1       0.2       1.4
 6 C  dxy             0.0       0.0       0.0       1.0       1.5       9.9
 7 C  s               0.0       0.1       0.1       0.1       0.3       0.9
 7 C  px              0.0       0.1       0.0       0.1       0.1       0.4
 7 C  py              0.0       0.0       0.1       0.0       0.2       0.4
 7 C  dz2             0.0       0.1       0.1       0.2       0.2       1.7
 7 C  dxz             0.3       0.0       0.0       0.0       0.0       0.0
 7 C  dyz             2.7       0.0       0.0       0.0       0.0       0.0
 7 C  dx2y2           0.0       0.3       0.2       0.2       0.4       5.1
 7 C  dxy             0.0       7.0       0.7       0.6       8.0       8.4
 8 H  s               0.2       0.0       0.0       0.0       0.0       0.2
 9 H  s               0.2       0.0       0.0       0.0       0.0       0.2
10 O  s               0.0       0.0       0.0       0.0       1.0       0.0
10 O  pz              0.1       0.0       0.0       0.0       0.0       0.0
10 O  px              0.0       0.3       0.1       0.0       0.3       0.3
10 O  py              0.0       0.0       0.0       0.0       0.3       0.0
10 O  dz2             0.0       0.0       0.1       0.2       0.3       0.0
10 O  dyz             2.5       0.0       0.0       0.0       0.0       0.0
10 O  dx2y2           0.0       0.1       0.1       0.0       0.1       0.0
10 O  dxy             0.0       5.4       0.9       0.6       5.5       3.9
11 H  s               0.0       0.3       0.1       0.1       0.3       0.0
12 H  s               0.0       0.2       0.0       0.7       0.4       0.0
13 H  s               0.0       0.5       0.1       1.1       0.2       0.0
14 H  s               0.0       2.0       0.0       0.1       0.2       0.1
15 H  s               0.0       0.1       0.0       0.3       0.2       0.3
16 H  s               0.0       0.7       0.2       0.3       0.2       0.2

                    138       139       140       141   
                   2.94832   2.97817   3.09367   3.41065
                   0.00000   0.00000   0.00000   0.00000
                  --------  --------  --------  --------
 0 C  s               0.9       0.1       0.1       1.7
 0 C  px              0.0       0.2       1.3       0.1
 0 C  py              0.1       0.1       1.8       0.0
 0 C  dz2             1.3       0.1       0.0       1.1
 0 C  dx2y2           0.5       2.3       9.7       0.9
 0 C  dxy             0.2       0.2       0.4      12.1
 1 C  s               4.4       0.5       0.6       0.9
 1 C  px              0.0       0.3       2.4       0.0
 1 C  py              0.7       0.1       0.0       0.3
 1 C  dz2             4.7       0.3       0.7       0.7
 1 C  dx2y2           7.7       0.3       3.1      14.0
 1 C  dxy             0.8       2.5      19.3       0.7
 2 C  s               1.4       0.2       0.2       1.6
 2 C  px              0.2       0.2       0.1       0.1
 2 C  py              0.1       0.5       1.8       0.0
 2 C  dz2             1.7       0.2       0.1       1.1
 2 C  dx2y2           0.1       0.2       4.0       6.6
 2 C  dxy             0.3       2.0       2.6       6.1
 3 C  s               0.8       0.1       0.0       1.7
 3 C  px              0.1       0.5       1.5       0.0
 3 C  py              0.1       0.0       0.0       0.1
 3 C  dz2             1.0       0.1       0.0       1.1
 3 C  dx2y2           0.8       0.2       0.9      11.7
 3 C  dxy             0.9       2.5       4.6       0.9
 4 C  s               1.2       0.0       0.0       1.7
 4 C  px              0.0       0.1       0.7       0.1
 4 C  py              0.2       0.2       1.4       0.1
 4 C  dz2             1.6       0.0       0.0       1.1
 4 C  dx2y2           1.3       2.0       5.6       1.1
 4 C  dxy             0.0       0.0       0.6      11.7
 5 C  s               1.2       0.1       0.2       1.6
 5 C  px              0.0       0.0       0.9       0.1
 5 C  py              0.4       0.4       2.4       0.0
 5 C  dz2             1.7       0.1       0.3       1.0
 5 C  dx2y2           0.2       0.2       6.6       7.5
 5 C  dxy             0.5       0.7       6.2       5.5
 6 C  s               1.0       0.1       0.6       0.1
 6 C  px              0.3       0.2       0.1       0.0
 6 C  py              1.7       0.1       0.0       0.3
 6 C  dz2             1.1       0.1       0.4       0.0
 6 C  dx2y2          12.5       5.1       1.0       1.3
 6 C  dxy             0.0       0.4       5.2       0.0
 7 C  s               1.9      10.0       0.7       0.1
 7 C  px              0.1       0.0       0.3       0.0
 7 C  py              2.8       5.9       0.8       0.0
 7 C  dz2             0.2       1.9       0.0       0.0
 7 C  dx2y2           0.4       1.1       3.1       0.0
 7 C  dxy            12.6       7.0       1.7       0.4
10 O  s               5.7      11.8       1.2       0.0
10 O  px              0.9       0.0       0.0       0.0
10 O  py              1.4       5.0       0.8       0.0
10 O  dz2             3.2       7.5       0.4       0.0
10 O  dx2y2           4.1      25.8       2.9       0.1
10 O  dxy            11.9       0.1       0.3       0.1
11 H  s               0.7       0.2       0.2       0.0
12 H  s               0.1       0.0       0.0       0.5
13 H  s               0.0       0.0       0.0       0.6
14 H  s               0.0       0.0       0.0       0.5
15 H  s               0.2       0.0       0.0       0.6
16 H  s               0.0       0.0       0.0       0.5


                      *****************************
                      * MAYER POPULATION ANALYSIS *
                      *****************************

  NA   - Mulliken gross atomic population
  ZA   - Total nuclear charge
  QA   - Mulliken gross atomic charge
  VA   - Mayer's total valence
  BVA  - Mayer's bonded valence
  FA   - Mayer's free valence

  ATOM       NA         ZA         QA         VA         BVA        FA
  0 C      6.1759     6.0000    -0.1759     3.9337     3.9337    -0.0000
  1 C      5.8390     6.0000     0.1610     3.9212     3.9212     0.0000
  2 C      6.1245     6.0000    -0.1245     3.9503     3.9503    -0.0000
  3 C      6.1279     6.0000    -0.1279     3.9486     3.9486    -0.0000
  4 C      6.1276     6.0000    -0.1276     3.9498     3.9498     0.0000
  5 C      6.1837     6.0000    -0.1837     3.9368     3.9368     0.0000
  6 C      6.4389     6.0000    -0.4389     3.7697     3.7697    -0.0000
  7 C      5.7603     6.0000     0.2397     3.8406     3.8406     0.0000
  8 H      0.8063     1.0000     0.1937     0.9219     0.9219    -0.0000
  9 H      0.8062     1.0000     0.1938     0.9220     0.9220    -0.0000
 10 O      8.3689     8.0000    -0.3689     2.0889     2.0889     0.0000
 11 H      0.8841     1.0000     0.1159     0.9323     0.9323    -0.0000
 12 H      0.8752     1.0000     0.1248     0.9394     0.9394    -0.0000
 13 H      0.8688     1.0000     0.1312     0.9368     0.9368     0.0000
 14 H      0.8694     1.0000     0.1306     0.9369     0.9369     0.0000
 15 H      0.8747     1.0000     0.1253     0.9441     0.9441     0.0000
 16 H      0.8687     1.0000     0.1313     0.9371     0.9371    -0.0000

  Mayer bond orders larger than 0.1
B(  0-C ,  1-C ) :   1.4103 B(  0-C ,  2-C ) :   1.4630 B(  0-C , 12-H ) :   0.9274 
B(  1-C ,  5-C ) :   1.4569 B(  1-C ,  6-C ) :   0.9450 B(  2-C ,  3-C ) :   1.4391 
B(  2-C , 13-H ) :   0.9293 B(  3-C ,  4-C ) :   1.4679 B(  3-C , 14-H ) :   0.9296 
B(  4-C ,  5-C ) :   1.4285 B(  4-C , 16-H ) :   0.9292 B(  5-C , 15-H ) :   0.9158 
B(  6-C ,  7-C ) :   0.9416 B(  6-C ,  8-H ) :   0.9108 B(  6-C ,  9-H ) :   0.9108 
B(  7-C , 10-O ) :   1.9832 B(  7-C , 11-H ) :   0.8879 

-------
TIMINGS
-------

Total SCF time: 0 days 0 hours 0 min 23 sec 

Total time                  ....      23.186 sec
Sum of individual times     ....      22.830 sec  ( 98.5%)

Fock matrix formation       ....      20.709 sec  ( 89.3%)
  XC integration            ....       3.102 sec  ( 15.0% of F)
    Basis function eval.    ....       1.191 sec  ( 38.4% of XC)
    Density eval.           ....       0.812 sec  ( 26.2% of XC)
    XC-Functional eval.     ....       0.225 sec  (  7.2% of XC)
    XC-Potential eval.      ....       0.708 sec  ( 22.8% of XC)
Diagonalization             ....       0.004 sec  (  0.0%)
Density matrix formation    ....       0.002 sec  (  0.0%)
Population analysis         ....       0.057 sec  (  0.2%)
Initial guess               ....       0.004 sec  (  0.0%)
Orbital Transformation      ....       0.000 sec  (  0.0%)
Orbital Orthonormalization  ....       0.002 sec  (  0.0%)
DIIS solution               ....       0.001 sec  (  0.0%)
SOSCF solution              ....       0.012 sec  (  0.0%)
Grid generation             ....       2.042 sec  (  8.8%)

-------------------------   --------------------
FINAL SINGLE POINT ENERGY      -384.629078637643
-------------------------   --------------------

                                *** OPTIMIZATION RUN DONE ***

                            ***************************************
                            *     ORCA property calculations      *
                            ***************************************

                                    ---------------------
                                    Active property flags
                                    ---------------------
   (+) Dipole Moment


------------------------------------------------------------------------------
                       ORCA ELECTRIC PROPERTIES CALCULATION
------------------------------------------------------------------------------

Dipole Moment Calculation                       ... on
Quadrupole Moment Calculation                   ... off
Polarizability Calculation                      ... off
GBWName                                         ... /Users/lailaal-madhagi/Desktop/Testing_XAS_Analysis_code/PhenylAcetaldehyde//Results_dir_PhenylAcetaldehyde_geom_element_C_2019-11-16_18-39-39//GTE1_PhenylAcetaldehyde_geom_2019-11-16_18-39-50//opt.gbw
Electron density file                           ... /Users/lailaal-madhagi/Desktop/Testing_XAS_Analysis_code/PhenylAcetaldehyde//Results_dir_PhenylAcetaldehyde_geom_element_C_2019-11-16_18-39-39//GTE1_PhenylAcetaldehyde_geom_2019-11-16_18-39-50//opt.scfp.tmp
The origin for moment calculation is the CENTER OF MASS  = (-0.307347,  3.115535  0.000000)

-------------
DIPOLE MOMENT
-------------
                                X             Y             Z
Electronic contribution:      1.34221       2.43969       0.00096
Nuclear contribution   :     -1.71859      -3.39857       0.00144
                        -----------------------------------------
Total Dipole Moment    :     -0.37638      -0.95888       0.00240
                        -----------------------------------------
Magnitude (a.u.)       :      1.03010
Magnitude (Debye)      :      2.61832



--------------------
Rotational spectrum 
--------------------
 
Rotational constants in cm-1:     0.164061     0.029222     0.024916 
Rotational constants in MHz :  4918.410528   876.050081   746.950793 

 Dipole components along the rotational axes: 
x,y,z [a.u.] :    -1.029864     0.022258     0.000784 
x,y,z [Debye]:    -2.617706     0.056575     0.001992 

 

Timings for individual modules:

Sum of individual times         ...      298.271 sec (=   4.971 min)
GTO integral calculation        ...        3.838 sec (=   0.064 min)   1.3 %
SCF iterations                  ...      195.005 sec (=   3.250 min)  65.4 %
SCF Gradient evaluation         ...       96.163 sec (=   1.603 min)  32.2 %
Geometry relaxation             ...        3.265 sec (=   0.054 min)   1.1 %
                             ****ORCA TERMINATED NORMALLY****
TOTAL RUN TIME: 0 days 0 hours 4 minutes 59 seconds 414 msec
