
                                 *****************
                                 * O   R   C   A *
                                 *****************

           --- An Ab Initio, DFT and Semiempirical electronic structure package ---

                  #######################################################
                  #                        -***-                        #
                  #          Department of theory and spectroscopy      #
                  #               Directorship: Frank Neese             #
                  #        Max Planck Institute fuer Kohlenforschung    #
                  #                Kaiser Wilhelm Platz 1               #
                  #                 D-45470 Muelheim/Ruhr               #
                  #                      Germany                        #
                  #                                                     #
                  #                  All rights reserved                #
                  #                        -***-                        #
                  #######################################################


                         Program Version 4.1.0  - RELEASE  -


 With contributions from (in alphabetic order):
   Daniel Aravena         : Magnetic Properties
   Michael Atanasov       : Ab Initio Ligand Field Theory
   Alexander A. Auer      : GIAO ZORA
   Ute Becker             : Parallelization
   Giovanni Bistoni       : ED, Open-shell LED
   Martin Brehm           : Molecular dynamics
   Dmytro Bykov           : SCF Hessian
   Vijay G. Chilkuri      : MRCI spin determinant printing
   Dipayan Datta          : RHF DLPNO-CCSD density
   Achintya Kumar Dutta   : EOM-CC, STEOM-CC
   Dmitry Ganyushin       : Spin-Orbit,Spin-Spin,Magnetic field MRCI
   Miquel Garcia          : C-PCM Hessian
   Yang Guo               : DLPNO-NEVPT2, CIM, IAO-localization
   Andreas Hansen         : Spin unrestricted coupled pair/coupled cluster methods
   Benjamin Helmich-Paris : CASSCF linear response (MC-RPA)
   Lee Huntington         : MR-EOM, pCC
   Robert Izsak           : Overlap fitted RIJCOSX, COSX-SCS-MP3, EOM
   Christian Kollmar      : KDIIS, OOCD, Brueckner-CCSD(T), CCSD density
   Simone Kossmann        : Meta GGA functionals, TD-DFT gradient, OOMP2, MP2 Hessian
   Martin Krupicka        : AUTO-CI
   Lucas Lang             : DCDCAS
   Dagmar Lenk            : GEPOL surface, SMD
   Dimitrios Liakos       : Extrapolation schemes; parallel MDCI
   Dimitrios Manganas     : ROCIS; embedding schemes
   Dimitrios Pantazis     : SARC Basis sets
   Taras Petrenko         : DFT Hessian,TD-DFT gradient, ASA, ECA, R-Raman, ABS, FL, XAS/XES, NRVS
   Peter Pinski           : DLPNO-MP2, DLPNO-MP2 Gradient
   Christoph Reimann      : Effective Core Potentials
   Marius Retegan         : Local ZFS, SOC
   Christoph Riplinger    : Optimizer, TS searches, QM/MM, DLPNO-CCSD(T), (RO)-DLPNO pert. Triples
   Tobias Risthaus        : Range-separated hybrids, TD-DFT gradient, RPA, STAB
   Michael Roemelt        : Restricted open shell CIS
   Masaaki Saitow         : Open-shell DLPNO
   Barbara Sandhoefer     : DKH picture change effects
   Avijit Sen             : IP-ROCIS
   Kantharuban Sivalingam : CASSCF convergence, NEVPT2, FIC-MRCI
   Bernardo de Souza      : ESD, SOC TD-DFT
   Georgi Stoychev        : AutoAux, RI-MP2 NMR
   Willem Van den Heuvel  : Paramagnetic NMR
   Boris Wezisla          : Elementary symmetry handling
   Frank Wennmohs         : Technical directorship


 We gratefully acknowledge several colleagues who have allowed us to
 interface, adapt or use parts of their codes:
   Stefan Grimme, W. Hujo, H. Kruse,             : VdW corrections, initial TS optimization,
                  C. Bannwarth                     DFT functionals, gCP, sTDA/sTD-DF
   Ed Valeev                                     : LibInt (2-el integral package), F12 methods
   Garnet Chan, S. Sharma, J. Yang, R. Olivares  : DMRG
   Ulf Ekstrom                                   : XCFun DFT Library
   Mihaly Kallay                                 : mrcc  (arbitrary order and MRCC methods)
   Andreas Klamt, Michael Diedenhofen            : otool_cosmo (COSMO solvation model)
   Jiri Pittner, Ondrej Demel                    : Mk-CCSD
   Frank Weinhold                                : gennbo (NPA and NBO analysis)
   Christopher J. Cramer and Donald G. Truhlar   : smd solvation model
   Lars Goerigk                                  : TD-DFT with DH, B97 family of functionals
   V. Asgeirsson, H. Jonsson                     : NEB implementation
   FAccTs GmbH                                   : IRC, NEB, NEB-TS, Multilevel


 Your calculation uses the libint2 library for the computation of 2-el integrals
 For citations please refer to: http://libint.valeyev.net

 This ORCA versions uses:
   CBLAS   interface :  Fast vector & matrix operations
   LAPACKE interface :  Fast linear algebra routines
   SCALAPACK package :  Parallel linear algebra routines




***************************************
The coordinates will be read from file: /Users/lailaal-madhagi/Desktop/Testing_XAS_Analysis_code/PhenylAcetaldehyde//Results_dir_PhenylAcetaldehyde_geom_element_C_2019-11-16_18-39-39//GTE1_PhenylAcetaldehyde_geom_2019-11-16_18-39-50//opt.xyz
***************************************


----- Orbital basis set information -----
Your calculation utilizes the basis: 6-31G*
   H-He, Li-Ne : W. J. Hehre, R. Ditchfield and J.A. Pople, J. Chem. Phys. 56, 2257 (1972).
                 Note: He and Ne are unpublished basis sets taken from the Gaussian program.
                 Note: Li and B from J. D. Dill and J. A. Pople, J. Chem. Phys. 62, 2921 (1975).
   Na - Ar     : M. M. Francl, W. J. Pietro, W. J. Hehre, J. S. Binkley, M. S. Gordon, 
                 D. J. DeFrees and J. A. Pople, J. Chem. Phys. 77, 3654 (1982).
   K - Zn      : V. A. Rassolov, J. A. Pople, M. A. Ratner, and T. L. Windus, J. Chem. Phys. 109, 1223 (1998).

================================================================================
                                        WARNINGS
                       Please study these warnings very carefully!
================================================================================

INFO   : Checking CIS options ...

WARNING: CIS/ROCIS methods need fully converged wavefunctions
  ===> : Setting SCFConvForced true
         You can overwrite this default with %scf ConvForced false 


INFO   : the flag for use of LIBINT has been found!

================================================================================
                                       INPUT FILE
================================================================================
NAME = /Users/lailaal-madhagi/Desktop/Testing_XAS_Analysis_code/PhenylAcetaldehyde//Results_dir_PhenylAcetaldehyde_geom_element_C_2019-11-16_18-39-39//GTE1_PhenylAcetaldehyde_geom_2019-11-16_18-39-50//TDDFT_C-edge.inp
|  1> #This is C K-edge calculation 
|  2> ! B3LYP 6-31G* TIGHTSCF Grid3 FinalGrid5 
|  3> !NormalPrint 
|  4> %output 
|  5> Print[P_Basis] 2 
|  6> Print[P_MOS] 1 
|  7> end 
|  8> 
|  9> %tddft 
| 10> orbwin[0]=1,8,-1,-1 
| 11> nroots=20 
| 12> maxdim=200 
| 13> end 
| 14> *xyzfile 0 1 /Users/lailaal-madhagi/Desktop/Testing_XAS_Analysis_code/PhenylAcetaldehyde//Results_dir_PhenylAcetaldehyde_geom_element_C_2019-11-16_18-39-39//GTE1_PhenylAcetaldehyde_geom_2019-11-16_18-39-50//opt.xyz                           ****END OF INPUT****
================================================================================

                       ****************************
                       * Single Point Calculation *
                       ****************************

---------------------------------
CARTESIAN COORDINATES (ANGSTROEM)
---------------------------------
  C     -1.714755    1.149232   -0.014903
  C     -0.426100    1.708233   -0.003254
  C     -1.906658   -0.230781   -0.008708
  C     -0.805001   -1.090746    0.009430
  C      0.480027   -0.551511    0.021155
  C      0.668643    0.834636    0.014885
  C     -0.314094    3.224850   -0.011232
  C      1.058863    3.879371    0.001034
  H     -0.856425    3.644358    0.849136
  H     -0.835902    3.633692   -0.889260
  O      1.198801    5.083006   -0.006415
  H      1.951133    3.219815    0.014818
  H     -2.579857    1.809916   -0.029070
  H     -2.915769   -0.635000   -0.018021
  H     -0.948988   -2.167982    0.014328
  H      1.684608    1.215521    0.024399
  H      1.346773   -1.207619    0.035308

----------------------------
CARTESIAN COORDINATES (A.U.)
----------------------------
  NO LB      ZA    FRAG     MASS         X           Y           Z
   0 C     6.0000    0    12.011   -3.240416    2.171734   -0.028163
   1 C     6.0000    0    12.011   -0.805213    3.228092   -0.006148
   2 C     6.0000    0    12.011   -3.603062   -0.436112   -0.016457
   3 C     6.0000    0    12.011   -1.521231   -2.061212    0.017820
   4 C     6.0000    0    12.011    0.907120   -1.042205    0.039978
   5 C     6.0000    0    12.011    1.263553    1.577233    0.028128
   6 C     6.0000    0    12.011   -0.593551    6.094082   -0.021225
   7 C     6.0000    0    12.011    2.000961    7.330950    0.001954
   8 H     1.0000    0     1.008   -1.618409    6.886838    1.604635
   9 H     1.0000    0     1.008   -1.579625    6.866682   -1.680458
  10 O     8.0000    0    15.999    2.265406    9.605489   -0.012122
  11 H     1.0000    0     1.008    3.687107    6.084568    0.028001
  12 H     1.0000    0     1.008   -4.875223    3.420245   -0.054935
  13 H     1.0000    0     1.008   -5.510005   -1.199976   -0.034055
  14 H     1.0000    0     1.008   -1.793328   -4.096892    0.027077
  15 H     1.0000    0     1.008    3.183448    2.297003    0.046107
  16 H     1.0000    0     1.008    2.545032   -2.282069    0.066722

--------------------------------
INTERNAL COORDINATES (ANGSTROEM)
--------------------------------
 C      0   0   0     0.000000000000     0.00000000     0.00000000
 C      1   0   0     1.404723141055     0.00000000     0.00000000
 C      1   2   0     1.393305652809   121.36326329     0.00000000
 C      3   1   2     1.397683314100   120.05995211     0.00000000
 C      4   3   1     1.393631866413   119.26301466     0.00000000
 C      5   4   3     1.398935032983   120.50904152     0.00000000
 C      2   1   3     1.520767966718   117.67008185   179.99940970
 C      7   2   1     1.521038797384   119.70777220   179.99068176
 H      7   2   1     1.100156082268   109.86872113    57.14865423
 H      7   2   1     1.100167942658   109.86819987   302.83823631
 O      8   7   2     1.211764789918   122.11467275   179.90385984
 H      8   7   2     1.109662395004   118.04344391     0.04941869
 H      1   2   3     1.088625523382   119.18356485   180.00071079
 H      3   1   2     1.087099208161   119.74225725   179.99909790
 H      4   3   1     1.086826798770   120.36346562   180.00029956
 H      6   5   4     1.085057402827   118.29574532   180.00205842
 H      5   4   3     1.087163557007   120.11400309   179.99958420

---------------------------
INTERNAL COORDINATES (A.U.)
---------------------------
 C      0   0   0     0.000000000000     0.00000000     0.00000000
 C      1   0   0     2.654542030575     0.00000000     0.00000000
 C      1   2   0     2.632966104654   121.36326329     0.00000000
 C      3   1   2     2.641238685601   120.05995211     0.00000000
 C      4   3   1     2.633582559027   119.26301466     0.00000000
 C      5   4   3     2.643604091485   120.50904152     0.00000000
 C      2   1   3     2.873834970338   117.67008185   179.99940970
 C      7   2   1     2.874346766125   119.70777220   179.99068176
 H      7   2   1     2.078993700054   109.86872113    57.14865423
 H      7   2   1     2.079016112943   109.86819987   302.83823631
 O      8   7   2     2.289903591674   122.11467275   179.90385984
 H      8   7   2     2.096958027668   118.04344391     0.04941869
 H      1   2   3     2.057204101589   119.18356485   180.00071079
 H      3   1   2     2.054319783827   119.74225725   179.99909790
 H      4   3   1     2.053805004682   120.36346562   180.00029956
 H      6   5   4     2.050461330927   118.29574532   180.00205842
 H      5   4   3     2.054441385522   120.11400309   179.99958420

---------------------
BASIS SET INFORMATION
---------------------
There are 3 groups of distinct atoms

 Group   1 Type C   : 10s4p1d contracted to 3s2p1d pattern {631/31/1}
 Group   2 Type H   : 4s contracted to 2s pattern {31}
 Group   3 Type O   : 10s4p1d contracted to 3s2p1d pattern {631/31/1}

Atom   0C    basis set group =>   1
Atom   1C    basis set group =>   1
Atom   2C    basis set group =>   1
Atom   3C    basis set group =>   1
Atom   4C    basis set group =>   1
Atom   5C    basis set group =>   1
Atom   6C    basis set group =>   1
Atom   7C    basis set group =>   1
Atom   8H    basis set group =>   2
Atom   9H    basis set group =>   2
Atom  10O    basis set group =>   3
Atom  11H    basis set group =>   2
Atom  12H    basis set group =>   2
Atom  13H    basis set group =>   2
Atom  14H    basis set group =>   2
Atom  15H    basis set group =>   2
Atom  16H    basis set group =>   2

-------------------------
BASIS SET IN INPUT FORMAT
-------------------------

 # Basis set for element : H 
 NewGTO H 
 S 3 
   1      18.7311370000      0.0334945995
   2       2.8253937000      0.2347269467
   3       0.6401217000      0.8137573184
 S 1 
   1       0.1612778000      1.0000000000
  end;

 # Basis set for element : C 
 NewGTO C 
 S 6 
   1    3047.5249000000      0.0018347002
   2     457.3695100000      0.0140373012
   3     103.9486900000      0.0688426061
   4      29.2101550000      0.2321844206
   5       9.2866630000      0.4679413416
   6       3.1639270000      0.3623120322
 S 3 
   1       7.8682724000     -0.1193324086
   2       1.8812885000     -0.1608542116
   3       0.5442493000      1.1434564826
 P 3 
   1       7.8682724000      0.0689990956
   2       1.8812885000      0.3164239798
   3       0.5442493000      0.7443082524
 S 1 
   1       0.1687144000      1.0000000000
 P 1 
   1       0.1687144000      1.0000000000
 D 1 
   1       0.8000000000      1.0000000000
  end;

 # Basis set for element : O 
 NewGTO O 
 S 6 
   1    5484.6717000000      0.0018310998
   2     825.2349500000      0.0139500985
   3     188.0469600000      0.0684450927
   4      52.9645000000      0.2327142753
   5      16.8975700000      0.4701929501
   6       5.7996353000      0.3585208619
 S 3 
   1      15.5396160000     -0.1107775038
   2       3.5999336000     -0.1480263051
   3       1.0137618000      1.1307670390
 P 3 
   1      15.5396160000      0.0708742995
   2       3.5999336000      0.3397527978
   3       1.0137618000      0.7271585953
 S 1 
   1       0.2700058000      1.0000000000
 P 1 
   1       0.2700058000      1.0000000000
 D 1 
   1       0.8000000000      1.0000000000
  end;

------------------------------------------------------------------------------
                           ORCA GTO INTEGRAL CALCULATION
------------------------------------------------------------------------------

                         BASIS SET STATISTICS AND STARTUP INFO

 # of primitive gaussian shells          ...  167
 # of primitive gaussian functions       ...  275
 # of contracted shells                  ...   70
 # of contracted basis functions         ...  142
 Highest angular momentum                ...    2
 Maximum contraction depth               ...    6
 Integral package used                   ... LIBINT
 Integral threshhold            Thresh   ...  2.500e-11
 Primitive cut-off              TCut     ...  2.500e-12


------------------------------ INTEGRAL EVALUATION ----------------------------


 * One electron integrals 
 Pre-screening matrix                    ... done
 Shell pair data                         ... done (   0.003 sec)

-------------------------------------------------------------------------------
                                 ORCA SCF
-------------------------------------------------------------------------------

------------
SCF SETTINGS
------------
Hamiltonian:
 Density Functional     Method          .... DFT(GTOs)
 Exchange Functional    Exchange        .... B88
   X-Alpha parameter    XAlpha          ....  0.666667
   Becke's b parameter  XBeta           ....  0.004200
 Correlation Functional Correlation     .... LYP
 LDA part of GGA corr.  LDAOpt          .... VWN-5
 Gradients option       PostSCFGGA      .... off
 Hybrid DFT is turned on
   Fraction HF Exchange ScalHFX         ....  0.200000
   Scaling of DF-GGA-X  ScalDFX         ....  0.720000
   Scaling of DF-GGA-C  ScalDFC         ....  0.810000
   Scaling of DF-LDA-C  ScalLDAC        ....  1.000000
   Perturbative correction              ....  0.000000
   Density functional embedding theory  .... OFF
   NL short-range parameter             ....  4.800000


General Settings:
 Integral files         IntName         .... /Users/lailaal-madhagi/Desktop/Testing_XAS_Analysis_code/PhenylAcetaldehyde//Results_dir_PhenylAcetaldehyde_geom_element_C_2019-11-16_18-39-39//GTE1_PhenylAcetaldehyde_geom_2019-11-16_18-39-50//TDDFT_C-edge
 Hartree-Fock type      HFTyp           .... RHF
 Total Charge           Charge          ....    0
 Multiplicity           Mult            ....    1
 Number of Electrons    NEL             ....   64
 Basis Dimension        Dim             ....  142
 Nuclear Repulsion      ENuc            ....    389.0621277010 Eh

Convergence Acceleration:
 DIIS                   CNVDIIS         .... on
   Start iteration      DIISMaxIt       ....    12
   Startup error        DIISStart       ....  0.200000
   # of expansion vecs  DIISMaxEq       ....     5
   Bias factor          DIISBfac        ....   1.050
   Max. coefficient     DIISMaxC        ....  10.000
 Newton-Raphson         CNVNR           .... off
 SOSCF                  CNVSOSCF        .... on
   Start iteration      SOSCFMaxIt      ....   150
   Startup grad/error   SOSCFStart      ....  0.003300
 Level Shifting         CNVShift        .... on
   Level shift para.    LevelShift      ....    0.2500
   Turn off err/grad.   ShiftErr        ....    0.0010
 Zerner damping         CNVZerner       .... off
 Static damping         CNVDamp         .... on
   Fraction old density DampFac         ....    0.7000
   Max. Damping (<1)    DampMax         ....    0.9800
   Min. Damping (>=0)   DampMin         ....    0.0000
   Turn off err/grad.   DampErr         ....    0.1000
 Fernandez-Rico         CNVRico         .... off

SCF Procedure:
 Maximum # iterations   MaxIter         ....   125
 SCF integral mode      SCFMode         .... Direct
   Integral package                     .... LIBINT
 Reset frequency        DirectResetFreq ....    20
 Integral Threshold     Thresh          ....  2.500e-11 Eh
 Primitive CutOff       TCut            ....  2.500e-12 Eh

Convergence Tolerance:
 Convergence Check Mode ConvCheckMode   .... Total+1el-Energy
 Convergence forced     ConvForced      .... 1
 Energy Change          TolE            ....  1.000e-08 Eh
 1-El. energy change                    ....  1.000e-05 Eh
 Orbital Gradient       TolG            ....  1.000e-05
 Orbital Rotation angle TolX            ....  1.000e-05
 DIIS Error             TolErr          ....  5.000e-07


Diagonalization of the overlap matrix:
Smallest eigenvalue                        ... 4.735e-04
Time for diagonalization                   ...    0.004 sec
Threshold for overlap eigenvalues          ... 1.000e-08
Number of eigenvalues below threshold      ... 0
Time for construction of square roots      ...    0.002 sec
Total time needed                          ...    0.007 sec

-------------------
DFT GRID GENERATION
-------------------

General Integration Accuracy     IntAcc      ...  4.340
Radial Grid Type                 RadialGrid  ... Gauss-Chebyshev
Angular Grid (max. acc.)         AngularGrid ... Lebedev-194
Angular grid pruning method      GridPruning ... 3 (G Style)
Weight generation scheme         WeightScheme... Becke
Basis function cutoff            BFCut       ...    1.0000e-11
Integration weight cutoff        WCut        ...    1.0000e-14
Grids for H and He will be reduced by one unit

# of grid points (after initial pruning)     ...  41790 (   0.0 sec)
# of grid points (after weights+screening)   ...  38400 (   0.1 sec)
nearest neighbour list constructed           ...    0.0 sec
Grid point re-assignment to atoms done       ...    0.0 sec
Grid point division into batches done        ...    0.1 sec
Reduced shell lists constructed in    0.2 sec

Total number of grid points                  ...    38400
Total number of batches                      ...      608
Average number of points per batch           ...       63
Average number of grid points per atom       ...     2259
Average number of shells per batch           ...    45.78 (65.40%)
Average number of basis functions per batch  ...    94.05 (66.23%)
Average number of large shells per batch     ...    35.06 (76.58%)
Average number of large basis fcns per batch ...    72.61 (77.20%)
Maximum spatial batch extension              ...  18.96, 19.27, 22.17 au
Average spatial batch extension              ...   3.14,  2.95,  3.51 au

Time for grid setup =    0.355 sec

------------------------------
INITIAL GUESS: MODEL POTENTIAL
------------------------------
Loading Hartree-Fock densities                     ... done
Calculating cut-offs                               ... done
Setting up the integral package                    ... done
Initializing the effective Hamiltonian             ... done
Starting the Coulomb interaction                   ... done (   0.1 sec)
Reading the grid                                   ... done
Mapping shells                                     ... done
Starting the XC term evaluation                    ... done (   0.3 sec)
  promolecular density results
     # of electrons  =     63.994226736
     EX              =    -51.658725720
     EC              =     -2.139491460
     EX+EC           =    -53.798217181
Transforming the Hamiltonian                       ... done (   0.0 sec)
Diagonalizing the Hamiltonian                      ... done (   0.0 sec)
Back transforming the eigenvectors                 ... done (   0.0 sec)
Now organizing SCF variables                       ... done
                      ------------------
                      INITIAL GUESS DONE (   0.8 sec)
                      ------------------
--------------
SCF ITERATIONS
--------------
               ***  Starting incremental Fock matrix formation  ***

                         ----------------------------
                         !        ITERATION     0   !
                         ----------------------------
   Total Energy        :    -384.393170688185 Eh
   Energy Change       :    -384.393170688185 Eh
   MAX-DP              :       0.104422149817
   RMS-DP              :       0.002899519956
   Actual Damping      :       0.7000
   Actual Level Shift  :       0.2500 Eh
   Int. Num. El.       :    63.99904191 (UP=   31.99952095 DN=   31.99952095)
   Exchange            :   -42.36308694
   Correlation         :    -2.55631159


                         ----------------------------
                         !        ITERATION     1   !
                         ----------------------------
   Total Energy        :    -384.502711926361 Eh
   Energy Change       :      -0.109541238176 Eh
   MAX-DP              :       0.059313580141
   RMS-DP              :       0.001934179601
   Actual Damping      :       0.7000
   Actual Level Shift  :       0.2500 Eh
   Int. Num. El.       :    63.99883407 (UP=   31.99941703 DN=   31.99941703)
   Exchange            :   -42.06274400
   Correlation         :    -2.54468869

                               ***Turning on DIIS***

                         ----------------------------
                         !        ITERATION     2   !
                         ----------------------------
   Total Energy        :    -384.545163258158 Eh
   Energy Change       :      -0.042451331796 Eh
   MAX-DP              :       0.061833077151
   RMS-DP              :       0.002984650078
   Actual Damping      :       0.0000
   Actual Level Shift  :       0.2500 Eh
   Int. Num. El.       :    63.99868977 (UP=   31.99934488 DN=   31.99934488)
   Exchange            :   -41.86894540
   Correlation         :    -2.53657095
   DIIS-Error          :       0.039622976291


                         ----------------------------
                         !        ITERATION     3   !
                         ----------------------------
   Total Energy        :    -384.613787911342 Eh
   Energy Change       :      -0.068624653185 Eh
   MAX-DP              :       0.050186966249
   RMS-DP              :       0.001407132868
   Actual Damping      :       0.0000
   Actual Level Shift  :       0.2500 Eh
   Int. Num. El.       :    63.99847662 (UP=   31.99923831 DN=   31.99923831)
   Exchange            :   -41.58833719
   Correlation         :    -2.52369961
   DIIS-Error          :       0.048935474837
   DIIS coefficients:
      0.55914   0.44086


                         ----------------------------
                         !        ITERATION     4   !
                         ----------------------------
   Total Energy        :    -384.627525295629 Eh
   Energy Change       :      -0.013737384286 Eh
   MAX-DP              :       0.011891192198
   RMS-DP              :       0.000460674488
   Actual Damping      :       0.0000
   Actual Level Shift  :       0.2500 Eh
   Int. Num. El.       :    63.99857536 (UP=   31.99928768 DN=   31.99928768)
   Exchange            :   -41.70681874
   Correlation         :    -2.52908228
   DIIS-Error          :       0.023332193969
   DIIS coefficients:
      0.27772   0.12196   0.60032


                         ----------------------------
                         !        ITERATION     5   !
                         ----------------------------
   Total Energy        :    -384.628861146091 Eh
   Energy Change       :      -0.001335850462 Eh
   MAX-DP              :       0.003326785073
   RMS-DP              :       0.000128833888
   Actual Damping      :       0.0000
   Actual Level Shift  :       0.2500 Eh
   Int. Num. El.       :    63.99859511 (UP=   31.99929755 DN=   31.99929755)
   Exchange            :   -41.72197617
   Correlation         :    -2.53020903
   DIIS-Error          :       0.005106502730
   DIIS coefficients:
      0.06218   0.00588   0.15120   0.78074

                      *** Initiating the SOSCF procedure ***
                           *** Shutting down DIIS ***
                      *** Re-Reading the Fockian *** 
                      *** Removing any level shift *** 

                         ----------------------------
                         !        ITERATION     6   !
                         ----------------------------
   Total Energy        :    -384.628917919849 Eh
   Energy Change       :      -0.000056773758 Eh
   MAX-DP              :       0.001162346418
   RMS-DP              :       0.000052599448
   Orbital gradient    :       0.000178723415
   Orbital Rotation    :       0.000178723415
   Actual Damping      :       0.0000
   Int. Num. El.       :    63.99859985 (UP=   31.99929992 DN=   31.99929992)
   Exchange            :   -41.73020126
   Correlation         :    -2.53050469

               *** Restarting incremental Fock matrix formation ***

                         ----------------------------
                         !        ITERATION     7   !
                         ----------------------------
   Total Energy        :    -384.628919754039 Eh
   Energy Change       :      -0.000001834190 Eh
   MAX-DP              :       0.000629244182
   RMS-DP              :       0.000021060607
   Orbital gradient    :       0.000156220800
   Orbital Rotation    :       0.000648342474
   Actual Damping      :       0.0000
   Int. Num. El.       :    63.99859999 (UP=   31.99929999 DN=   31.99929999)
   Exchange            :   -41.73037700
   Correlation         :    -2.53051533


                         ----------------------------
                         !        ITERATION     8   !
                         ----------------------------
   Total Energy        :    -384.628918981424 Eh
   Energy Change       :       0.000000772616 Eh
   MAX-DP              :       0.000404845843
   RMS-DP              :       0.000012578216
   Orbital gradient    :       0.000309199323
   Orbital Rotation    :       0.000464612391
   Actual Damping      :       0.0000
   Int. Num. El.       :    63.99859994 (UP=   31.99929997 DN=   31.99929997)
   Exchange            :   -41.73024377
   Correlation         :    -2.53050712


                         ----------------------------
                         !        ITERATION     9   !
                         ----------------------------
   Total Energy        :    -384.628920231216 Eh
   Energy Change       :      -0.000001249792 Eh
   MAX-DP              :       0.000168342585
   RMS-DP              :       0.000005732808
   Orbital gradient    :       0.000040889785
   Orbital Rotation    :       0.000070811223
   Actual Damping      :       0.0000
   Int. Num. El.       :    63.99859994 (UP=   31.99929997 DN=   31.99929997)
   Exchange            :   -41.73035174
   Correlation         :    -2.53051158


                         ----------------------------
                         !        ITERATION    10   !
                         ----------------------------
   Total Energy        :    -384.628920197163 Eh
   Energy Change       :       0.000000034053 Eh
   MAX-DP              :       0.000120206507
   RMS-DP              :       0.000003559160
   Orbital gradient    :       0.000062487412
   Orbital Rotation    :       0.000054649988
   Actual Damping      :       0.0000
   Int. Num. El.       :    63.99859991 (UP=   31.99929995 DN=   31.99929995)
   Exchange            :   -41.73028665
   Correlation         :    -2.53051251


                         ----------------------------
                         !        ITERATION    11   !
                         ----------------------------
   Total Energy        :    -384.628920268311 Eh
   Energy Change       :      -0.000000071148 Eh
   MAX-DP              :       0.000054228477
   RMS-DP              :       0.000001292639
   Orbital gradient    :       0.000013807377
   Orbital Rotation    :       0.000031690735
   Actual Damping      :       0.0000
   Int. Num. El.       :    63.99859994 (UP=   31.99929997 DN=   31.99929997)
   Exchange            :   -41.73034082
   Correlation         :    -2.53051211


                         ----------------------------
                         !        ITERATION    12   !
                         ----------------------------
   Total Energy        :    -384.628920262657 Eh
   Energy Change       :       0.000000005654 Eh
   MAX-DP              :       0.000033841948
   RMS-DP              :       0.000000855455
   Orbital gradient    :       0.000020761909
   Orbital Rotation    :       0.000019045670
   Actual Damping      :       0.0000
   Int. Num. El.       :    63.99859991 (UP=   31.99929996 DN=   31.99929996)
   Exchange            :   -41.73030332
   Correlation         :    -2.53051117

                  ***Gradient check signals convergence***
              ***Rediagonalizing the Fockian in SOSCF/NRSCF***

               *****************************************************
               *                     SUCCESS                       *
               *           SCF CONVERGED AFTER  13 CYCLES          *
               *****************************************************

Setting up the final grid:

General Integration Accuracy     IntAcc      ...  5.010
Radial Grid Type                 RadialGrid  ... Gauss-Chebyshev
Angular Grid (max. acc.)         AngularGrid ... Lebedev-434
Angular grid pruning method      GridPruning ... 3 (G Style)
Weight generation scheme         WeightScheme... Becke
Basis function cutoff            BFCut       ...    1.0000e-11
Integration weight cutoff        WCut        ...    1.0000e-14
Grids for H and He will be reduced by one unit

# of grid points (after initial pruning)     ... 149962 (   0.1 sec)
# of grid points (after weights+screening)   ... 136416 (   0.3 sec)
nearest neighbour list constructed           ...    0.0 sec
Grid point re-assignment to atoms done       ...    0.0 sec
Grid point division into batches done        ...    0.7 sec
Reduced shell lists constructed in    1.4 sec

Total number of grid points                  ...   136416
Total number of batches                      ...     2140
Average number of points per batch           ...       63
Average number of grid points per atom       ...     8024
Average number of shells per batch           ...    42.46 (60.66%)
Average number of basis functions per batch  ...    86.96 (61.24%)
Average number of large shells per batch     ...    31.87 (75.07%)
Average number of large basis fcns per batch ...    65.76 (75.62%)
Maximum spatial batch extension              ...  18.73, 17.34, 22.31 au
Average spatial batch extension              ...   2.07,  1.98,  2.18 au

Final grid set up in    1.8 sec
Final integration                            ... done (   1.2 sec)
Change in XC energy                          ...    -0.000158367
Integrated number of electrons               ...    63.999986387
Previous integrated no of electrons          ...    63.998599929

----------------
TOTAL SCF ENERGY
----------------

Total Energy       :         -384.62907864 Eh          -10466.28933 eV

Components:
Nuclear Repulsion  :          389.06212770 Eh           10586.91872 eV
Electronic Energy  :         -773.69120634 Eh          -21053.20805 eV
One Electron Energy:        -1290.76984634 Eh          -35123.63317 eV
Two Electron Energy:          517.07864000 Eh           14070.42512 eV

Virial components:
Potential Energy   :         -766.96706738 Eh          -20870.23493 eV
Kinetic Energy     :          382.33798874 Eh           10403.94560 eV
Virial Ratio       :            2.00599232


DFT components:
N(Alpha)           :       31.999993193426 electrons
N(Beta)            :       31.999993193426 electrons
N(Total)           :       63.999986386853 electrons
E(X)               :      -41.730510786744 Eh       
E(C)               :       -2.530489364038 Eh       
E(XC)              :      -44.261000150783 Eh       
DFET-embed. en.    :        0.000000000000 Eh       

---------------
SCF CONVERGENCE
---------------

  Last Energy change         ...   -8.2734e-09  Tolerance :   1.0000e-08
  Last MAX-Density change    ...    2.6503e-06  Tolerance :   1.0000e-07
  Last RMS-Density change    ...    9.5772e-08  Tolerance :   5.0000e-09
  Last Orbital Gradient      ...    5.3085e-07  Tolerance :   1.0000e-05
  Last Orbital Rotation      ...    1.4180e-06  Tolerance :   1.0000e-05

             **** THE GBW FILE WAS UPDATED (/Users/lailaal-madhagi/Desktop/Testing_XAS_Analysis_code/PhenylAcetaldehyde//Results_dir_PhenylAcetaldehyde_geom_element_C_2019-11-16_18-39-39//GTE1_PhenylAcetaldehyde_geom_2019-11-16_18-39-50//TDDFT_C-edge.gbw) ****
             **** DENSITY FILE WAS UPDATED (/Users/lailaal-madhagi/Desktop/Testing_XAS_Analysis_code/PhenylAcetaldehyde//Results_dir_PhenylAcetaldehyde_geom_element_C_2019-11-16_18-39-39//GTE1_PhenylAcetaldehyde_geom_2019-11-16_18-39-50//TDDFT_C-edge.scfp.tmp) ****
             **** ENERGY FILE WAS UPDATED (/Users/lailaal-madhagi/Desktop/Testing_XAS_Analysis_code/PhenylAcetaldehyde//Results_dir_PhenylAcetaldehyde_geom_element_C_2019-11-16_18-39-39//GTE1_PhenylAcetaldehyde_geom_2019-11-16_18-39-50//TDDFT_C-edge.en.tmp) ****
----------------
ORBITAL ENERGIES
----------------

  NO   OCC          E(Eh)            E(eV) 
   0   2.0000     -19.144116      -520.9379 
   1   2.0000     -10.273899      -279.5670 
   2   2.0000     -10.200416      -277.5674 
   3   2.0000     -10.196699      -277.4663 
   4   2.0000     -10.186642      -277.1926 
   5   2.0000     -10.186295      -277.1832 
   6   2.0000     -10.186125      -277.1785 
   7   2.0000     -10.184689      -277.1395 
   8   2.0000     -10.184306      -277.1291 
   9   2.0000      -1.044250       -28.4155 
  10   2.0000      -0.858031       -23.3482 
  11   2.0000      -0.785776       -21.3821 
  12   2.0000      -0.745897       -20.2969 
  13   2.0000      -0.710800       -19.3419 
  14   2.0000      -0.617712       -16.8088 
  15   2.0000      -0.596823       -16.2404 
  16   2.0000      -0.570172       -15.5152 
  17   2.0000      -0.520856       -14.1732 
  18   2.0000      -0.468195       -12.7402 
  19   2.0000      -0.459657       -12.5079 
  20   2.0000      -0.454211       -12.3597 
  21   2.0000      -0.446223       -12.1423 
  22   2.0000      -0.422178       -11.4880 
  23   2.0000      -0.415401       -11.3036 
  24   2.0000      -0.400762       -10.9053 
  25   2.0000      -0.372595       -10.1388 
  26   2.0000      -0.349999        -9.5239 
  27   2.0000      -0.349863        -9.5203 
  28   2.0000      -0.343757        -9.3541 
  29   2.0000      -0.252244        -6.8639 
  30   2.0000      -0.251164        -6.8345 
  31   2.0000      -0.244880        -6.6635 
  32   0.0000      -0.029157        -0.7934 
  33   0.0000      -0.003940        -0.1072 
  34   0.0000       0.001545         0.0421 
  35   0.0000       0.089117         2.4250 
  36   0.0000       0.103035         2.8037 
  37   0.0000       0.126680         3.4471 
  38   0.0000       0.138690         3.7740 
  39   0.0000       0.150688         4.1004 
  40   0.0000       0.159111         4.3296 
  41   0.0000       0.181445         4.9374 
  42   0.0000       0.201971         5.4959 
  43   0.0000       0.204968         5.5774 
  44   0.0000       0.244505         6.6533 
  45   0.0000       0.248701         6.7675 
  46   0.0000       0.274707         7.4752 
  47   0.0000       0.305484         8.3126 
  48   0.0000       0.325148         8.8477 
  49   0.0000       0.355380         9.6704 
  50   0.0000       0.395376        10.7587 
  51   0.0000       0.464109        12.6290 
  52   0.0000       0.507662        13.8142 
  53   0.0000       0.526855        14.3365 
  54   0.0000       0.534991        14.5578 
  55   0.0000       0.549350        14.9486 
  56   0.0000       0.559258        15.2182 
  57   0.0000       0.578891        15.7524 
  58   0.0000       0.592795        16.1308 
  59   0.0000       0.598184        16.2774 
  60   0.0000       0.604821        16.4580 
  61   0.0000       0.611342        16.6355 
  62   0.0000       0.618613        16.8333 
  63   0.0000       0.628669        17.1070 
  64   0.0000       0.663854        18.0644 
  65   0.0000       0.673224        18.3194 
  66   0.0000       0.677526        18.4364 
  67   0.0000       0.692203        18.8358 
  68   0.0000       0.720798        19.6139 
  69   0.0000       0.740076        20.1385 
  70   0.0000       0.799009        21.7421 
  71   0.0000       0.820805        22.3352 
  72   0.0000       0.834062        22.6960 
  73   0.0000       0.841333        22.8938 
  74   0.0000       0.844696        22.9853 
  75   0.0000       0.848663        23.0933 
  76   0.0000       0.864260        23.5177 
  77   0.0000       0.891953        24.2713 
  78   0.0000       0.913797        24.8657 
  79   0.0000       0.928060        25.2538 
  80   0.0000       0.941666        25.6240 
  81   0.0000       0.960300        26.1311 
  82   0.0000       0.999192        27.1894 
  83   0.0000       1.000153        27.2156 
  84   0.0000       1.005893        27.3717 
  85   0.0000       1.042543        28.3690 
  86   0.0000       1.082512        29.4566 
  87   0.0000       1.122191        30.5364 
  88   0.0000       1.138233        30.9729 
  89   0.0000       1.159838        31.5608 
  90   0.0000       1.192449        32.4482 
  91   0.0000       1.222796        33.2740 
  92   0.0000       1.252565        34.0840 
  93   0.0000       1.295978        35.2654 
  94   0.0000       1.406573        38.2748 
  95   0.0000       1.430369        38.9223 
  96   0.0000       1.448353        39.4117 
  97   0.0000       1.480552        40.2879 
  98   0.0000       1.490138        40.5487 
  99   0.0000       1.512249        41.1504 
 100   0.0000       1.517934        41.3051 
 101   0.0000       1.551855        42.2281 
 102   0.0000       1.704590        46.3842 
 103   0.0000       1.726362        46.9767 
 104   0.0000       1.742663        47.4203 
 105   0.0000       1.795800        48.8662 
 106   0.0000       1.808080        49.2004 
 107   0.0000       1.820793        49.5463 
 108   0.0000       1.842201        50.1288 
 109   0.0000       1.857548        50.5465 
 110   0.0000       1.897998        51.6472 
 111   0.0000       1.910292        51.9817 
 112   0.0000       1.946758        52.9740 
 113   0.0000       1.979704        53.8705 
 114   0.0000       2.042162        55.5700 
 115   0.0000       2.050589        55.7994 
 116   0.0000       2.089515        56.8586 
 117   0.0000       2.130954        57.9862 
 118   0.0000       2.134303        58.0774 
 119   0.0000       2.149673        58.4956 
 120   0.0000       2.180382        59.3312 
 121   0.0000       2.189697        59.5847 
 122   0.0000       2.243565        61.0505 
 123   0.0000       2.290373        62.3242 
 124   0.0000       2.307716        62.7961 
 125   0.0000       2.318795        63.0976 
 126   0.0000       2.356024        64.1107 
 127   0.0000       2.412037        65.6349 
 128   0.0000       2.516309        68.4722 
 129   0.0000       2.583647        70.3046 
 130   0.0000       2.589882        70.4743 
 131   0.0000       2.611253        71.0558 
 132   0.0000       2.657247        72.3074 
 133   0.0000       2.695546        73.3495 
 134   0.0000       2.747035        74.7506 
 135   0.0000       2.751325        74.8674 
 136   0.0000       2.791613        75.9636 
 137   0.0000       2.831265        77.0426 
 138   0.0000       2.948321        80.2279 
 139   0.0000       2.978172        81.0402 
 140   0.0000       3.093674        84.1831 
 141   0.0000       3.410648        92.8084 
------------------
MOLECULAR ORBITALS
------------------
                      0         1         2         3         4         5   
                 -19.14412 -10.27390 -10.20042 -10.19670 -10.18664 -10.18629
                   2.00000   2.00000   2.00000   2.00000   2.00000   2.00000
                  --------  --------  --------  --------  --------  --------
  0C   1s         0.000053 -0.000062  0.012942  0.000539  0.003069  0.136923
  0C   2s         0.000335 -0.000327 -0.001311  0.000268  0.000383  0.002828
  0C   1pz        0.000000 -0.000000 -0.000010 -0.000001  0.000003 -0.000005
  0C   1px       -0.000057  0.000025 -0.001177  0.000018  0.000255  0.000242
  0C   1py       -0.000133  0.000059 -0.000554  0.000204 -0.000071  0.001305
  0C   3s        -0.004817  0.002859  0.008261 -0.000483  0.002955  0.009502
  0C   2pz       -0.000036  0.000017  0.000036  0.000001  0.000017  0.000059
  0C   2px       -0.002642  0.001982  0.003466 -0.001287  0.001135  0.002604
  0C   2py        0.000781  0.000882  0.000680 -0.002564 -0.000682 -0.004710
  0C   1dz2       0.000109 -0.000106  0.000663  0.000131  0.000101  0.000499
  0C   1dxz      -0.000002  0.000002 -0.000017 -0.000005 -0.000001  0.000004
  0C   1dyz       0.000000 -0.000000 -0.000007  0.000002  0.000001  0.000008
  0C   1dx2y2    -0.000051  0.000061 -0.000738 -0.000125  0.000053  0.001008
  0C   1dxy      -0.000057  0.000059 -0.000849  0.000117  0.000004 -0.000314
  1C   1s        -0.000012 -0.000067  0.994752  0.019645  0.013518 -0.000758
  1C   2s         0.000074 -0.000104  0.036570  0.001865  0.002271 -0.000104
  1C   1pz        0.000002 -0.000003  0.000001 -0.000002  0.000017  0.000002
  1C   1px        0.000290 -0.000322 -0.000006  0.000239  0.000937  0.000320
  1C   1py        0.000194 -0.000213 -0.000236  0.000714 -0.000928  0.000253
  1C   3s         0.003533 -0.003262 -0.031066 -0.009886 -0.009074 -0.005238
  1C   2pz       -0.000026  0.000034 -0.000022 -0.000020 -0.000046  0.000001
  1C   2px       -0.003353  0.002561 -0.001018 -0.004507 -0.001282  0.000770
  1C   2py       -0.001970 -0.000448  0.001671 -0.005398  0.005031  0.001304
  1C   1dz2      -0.000029 -0.000006 -0.000610 -0.000404 -0.000565  0.000008
  1C   1dxz       0.000001  0.000001  0.000017 -0.000003  0.000021  0.000001
  1C   1dyz       0.000002 -0.000003 -0.000006 -0.000008 -0.000016 -0.000003
  1C   1dx2y2     0.000129 -0.000037  0.000298 -0.000855  0.000255 -0.000024
  1C   1dxy       0.000111 -0.000202 -0.000157  0.000158 -0.001015 -0.000287
  2C   1s        -0.000018 -0.000005  0.000148  0.000282 -0.004796  0.967669
  2C   2s        -0.000112 -0.000015 -0.000130  0.000361  0.000400  0.035025
  2C   1pz       -0.000001  0.000001 -0.000000  0.000000  0.000003  0.000006
  2C   1px       -0.000038  0.000041 -0.000107  0.000028  0.000265  0.000613
  2C   1py        0.000105 -0.000080 -0.000138  0.000044 -0.000021  0.000259
  2C   3s         0.001509  0.000662 -0.001977 -0.002995 -0.002216 -0.029732
  2C   2pz        0.000010 -0.000006 -0.000013  0.000001 -0.000017 -0.000054
  2C   2px        0.001133 -0.000395 -0.001185 -0.000954 -0.001741 -0.005888
  2C   2py        0.000610  0.000198 -0.000197 -0.001922 -0.000552 -0.002429
  2C   1dz2      -0.000026 -0.000008 -0.000071  0.000095  0.000089 -0.000425
  2C   1dxz       0.000000  0.000000  0.000002 -0.000001 -0.000001  0.000008
  2C   1dyz      -0.000000 -0.000000 -0.000001  0.000001  0.000001 -0.000008
  2C   1dx2y2    -0.000027  0.000004  0.000023  0.000051  0.000039 -0.000186
  2C   1dxy       0.000029 -0.000029 -0.000062 -0.000013 -0.000055 -0.000196
  3C   1s         0.000002  0.000004 -0.000469  0.000045 -0.045392  0.121511
  3C   2s         0.000017  0.000030 -0.000406 -0.000024 -0.000695  0.002135
  3C   1pz        0.000001 -0.000001  0.000001 -0.000000  0.000006  0.000015
  3C   1px        0.000094 -0.000096 -0.000003  0.000009  0.000692  0.000864
  3C   1py       -0.000024  0.000019 -0.000121  0.000050  0.000370 -0.000794
  3C   3s        -0.000700 -0.000456  0.002772  0.001784  0.000314  0.010114
  3C   2pz       -0.000003  0.000007 -0.000006  0.000003 -0.000014 -0.000049
  3C   2px       -0.000240  0.000114  0.000402  0.000855 -0.000982 -0.001264
  3C   2py        0.000046 -0.000905  0.001696  0.001148  0.000404  0.005650
  3C   1dz2       0.000005  0.000002 -0.000064 -0.000002 -0.000222  0.000600
  3C   1dxz      -0.000000  0.000000  0.000001  0.000000  0.000007 -0.000023
  3C   1dyz       0.000000 -0.000000 -0.000001  0.000000  0.000005  0.000015
  3C   1dx2y2    -0.000004  0.000003  0.000007  0.000008  0.000390 -0.000432
  3C   1dxy       0.000022 -0.000018  0.000006  0.000015  0.000403  0.000964
  4C   1s         0.000038 -0.000083  0.000186  0.000252 -0.459670  0.121595
  4C   2s         0.000261 -0.000375 -0.000107  0.000318 -0.014883  0.004265
  4C   1pz       -0.000000  0.000000  0.000002 -0.000001 -0.000001  0.000003
  4C   1px       -0.000052  0.000050  0.000037 -0.000063  0.000381  0.000337
  4C   1py       -0.000042  0.000053 -0.000182  0.000025  0.000876  0.000222
  4C   3s        -0.001973  0.003983 -0.002104 -0.001930  0.002618 -0.007846
  4C   2pz        0.000009 -0.000024  0.000021  0.000025  0.000022  0.000035
  4C   2px       -0.000126 -0.000695  0.001602  0.001792  0.000415  0.001923
  4C   2py       -0.001558  0.002590 -0.000394 -0.000692 -0.002868 -0.002010
  4C   1dz2       0.000091 -0.000122 -0.000060  0.000094 -0.000289 -0.000115
  4C   1dxz      -0.000001  0.000001  0.000002 -0.000001 -0.000006 -0.000000
  4C   1dyz       0.000001 -0.000002  0.000000  0.000001 -0.000006 -0.000003
  4C   1dx2y2     0.000085 -0.000117  0.000059  0.000037 -0.000876 -0.000244
  4C   1dxy      -0.000023  0.000007  0.000031 -0.000033  0.000189 -0.000030
  5C   1s        -0.000023 -0.000069  0.015098  0.001024 -0.881248 -0.074615
  5C   2s        -0.000064 -0.000051 -0.001357  0.000136 -0.031403 -0.003473
  5C   1pz       -0.000001  0.000001  0.000017 -0.000002  0.000009  0.000002
  5C   1px       -0.000020 -0.000082  0.001043 -0.000028  0.000559  0.000269
  5C   1py        0.000246 -0.000361 -0.000844  0.000222 -0.000372  0.000234
  5C   3s         0.002537 -0.003406  0.009720  0.003115  0.023568  0.006279
  5C   2pz        0.000014  0.000000 -0.000062 -0.000020 -0.000040 -0.000021
  5C   2px        0.000518  0.001574 -0.004075 -0.001101 -0.003685 -0.002649
  5C   2py       -0.001535  0.003022  0.002348  0.001236 -0.000539 -0.001698
  5C   1dz2      -0.000035  0.000052  0.000647  0.000040  0.000264  0.000031
  5C   1dxz      -0.000002  0.000002 -0.000023 -0.000003 -0.000011  0.000001
  5C   1dyz      -0.000001  0.000002  0.000018 -0.000003  0.000006  0.000001
  5C   1dx2y2    -0.000207  0.000250 -0.000242 -0.000274 -0.000236  0.000145
  5C   1dxy       0.000057 -0.000047  0.001085 -0.000126  0.000418  0.000001
  6C   1s        -0.000049  0.001028  0.019665 -0.995221 -0.000714  0.000206
  6C   2s        -0.000014 -0.000657 -0.000204 -0.038839  0.000359 -0.000253
  6C   1pz        0.000000 -0.000008 -0.000007 -0.000002  0.000001  0.000000
  6C   1px        0.000053 -0.000820 -0.000133 -0.000145  0.000073  0.000037
  6C   1py        0.000144 -0.000284  0.000817  0.000072 -0.000043  0.000025
  6C   3s         0.002240  0.004960  0.005010  0.039262 -0.002082  0.000730
  6C   2pz        0.000001  0.000035  0.000036  0.000035 -0.000003 -0.000002
  6C   2px        0.001710  0.002533  0.001595  0.002184 -0.000055 -0.000655
  6C   2py        0.001874 -0.000961 -0.002785 -0.001539  0.000399 -0.000859
  6C   1dz2      -0.000043  0.000608  0.000603 -0.000065  0.000084 -0.000023
  6C   1dxz      -0.000004 -0.000015 -0.000000  0.000003 -0.000001 -0.000000
  6C   1dyz       0.000003 -0.000007  0.000010 -0.000003  0.000000 -0.000000
  6C   1dx2y2    -0.000144 -0.000620  0.000948  0.000001 -0.000006 -0.000062
  6C   1dxy       0.000349 -0.000787 -0.000150 -0.000199 -0.000069  0.000016
  7C   1s        -0.000214  0.995153  0.000074  0.000982 -0.000084 -0.000001
  7C   2s        -0.000146  0.035996 -0.000202  0.001147  0.000297 -0.000026
  7C   1pz       -0.000002 -0.000017  0.000001 -0.000003  0.000000  0.000000
  7C   1px       -0.000088  0.000058  0.000088 -0.000372  0.000014  0.000013
  7C   1py        0.000204  0.002174  0.000051 -0.000156 -0.000065 -0.000012
  7C   3s        -0.012091 -0.014704 -0.001761 -0.008796 -0.000165  0.000430
  7C   2pz        0.000083 -0.000035  0.000013  0.000035 -0.000013 -0.000006
  7C   2px        0.001589  0.000926  0.000860  0.004219 -0.000736 -0.000374
  7C   2py       -0.008542  0.007472 -0.000338  0.002588  0.000776  0.000202
  7C   1dz2      -0.000150 -0.001223  0.000026 -0.000420 -0.000002 -0.000014
  7C   1dxz      -0.000008  0.000004  0.000001  0.000011 -0.000001  0.000000
  7C   1dyz      -0.000005 -0.000021 -0.000001  0.000008 -0.000000 -0.000000
  7C   1dx2y2    -0.000738 -0.001499  0.000070  0.000606 -0.000052  0.000005
  7C   1dxy       0.000182  0.000476 -0.000172  0.000738  0.000038 -0.000001
  8H   1s        -0.000095 -0.000318 -0.000422  0.000171  0.000041 -0.000066
  8H   2s         0.000314  0.000932  0.001188 -0.005823  0.000056 -0.000068
  9H   1s        -0.000095 -0.000318 -0.000422  0.000171  0.000041 -0.000066
  9H   2s         0.000306  0.000932  0.001188 -0.005823  0.000056 -0.000068
 10O   1s        -0.995142 -0.000026 -0.000017  0.000009  0.000009  0.000001
 10O   2s        -0.029832  0.000756 -0.000255  0.000318  0.000141  0.000009
 10O   1pz       -0.000014 -0.000006  0.000000  0.000000 -0.000000  0.000000
 10O   1px        0.000299  0.000180  0.000047 -0.000047 -0.000022  0.000006
 10O   1py        0.002249  0.001098 -0.000008 -0.000118  0.000010  0.000004
 10O   3s         0.021591 -0.007451  0.001149 -0.000382 -0.000678 -0.000167
 10O   2pz        0.000035 -0.000038 -0.000000 -0.000008  0.000001 -0.000000
 10O   2px       -0.001226  0.000344 -0.000346 -0.000516  0.000222  0.000024
 10O   2py       -0.006498  0.005092 -0.000477  0.000166  0.000202  0.000032
 10O   1dz2      -0.000111  0.001139 -0.000049  0.000218  0.000021 -0.000011
 10O   1dxz      -0.000002 -0.000001 -0.000000 -0.000006  0.000000  0.000000
 10O   1dyz      -0.000001  0.000025 -0.000001  0.000005  0.000000 -0.000000
 10O   1dx2y2    -0.000267  0.001679 -0.000064 -0.000039  0.000022  0.000003
 10O   1dxy       0.000177 -0.000330  0.000041  0.000156 -0.000043 -0.000003
 11H   1s         0.000028 -0.000862 -0.000084  0.000467  0.000078  0.000020
 11H   2s        -0.000776  0.005303 -0.000287 -0.000204  0.001042  0.000193
 12H   1s        -0.000054 -0.000029 -0.000264  0.000161  0.000013 -0.000303
 12H   2s        -0.000665  0.000253  0.000111  0.000270  0.000050  0.001462
 13H   1s         0.000065 -0.000066 -0.000043  0.000005 -0.000048 -0.001358
 13H   2s         0.000328 -0.000113 -0.000095 -0.000516 -0.000690  0.002752
 14H   1s         0.000037 -0.000077  0.000038  0.000063  0.000183 -0.000310
 14H   2s         0.000043 -0.000247  0.000515  0.000252 -0.000262  0.001645
 15H   1s         0.000140 -0.000252 -0.000306  0.000007  0.001286  0.000159
 15H   2s        -0.000886 -0.001001  0.000393  0.000198 -0.003414  0.000514
 16H   1s         0.000014 -0.000001 -0.000072 -0.000076  0.000746 -0.000205
 16H   2s        -0.000208  0.000623 -0.000215 -0.000636 -0.002302  0.000165
                      6         7         8         9        10        11   
                 -10.18612 -10.18469 -10.18431  -1.04425  -0.85803  -0.78578
                   2.00000   2.00000   2.00000   2.00000   2.00000   2.00000
                  --------  --------  --------  --------  --------  --------
  0C   1s        -0.027994  0.983288 -0.061243 -0.000411 -0.093861  0.010202
  0C   2s        -0.001138  0.036428 -0.002596  0.002259  0.176628 -0.020411
  0C   1pz       -0.000000  0.000012  0.000000  0.000005  0.000749  0.000027
  0C   1px       -0.000065  0.000642  0.000037  0.000413  0.051509 -0.036125
  0C   1py       -0.000103 -0.000701 -0.000011 -0.000067 -0.024051 -0.073482
  0C   3s         0.004484 -0.034650  0.010292 -0.018584  0.117969 -0.019230
  0C   2pz        0.000041 -0.000107  0.000064 -0.000108  0.000125 -0.000013
  0C   2px        0.002498 -0.006606  0.003646 -0.009337  0.008788 -0.006279
  0C   2py       -0.001875  0.004898 -0.003421 -0.000187 -0.003105 -0.010025
  0C   1dz2      -0.000128 -0.000673  0.000145  0.000222 -0.009236  0.000846
  0C   1dxz       0.000001  0.000006 -0.000001 -0.000003  0.000188 -0.000057
  0C   1dyz      -0.000002 -0.000003  0.000001  0.000000 -0.000087 -0.000061
  0C   1dx2y2    -0.000133 -0.000338  0.000091  0.000033  0.000429 -0.005141
  0C   1dxy       0.000056  0.000525 -0.000113 -0.000200  0.000756 -0.003268
  1C   1s         0.007254 -0.012913  0.000558 -0.002949 -0.108501  0.088871
  1C   2s         0.001250 -0.002467  0.000643  0.006144  0.207661 -0.173990
  1C   1pz        0.000006  0.000010  0.000000  0.000004  0.000166  0.000370
  1C   1px        0.000382  0.001176 -0.000080  0.002539 -0.007034 -0.005863
  1C   1py       -0.000274  0.000588 -0.000222  0.004130 -0.040632 -0.071721
  1C   3s        -0.010064  0.013946 -0.006803  0.015595  0.116402 -0.108097
  1C   2pz       -0.000048  0.000002 -0.000026 -0.000229  0.000061  0.000152
  1C   2px       -0.001399 -0.003580  0.000787 -0.018852  0.000786  0.000119
  1C   2py        0.005205 -0.007138  0.005763  0.002015 -0.008915 -0.024622
  1C   1dz2      -0.000351  0.000626  0.000030 -0.000516 -0.009517  0.006552
  1C   1dxz       0.000012 -0.000018 -0.000001  0.000003  0.000191 -0.000082
  1C   1dyz      -0.000007 -0.000007  0.000001 -0.000001 -0.000106  0.000087
  1C   1dx2y2     0.000251 -0.000836  0.000025 -0.000398 -0.000294  0.004023
  1C   1dxy      -0.000404 -0.000728  0.000047  0.000515 -0.000253 -0.000619
  2C   1s        -0.151433 -0.131977  0.116475 -0.000206 -0.083501 -0.069781
  2C   2s        -0.005446 -0.006830  0.006520 -0.000151  0.158316  0.134004
  2C   1pz       -0.000005  0.000006  0.000017 -0.000004  0.000432  0.000700
  2C   1px       -0.000362 -0.000260  0.001125 -0.000089  0.049809  0.043369
  2C   1py        0.000139 -0.001416 -0.000645  0.000445  0.024798 -0.031450
  2C   3s        -0.001300  0.016762 -0.019124  0.003587  0.096529  0.096810
  2C   2pz       -0.000019  0.000034 -0.000088  0.000034  0.000029  0.000082
  2C   2px       -0.002198  0.005315 -0.007962  0.003880  0.003547  0.004700
  2C   2py       -0.001166  0.004625 -0.000888  0.001894  0.001661 -0.004362
  2C   1dz2       0.000131  0.000652 -0.000722 -0.000121 -0.008099 -0.005857
  2C   1dxz      -0.000004  0.000002  0.000022  0.000000  0.000160  0.000176
  2C   1dyz       0.000004  0.000011 -0.000021 -0.000001 -0.000084 -0.000080
  2C   1dx2y2    -0.000034  0.001199  0.000061 -0.000119 -0.000199  0.003213
  2C   1dxy       0.000201 -0.000244 -0.001142  0.000121  0.000280 -0.003221
  3C   1s         0.091066 -0.075157 -0.979565 -0.000092 -0.080742 -0.098678
  3C   2s         0.001764 -0.002480 -0.036464  0.000157  0.152395  0.190058
  3C   1pz       -0.000012  0.000000  0.000004  0.000004 -0.000247 -0.000167
  3C   1px       -0.001131 -0.000057 -0.000150  0.000369  0.007357  0.005669
  3C   1py       -0.000198 -0.000175 -0.001021  0.000008  0.054327  0.038061
  3C   3s         0.009406 -0.005055  0.036338 -0.000702  0.098444  0.131514
  3C   2pz        0.000007  0.000021 -0.000042 -0.000013 -0.000026 -0.000009
  3C   2px        0.003110  0.000055  0.001202 -0.000448  0.001509 -0.000976
  3C   2py        0.004823 -0.003287  0.009105  0.001137  0.007480 -0.000296
  3C   1dz2       0.000411 -0.000072  0.000750 -0.000013 -0.007908 -0.008238
  3C   1dxz      -0.000011  0.000002 -0.000023 -0.000000  0.000157  0.000171
  3C   1dyz      -0.000009 -0.000002  0.000006  0.000001 -0.000085 -0.000086
  3C   1dx2y2    -0.000678  0.000034 -0.000567 -0.000002 -0.000246  0.000358
  3C   1dxy      -0.000789 -0.000091  0.000140  0.000093  0.000049 -0.000072
  4C   1s         0.866342  0.016263  0.115858 -0.000021 -0.083564 -0.070356
  4C   2s         0.032593  0.000208  0.006451  0.001316  0.158095  0.135371
  4C   1pz       -0.000012  0.000000 -0.000013 -0.000003 -0.000706 -0.000471
  4C   1px       -0.000467 -0.000023 -0.001292 -0.000249 -0.041290 -0.050348
  4C   1py        0.001099 -0.000112 -0.000404  0.000046  0.036663 -0.019156
  4C   3s        -0.033076  0.004232 -0.018818 -0.009713  0.099333  0.094220
  4C   2pz        0.000106 -0.000042  0.000104  0.000065 -0.000074 -0.000048
  4C   2px        0.005811 -0.002541  0.007406  0.001644 -0.003334 -0.007127
  4C   2py       -0.006146  0.002058 -0.002843 -0.007147  0.005321 -0.005911
  4C   1dz2      -0.000743 -0.000150 -0.000684  0.000229 -0.008184 -0.005847
  4C   1dxz       0.000005  0.000003  0.000016 -0.000001  0.000162  0.000163
  4C   1dyz      -0.000006 -0.000000  0.000008  0.000004 -0.000091 -0.000022
  4C   1dx2y2    -0.000631  0.000062  0.000695  0.000273 -0.000398  0.004427
  4C   1dxy       0.000509  0.000089  0.000933 -0.000048 -0.000088  0.001135
  5C   1s        -0.455854 -0.000689 -0.010794 -0.001158 -0.093481  0.009278
  5C   2s        -0.018575  0.000005 -0.000771  0.001533  0.176314 -0.018335
  5C   1pz       -0.000002  0.000002 -0.000001 -0.000018 -0.000595  0.000655
  5C   1px        0.000511  0.000181 -0.000096 -0.000399 -0.056070  0.014866
  5C   1py        0.001299 -0.000044 -0.000006  0.002260 -0.010139 -0.078628
  5C   3s         0.026674 -0.005787  0.009147  0.018228  0.112911 -0.019459
  5C   2pz       -0.000049  0.000033 -0.000036 -0.000025 -0.000088  0.000166
  5C   2px       -0.006580  0.003403 -0.004294 -0.004555 -0.006930  0.004956
  5C   2py       -0.004634  0.001127 -0.002271 -0.005202  0.001592 -0.017821
  5C   1dz2       0.000816 -0.000035  0.000107 -0.000344 -0.009148  0.000758
  5C   1dxz      -0.000003 -0.000000 -0.000001 -0.000001  0.000193 -0.000081
  5C   1dyz       0.000015 -0.000000  0.000002 -0.000008 -0.000105  0.000055
  5C   1dx2y2     0.001132 -0.000048  0.000114 -0.000675  0.000263 -0.002783
  5C   1dxy      -0.000017  0.000045  0.000038 -0.000025 -0.000872  0.005500
  6C   1s        -0.000202  0.000207 -0.000015 -0.019174 -0.051129  0.131155
  6C   2s        -0.000001 -0.000162  0.000136  0.035456  0.095152 -0.251627
  6C   1pz        0.000001 -0.000000 -0.000000  0.000113  0.000192 -0.000284
  6C   1px        0.000024  0.000031  0.000016  0.019273 -0.001327 -0.009754
  6C   1py       -0.000033  0.000092  0.000063  0.017144 -0.033405  0.025818
  6C   3s        -0.000986  0.001539 -0.002568  0.022487  0.081163 -0.207595
  6C   2pz        0.000001  0.000007 -0.000008 -0.000017  0.000008  0.000054
  6C   2px        0.000240 -0.000074 -0.000229  0.009671 -0.005855  0.006867
  6C   2py        0.000284 -0.001234  0.000914  0.017074 -0.011860  0.003731
  6C   1dz2       0.000014 -0.000064  0.000030 -0.002332 -0.001822  0.000603
  6C   1dxz      -0.000001  0.000002 -0.000001  0.000037 -0.000005  0.000005
  6C   1dyz      -0.000001 -0.000001  0.000000  0.000034 -0.000038  0.000017
  6C   1dx2y2    -0.000049  0.000032  0.000007  0.001534 -0.003462  0.001640
  6C   1dxy      -0.000051 -0.000025 -0.000004  0.004338  0.000177  0.000173
  7C   1s        -0.000021 -0.000001 -0.000004 -0.117547 -0.011081  0.043084
  7C   2s         0.000039 -0.000117 -0.000018  0.224458  0.021688 -0.085498
  7C   1pz        0.000000  0.000000 -0.000000 -0.001196 -0.000031  0.000215
  7C   1px        0.000010  0.000029 -0.000021  0.017371 -0.019499  0.068191
  7C   1py       -0.000016 -0.000009  0.000005  0.183843 -0.029720  0.087856
  7C   3s        -0.000356  0.000218  0.000313  0.071012  0.017364 -0.068608
  7C   2pz       -0.000002 -0.000003 -0.000001  0.000313 -0.000058  0.000034
  7C   2px       -0.000230 -0.000369 -0.000230  0.010878 -0.006747  0.013989
  7C   2py       -0.000040 -0.000151 -0.000210 -0.026376 -0.003118  0.019852
  7C   1dz2       0.000000 -0.000022 -0.000005 -0.015308 -0.001039  0.003193
  7C   1dxz      -0.000000  0.000001  0.000000 -0.000005  0.000046 -0.000152
  7C   1dyz       0.000000 -0.000000  0.000000 -0.000324  0.000024 -0.000065
  7C   1dx2y2    -0.000005  0.000001  0.000014 -0.023716  0.002687 -0.008722
  7C   1dxy       0.000010 -0.000007  0.000009  0.004399  0.001220 -0.002735
  8H   1s        -0.000006 -0.000071  0.000038  0.007935  0.024760 -0.075238
  8H   2s         0.000024  0.000185 -0.000002  0.000400  0.000479 -0.010104
  9H   1s        -0.000006 -0.000071  0.000038  0.007942  0.024758 -0.075229
  9H   2s         0.000024  0.000185 -0.000002  0.000381  0.000484 -0.010103
 10O   1s        -0.000001 -0.000003 -0.000000 -0.194057  0.011658 -0.033838
 10O   2s        -0.000022 -0.000054  0.000004  0.426489 -0.026271  0.077411
 10O   1pz       -0.000000 -0.000000 -0.000000  0.000982 -0.000070  0.000205
 10O   1px       -0.000006  0.000005 -0.000013 -0.020576 -0.002555  0.013303
 10O   1py        0.000001  0.000005 -0.000001 -0.162378  0.004590 -0.004026
 10O   3s         0.000136  0.000183  0.000039  0.382683 -0.026166  0.077791
 10O   2pz        0.000001  0.000001  0.000001  0.000281 -0.000010  0.000034
 10O   2px        0.000050  0.000016  0.000082 -0.008934 -0.000190  0.004052
 10O   2py       -0.000050 -0.000068 -0.000000 -0.050767  0.000633  0.002510
 10O   1dz2       0.000004 -0.000013  0.000004 -0.003305 -0.000125  0.000788
 10O   1dxz      -0.000000  0.000000 -0.000000 -0.000086  0.000003 -0.000005
 10O   1dyz      -0.000000 -0.000000 -0.000000 -0.000092  0.000003 -0.000009
 10O   1dx2y2    -0.000005 -0.000003 -0.000003 -0.011170  0.000163  0.000086
 10O   1dxy      -0.000010 -0.000005 -0.000013  0.003177  0.000222 -0.001383
 11H   1s         0.000008 -0.000033 -0.000024  0.028175  0.008385 -0.027383
 11H   2s         0.000441  0.000232  0.000067 -0.011342  0.005047 -0.005963
 12H   1s         0.000177 -0.001273  0.000167  0.000189  0.036711 -0.012536
 12H   2s         0.000731  0.002379  0.000680 -0.001162  0.005279 -0.004557
 13H   1s         0.000104  0.000073 -0.000025  0.000239  0.030703  0.033980
 13H   2s        -0.001094  0.000833 -0.001066  0.001331  0.002778  0.006417
 14H   1s        -0.000178  0.000056  0.001312  0.000137  0.029387  0.048668
 14H   2s         0.001393 -0.000824 -0.002239  0.000426  0.003644  0.007914
 15H   1s         0.000491 -0.000079  0.000114  0.001459  0.036925 -0.011778
 15H   2s        -0.000682 -0.000858  0.000788  0.000152  0.004581 -0.004980
 16H   1s        -0.001110  0.000104 -0.000037  0.000002  0.030823  0.034395
 16H   2s         0.001923  0.000982 -0.001053 -0.001639  0.003517  0.006489
                     12        13        14        15        16        17   
                  -0.74590  -0.71080  -0.61771  -0.59682  -0.57017  -0.52086
                   2.00000   2.00000   2.00000   2.00000   2.00000   2.00000
                  --------  --------  --------  --------  --------  --------
  0C   1s         0.113206 -0.071227  0.038444  0.081248  0.034554 -0.011268
  0C   2s        -0.220568  0.138530 -0.076944 -0.165835 -0.069463  0.023904
  0C   1pz       -0.000080  0.000399  0.000157  0.001243 -0.000435 -0.002374
  0C   1px        0.020867  0.048556 -0.060419  0.125093 -0.076029 -0.132328
  0C   1py        0.053207  0.027308 -0.140900  0.036109 -0.074338  0.134286
  0C   3s        -0.166421  0.114097 -0.065510 -0.124282 -0.068560  0.044512
  0C   2pz        0.000150 -0.000025  0.000257  0.000779 -0.000043 -0.000835
  0C   2px        0.011094  0.002488 -0.010281  0.057009 -0.013736 -0.046565
  0C   2py       -0.003883  0.009134 -0.062247 -0.019161 -0.019232  0.048275
  0C   1dz2       0.008473 -0.004924  0.002039  0.003648  0.001387 -0.001572
  0C   1dxz      -0.000114  0.000173 -0.000107 -0.000063 -0.000111  0.000032
  0C   1dyz       0.000126 -0.000016 -0.000013  0.000122 -0.000000 -0.000000
  0C   1dx2y2     0.005137  0.006207 -0.005651  0.003630 -0.006096  0.000642
  0C   1dxy       0.000412 -0.000109 -0.000034  0.005165  0.001914  0.001119
  1C   1s         0.000536 -0.070207  0.033648 -0.086254  0.036222 -0.012261
  1C   2s        -0.001288  0.138233 -0.069012  0.176961 -0.076535  0.026939
  1C   1pz        0.001480  0.000543  0.002302  0.001201  0.000472 -0.000901
  1C   1px        0.117396 -0.016787  0.166313  0.101424  0.068639  0.007066
  1C   1py       -0.017592 -0.121243 -0.058016 -0.003232  0.053557  0.159249
  1C   3s         0.001716  0.117663 -0.046726  0.135647 -0.044445  0.031741
  1C   2pz        0.000183  0.000180  0.000253  0.000050  0.000261 -0.000162
  1C   2px        0.015803  0.004551  0.014863  0.024266  0.020554  0.013623
  1C   2py        0.000228 -0.020780 -0.012210  0.038642 -0.004215  0.052361
  1C   1dz2       0.000074 -0.003618  0.001018 -0.002037  0.000375 -0.000113
  1C   1dxz       0.000026  0.000191  0.000010  0.000050 -0.000035  0.000089
  1C   1dyz      -0.000124 -0.000016 -0.000016 -0.000091 -0.000106  0.000013
  1C   1dx2y2    -0.002531  0.008684  0.001090 -0.001811 -0.005652  0.006328
  1C   1dxy      -0.009402 -0.002611 -0.002971 -0.004929 -0.006370 -0.002046
  2C   1s         0.110796  0.034167 -0.086826  0.001731 -0.059855 -0.000143
  2C   2s        -0.216500 -0.067257  0.175974 -0.003092  0.122537  0.002030
  2C   1pz        0.000424 -0.001020 -0.000382  0.002040 -0.000695 -0.001373
  2C   1px        0.004576 -0.035345 -0.043158  0.082147 -0.073510 -0.160315
  2C   1py       -0.060876  0.099216 -0.019742 -0.176689 -0.026768 -0.082058
  2C   3s        -0.163278 -0.060040  0.126125 -0.011573  0.103552  0.014604
  2C   2pz        0.000200 -0.000171 -0.000261  0.000575 -0.000451 -0.000460
  2C   2px        0.012662 -0.004684 -0.035383  0.022005 -0.043604 -0.053607
  2C   2py       -0.008028  0.018809 -0.024838 -0.051587 -0.009670 -0.028097
  2C   1dz2       0.008284  0.002451 -0.004157  0.000175 -0.002636 -0.001040
  2C   1dxz      -0.000101 -0.000152  0.000101  0.000095  0.000074  0.000013
  2C   1dyz       0.000076  0.000068  0.000007 -0.000027  0.000023 -0.000048
  2C   1dx2y2     0.004012 -0.005388  0.002910  0.005599  0.003242 -0.001802
  2C   1dxy      -0.003143  0.006381  0.002837 -0.005364  0.002686 -0.002213
  3C   1s        -0.000004  0.104399  0.033650 -0.078756  0.036809 -0.018246
  3C   2s        -0.000018 -0.206424 -0.068183  0.160405 -0.075269  0.038695
  3C   1pz        0.001372  0.000009 -0.001942 -0.001050 -0.001248  0.000871
  3C   1px        0.109630  0.001632 -0.145966 -0.108544 -0.089922 -0.032205
  3C   1py       -0.014767  0.001689  0.038530 -0.035796  0.032288 -0.204231
  3C   3s         0.000059 -0.156980 -0.050521  0.118190 -0.054493  0.047827
  3C   2pz        0.000248 -0.000110 -0.000460 -0.000157 -0.000463  0.000320
  3C   2px        0.019756  0.001270 -0.028812 -0.033098 -0.026524 -0.010672
  3C   2py       -0.002914  0.020398  0.020108 -0.038204  0.025069 -0.072457
  3C   1dz2       0.000034  0.006994  0.001580 -0.003454  0.001360 -0.001774
  3C   1dxz      -0.000029 -0.000145  0.000008  0.000016  0.000030  0.000041
  3C   1dyz       0.000129  0.000075 -0.000072 -0.000106 -0.000014 -0.000020
  3C   1dx2y2     0.002643 -0.000221 -0.000432 -0.006060  0.002890  0.000295
  3C   1dxy       0.009657  0.000162 -0.007356 -0.002720 -0.003940 -0.000278
  4C   1s        -0.110592  0.031114  0.059573  0.087345  0.000824  0.001454
  4C   2s         0.216073 -0.061188 -0.121612 -0.177697 -0.001125 -0.001588
  4C   1pz       -0.000095  0.000180 -0.000128 -0.001169  0.000438  0.002341
  4C   1px        0.021540  0.061540  0.047491 -0.112193  0.088149  0.139164
  4C   1py        0.056995  0.088075  0.111510 -0.023710  0.096806 -0.116626
  4C   3s         0.162255 -0.057603 -0.081616 -0.142015 -0.002004  0.012739
  4C   2pz        0.000136 -0.000019 -0.000280 -0.000716  0.000100  0.000750
  4C   2px        0.014374  0.005583  0.002674 -0.056980  0.020936  0.044919
  4C   2py        0.004704  0.013933  0.051119  0.009086  0.023767 -0.037711
  4C   1dz2      -0.008341  0.002165  0.002658  0.004061 -0.000011 -0.001079
  4C   1dxz       0.000113 -0.000120 -0.000131 -0.000094 -0.000046 -0.000002
  4C   1dyz      -0.000126 -0.000059  0.000010  0.000117 -0.000035  0.000021
  4C   1dx2y2    -0.005073 -0.007989 -0.005830  0.001800 -0.004368 -0.000490
  4C   1dxy      -0.000544 -0.002821  0.001460  0.005391 -0.000727  0.003079
  5C   1s        -0.113830 -0.072940 -0.079258 -0.009053 -0.049254 -0.011085
  5C   2s         0.221782  0.142482  0.159082  0.016742  0.102323  0.023643
  5C   1pz        0.000427 -0.000689  0.000131 -0.002205  0.001155  0.001579
  5C   1px        0.007076 -0.040943  0.045370 -0.094432  0.074814  0.180054
  5C   1py       -0.056667  0.034309  0.064957  0.179978 -0.046293  0.085103
  5C   3s         0.168871  0.110960  0.128581  0.030543  0.081569  0.030864
  5C   2pz        0.000139  0.000076  0.000031 -0.000579  0.000640  0.000602
  5C   2px        0.011359  0.006343  0.028671 -0.025072  0.047327  0.066876
  5C   2py       -0.000462 -0.000658  0.050050  0.046159 -0.014156  0.029607
  5C   1dz2      -0.008606 -0.004882 -0.003998 -0.000388 -0.002097 -0.001453
  5C   1dxz       0.000111  0.000182  0.000121  0.000122  0.000013  0.000045
  5C   1dyz      -0.000080 -0.000052  0.000007 -0.000034  0.000002 -0.000017
  5C   1dx2y2    -0.003813  0.005584  0.004508  0.006574 -0.001048  0.001011
  5C   1dxy       0.002991 -0.002935  0.001901 -0.006006  0.002654 -0.000640
  6C   1s         0.001905  0.109125  0.025507  0.008967 -0.061085  0.009213
  6C   2s        -0.003100 -0.212603 -0.049075 -0.018322  0.121004 -0.016966
  6C   1pz        0.000231 -0.000002  0.001237  0.000264 -0.001704  0.000366
  6C   1px        0.020323 -0.035390  0.123865 -0.031600 -0.113086 -0.042747
  6C   1py        0.001261 -0.070397  0.037332 -0.106829  0.059635 -0.147136
  6C   3s        -0.007373 -0.205115 -0.061381 -0.034219  0.153826 -0.044085
  6C   2pz        0.000060  0.000031  0.000452  0.000122 -0.000526  0.000015
  6C   2px        0.006825 -0.007107  0.049053 -0.001108 -0.032693 -0.029286
  6C   2py        0.002828 -0.019051  0.017588 -0.022678  0.025830 -0.060683
  6C   1dz2      -0.000377 -0.003137 -0.003437 -0.002077  0.008319 -0.002355
  6C   1dxz       0.000019 -0.000012  0.000143 -0.000035 -0.000172  0.000008
  6C   1dyz      -0.000020 -0.000070 -0.000001 -0.000109 -0.000009 -0.000075
  6C   1dx2y2     0.000202 -0.006162  0.005973 -0.008093 -0.003501 -0.004212
  6C   1dxy      -0.001455  0.000304 -0.000196 -0.003073 -0.006393 -0.001802
  7C   1s        -0.006450  0.061572 -0.076231  0.051291  0.099545  0.018033
  7C   2s         0.012616 -0.125553  0.158174 -0.108201 -0.210269 -0.042956
  7C   1pz        0.000082  0.000333  0.001110 -0.000145 -0.002713  0.001584
  7C   1px        0.000168  0.084877  0.037803  0.017014 -0.168645  0.126285
  7C   1py       -0.012711  0.099232 -0.107390  0.052582  0.126077 -0.025017
  7C   3s         0.006833 -0.100283  0.130139 -0.103823 -0.208646 -0.018224
  7C   2pz        0.000036 -0.000051  0.000533 -0.000098 -0.000937  0.000324
  7C   2px       -0.001136  0.010368  0.013819  0.003245 -0.044608  0.022170
  7C   2py       -0.007049  0.025995 -0.055134  0.019924  0.064445 -0.013625
  7C   1dz2      -0.000283  0.003280 -0.002734  0.001755  0.004202 -0.000634
  7C   1dxz       0.000010 -0.000189  0.000141 -0.000126 -0.000164 -0.000032
  7C   1dyz      -0.000002 -0.000056 -0.000047  0.000014  0.000107 -0.000020
  7C   1dx2y2     0.000269 -0.010781  0.005075 -0.006119 -0.003757 -0.003013
  7C   1dxy      -0.000261 -0.000811 -0.005516  0.003461  0.008663  0.000374
  8H   1s        -0.005041 -0.076830 -0.040846 -0.019027  0.088164 -0.024765
  8H   2s        -0.001762 -0.018075 -0.016935 -0.008510  0.042476 -0.011907
  9H   1s        -0.005040 -0.076818 -0.040847 -0.019013  0.088165 -0.024740
  9H   2s        -0.001765 -0.018061 -0.016963 -0.008493  0.042507 -0.011876
 10O   1s         0.003246 -0.041337  0.038297 -0.031600 -0.048874 -0.018020
 10O   2s        -0.008122  0.095445 -0.091682  0.073150  0.114322  0.040860
 10O   1pz        0.000006  0.000211  0.000481 -0.000167 -0.001536  0.000569
 10O   1px        0.000442  0.023362  0.013678  0.012188 -0.072100  0.077181
 10O   1py       -0.000588  0.011694 -0.048687  0.043746  0.101841  0.039080
 10O   3s        -0.003837  0.104021 -0.092256  0.095640  0.142617  0.066222
 10O   2pz        0.000018  0.000059  0.000283 -0.000083 -0.000795  0.000342
 10O   2px        0.000299  0.010562  0.004586  0.006603 -0.034514  0.042599
 10O   2py       -0.002031  0.009857 -0.032391  0.022454  0.055676  0.018546
 10O   1dz2      -0.000122  0.001688 -0.002546  0.002252  0.003712  0.001824
 10O   1dxz       0.000001 -0.000005  0.000014 -0.000009 -0.000037  0.000020
 10O   1dyz      -0.000004 -0.000004 -0.000072  0.000032  0.000170 -0.000047
 10O   1dx2y2    -0.000209  0.000954 -0.004006  0.002423  0.007369  0.000551
 10O   1dxy      -0.000087 -0.002513 -0.001244 -0.001076  0.006418 -0.006672
 11H   1s         0.009321 -0.038709  0.107279 -0.050519 -0.180948  0.046317
 11H   2s         0.006426 -0.002912  0.049412 -0.017163 -0.088908  0.045313
 12H   1s        -0.068818  0.039954 -0.047398 -0.101759 -0.020794  0.105173
 12H   2s        -0.012630  0.006316 -0.013971 -0.036724 -0.002876  0.061990
 13H   1s        -0.066225 -0.025129  0.089408 -0.005890  0.087916  0.090429
 13H   2s        -0.012300 -0.006312  0.028986 -0.003082  0.037295  0.056732
 14H   1s         0.000015 -0.072523 -0.034854  0.087121 -0.041250  0.121326
 14H   2s        -0.000098 -0.014437 -0.011202  0.030655 -0.015388  0.073346
 15H   1s         0.071338  0.039448  0.097984 -0.006551  0.058152  0.115707
 15H   2s         0.013809  0.002191  0.040165 -0.010639  0.012032  0.069803
 16H   1s         0.066462 -0.022869 -0.060277 -0.105137  0.004891  0.089991
 16H   2s         0.012787 -0.004870 -0.019189 -0.038371  0.003384  0.057451
                     18        19        20        21        22        23   
                  -0.46819  -0.45966  -0.45421  -0.44622  -0.42218  -0.41540
                   2.00000   2.00000   2.00000   2.00000   2.00000   2.00000
                  --------  --------  --------  --------  --------  --------
  0C   1s        -0.051633 -0.011066 -0.000042  0.017865 -0.024452 -0.003307
  0C   2s         0.104637  0.019244  0.000087 -0.035272  0.050894  0.001562
  0C   1pz       -0.001542 -0.000239 -0.055697  0.001102  0.003365 -0.001200
  0C   1px       -0.105993  0.064207  0.000484  0.144263  0.236701  0.001649
  0C   1py        0.053169  0.162196 -0.000387  0.087471 -0.096959  0.201226
  0C   3s         0.140063  0.056768  0.000102 -0.039227  0.119972  0.050180
  0C   2pz       -0.000326  0.000036 -0.032645  0.000250  0.001250 -0.000132
  0C   2px       -0.032837  0.044992  0.000352  0.028011  0.094535  0.013964
  0C   2py       -0.006739  0.080514 -0.000206  0.007919 -0.024488  0.050433
  0C   1dz2      -0.002219 -0.001197 -0.000056  0.000952  0.001443 -0.001939
  0C   1dxz       0.000186  0.000059 -0.003586  0.000000 -0.000113  0.000158
  0C   1dyz      -0.000131 -0.000063 -0.001696  0.000155  0.000064 -0.000002
  0C   1dx2y2     0.005580  0.000522  0.000049  0.006675 -0.003883  0.008577
  0C   1dxy      -0.012146 -0.004576 -0.000016  0.008982  0.006208 -0.002882
  1C   1s         0.033118  0.037325  0.000063 -0.045689 -0.006900 -0.001284
  1C   2s        -0.069104 -0.075795 -0.000131  0.095407  0.014416  0.003214
  1C   1pz        0.001463 -0.002468 -0.130710 -0.000553 -0.001748 -0.000601
  1C   1px        0.046053 -0.207085  0.001606 -0.083170 -0.164464 -0.082361
  1C   1py       -0.141012  0.008741 -0.000812 -0.087081 -0.028301 -0.055204
  1C   3s        -0.066219 -0.118440 -0.000176  0.160126  0.022171 -0.012257
  1C   2pz       -0.000102  0.000077 -0.056084 -0.000306  0.000098 -0.000070
  1C   2px       -0.001612 -0.012833  0.000699 -0.028037  0.007806 -0.007085
  1C   2py        0.018211 -0.036904 -0.000353 -0.011593  0.000211 -0.001396
  1C   1dz2       0.000213  0.000673  0.000085 -0.000123 -0.000144 -0.000087
  1C   1dxz       0.000136  0.000042  0.000363  0.000018 -0.000036  0.000008
  1C   1dyz       0.000062 -0.000015 -0.007259 -0.000007  0.000185  0.000005
  1C   1dx2y2     0.011365  0.002955  0.000045  0.000970  0.003972  0.000645
  1C   1dxy      -0.001177 -0.003506  0.000087 -0.000522  0.013891  0.000204
  2C   1s         0.051051  0.017072  0.000037 -0.012099 -0.014212  0.016927
  2C   2s        -0.103964 -0.033138 -0.000075  0.023546  0.032810 -0.035316
  2C   1pz        0.000018  0.002790 -0.024637 -0.000830  0.002137  0.000122
  2C   1px        0.035912  0.159527  0.000445 -0.145795  0.203588 -0.083287
  2C   1py        0.066998 -0.151379  0.000005 -0.146513  0.039847 -0.177880
  2C   3s        -0.144618 -0.040660 -0.000100  0.021945  0.044712 -0.074137
  2C   2pz        0.000085  0.000667 -0.008840 -0.000057  0.000921 -0.000043
  2C   2px        0.013061  0.038453  0.000139 -0.037879  0.067437 -0.035973
  2C   2py        0.011381 -0.035200  0.000011 -0.064859 -0.021542 -0.061528
  2C   1dz2       0.001749  0.001338 -0.000002 -0.001797  0.001869 -0.000764
  2C   1dxz      -0.000111  0.000010 -0.000958  0.000038 -0.000141  0.000066
  2C   1dyz      -0.000127 -0.000079 -0.001371  0.000102 -0.000026  0.000015
  2C   1dx2y2    -0.010261 -0.000841  0.000010  0.004446 -0.008612  0.004170
  2C   1dxy      -0.007159 -0.007557 -0.000000  0.008104  0.000522 -0.000201
  3C   1s        -0.046023 -0.026644 -0.000046  0.028151  0.005210  0.003954
  3C   2s         0.092052  0.054518  0.000093 -0.058160 -0.011463 -0.009104
  3C   1pz        0.001391 -0.002464 -0.016186 -0.000507 -0.001786 -0.000816
  3C   1px        0.027189 -0.187881  0.000275 -0.101869 -0.167733 -0.094124
[...]
Average number of large shells per batch     ...    39.32 (78.00%)
Average number of large basis fcns per batch ...    81.54 (78.75%)
Maximum spatial batch extension              ...  19.51, 17.49, 27.72 au
Average spatial batch extension              ...   4.70,  4.20,  5.25 au


---------------
TD-DFT XC SETUP
---------------

DFT calculation                         ... on
Name of the grid file                   ... /Users/lailaal-madhagi/Desktop/Testing_XAS_Analysis_code/PhenylAcetaldehyde//Results_dir_PhenylAcetaldehyde_geom_element_C_2019-11-16_18-39-39//GTE1_PhenylAcetaldehyde_geom_2019-11-16_18-39-50//TDDFT_C-edge.grid_cis.tmp
Exchange functional (SCF)               ... B88
Exchange functional (TD-DFT)            ... B88
   X-Alpha parameter    XAlpha (SCF)    ...  0.666667
   X-Alpha parameter    XAlpha (TD-DFT) ...  0.666667
   Becke's b parameter  XBeta (SCF)     ...  0.004200
   Becke's b parameter  XBeta (TD-DFT)  ...  0.004200
Correlation functional (SCF)            ... LYP
Correlation functional (TD-DFT)         ... LYP
 LDA part of GGA corr.  LDAOpt (SCF)    ... VWN-5
 LDA part of GGA corr.  LDAOpt (TD-DFT) ... VWN-5
Hybrid DFT                              ... on
   Exchange mixing (SCF)                ...  0.200
   Exchange mixing (TD-DFT)             ...  0.200
   GGA exch. scaling(SCF)               ...  0.720
   GGA exch. scaling (TD-DFT)           ...  0.720
   GGA corr. scaling (SCF)              ...  0.810
   GGA corr. scaling (TD-DFT)           ...  0.810

Building densities             ... done
Calculating rho(r) on the grid ... done
Building xc-kernel on the grid ... done
                    *** TD-DFT CALCULATION INITIALIZED ***


------------------------
DAVIDSON-DIAGONALIZATION
------------------------

Dimension of the eigenvalue problem            ...    880
Number of roots to be determined               ...     20
Maximum size of the expansion space            ...    880
Maximum number of iterations                   ...    100
Convergence tolerance for the residual         ...    2.500e-07
Convergence tolerance for the energies         ...    2.500e-07
Orthogonality tolerance                        ...    1.000e-14
Level Shift                                    ...    0.000e+00
Constructing the preconditioner                ... o.k.
Building the initial guess                     ... o.k.
Number of trial vectors determined             ...    512


                       ****Iteration    0****

   Memory handling for direct AO based CIS:
   Memory per vector needed      ...     1 MB
   Memory needed                 ...    36 MB
   Memory available              ...   512 MB
   Number of vectors per batch   ...   512
   Number of batches             ...     1
   Time for densities:     0.026
   Using LibInt in JK Direct
   Time for J+K (Direct):   173.262
   Time for XC-Integration:     3.777
   Time for Sigma-Completion:     0.238
   Size of expansion space: 60
   Lowest Energy          :    10.105836231368
   Maximum Energy change  :    10.149136387620 (vector 19)
   Maximum residual norm  :     0.001301899322

                       ****Iteration    1****
   Time for densities:     0.009
   Using LibInt in JK Direct
   Time for J+K (Direct):    39.750
   Time for XC-Integration:     1.144
   Time for Sigma-Completion:     0.069
   Size of expansion space: 80
   Lowest Energy          :    10.103325766697
   Maximum Energy change  :     0.002510464671 (vector 0)
   Maximum residual norm  :     0.000004286041

                       ****Iteration    2****
   Time for densities:     0.008
   Using LibInt in JK Direct
   Time for J+K (Direct):    38.580
   Time for XC-Integration:     1.157
   Time for Sigma-Completion:     0.068
   Size of expansion space: 100
   Lowest Energy          :    10.103324634978
   Maximum Energy change  :     0.000004826658 (vector 6)
   Maximum residual norm  :     0.000000014257

      *** CONVERGENCE OF RESIDUAL NORM REACHED ***

Storing the converged CI vectors               ... /Users/lailaal-madhagi/Desktop/Testing_XAS_Analysis_code/PhenylAcetaldehyde//Results_dir_PhenylAcetaldehyde_geom_element_C_2019-11-16_18-39-39//GTE1_PhenylAcetaldehyde_geom_2019-11-16_18-39-50//TDDFT_C-edge.cis1

                 *** DAVIDSON DONE ***

Total time for solving the CIS problem:   258.734sec

------------------------------------
TD-DFT/TDA EXCITED STATES (SINGLETS)
------------------------------------

the weight of the individual excitations are printed if larger than 1.0e-02

STATE  1:  E=  10.103325 au    274.925 eV  2217423.4 cm**-1
     7a ->  32a  :     0.309473 (c= -0.55630277)
     7a ->  33a  :     0.360126 (c=  0.60010504)
     7a ->  34a  :     0.280565 (c=  0.52968419)
     7a ->  38a  :     0.010914 (c=  0.10446785)

STATE  2:  E=  10.105021 au    274.972 eV  2217795.7 cm**-1
     4a ->  32a  :     0.073718 (c= -0.27151082)
     4a ->  33a  :     0.072456 (c=  0.26917732)
     4a ->  34a  :     0.072967 (c=  0.27012401)
     6a ->  32a  :     0.231326 (c=  0.48096379)
     6a ->  33a  :     0.297049 (c= -0.54502229)
     6a ->  34a  :     0.194097 (c= -0.44056487)
     6a ->  38a  :     0.017003 (c=  0.13039641)

STATE  3:  E=  10.106705 au    275.017 eV  2218165.3 cm**-1
     5a ->  32a  :     0.238263 (c= -0.48812146)
     5a ->  33a  :     0.023353 (c= -0.15281747)
     5a ->  34a  :     0.558865 (c=  0.74757258)
     5a ->  38a  :     0.016704 (c=  0.12924316)
     6a ->  34a  :     0.012333 (c= -0.11105513)
     7a ->  34a  :     0.015212 (c= -0.12333569)
     8a ->  32a  :     0.014782 (c= -0.12158214)
     8a ->  33a  :     0.095951 (c=  0.30975909)

STATE  4:  E=  10.107462 au    275.038 eV  2218331.5 cm**-1
     5a ->  32a  :     0.037821 (c= -0.19447498)
     5a ->  34a  :     0.060882 (c=  0.24674316)
     8a ->  32a  :     0.015131 (c=  0.12300751)
     8a ->  33a  :     0.787515 (c= -0.88742027)
     8a ->  34a  :     0.043867 (c=  0.20944555)
     8a ->  38a  :     0.024071 (c=  0.15514992)

STATE  5:  E=  10.108319 au    275.061 eV  2218519.6 cm**-1
     4a ->  32a  :     0.253617 (c=  0.50360390)
     4a ->  33a  :     0.031045 (c=  0.17619589)
     4a ->  34a  :     0.450388 (c= -0.67110943)
     4a ->  38a  :     0.011649 (c=  0.10793013)
     6a ->  32a  :     0.085012 (c=  0.29156760)
     6a ->  34a  :     0.144033 (c= -0.37951671)

STATE  6:  E=  10.109830 au    275.102 eV  2218851.2 cm**-1
     3a ->  32a  :     0.973501 (c=  0.98666177)
     3a ->  34a  :     0.024093 (c=  0.15522027)

STATE  7:  E=  10.120775 au    275.400 eV  2221253.4 cm**-1
     2a ->  32a  :     0.035253 (c= -0.18775652)
     2a ->  33a  :     0.888270 (c=  0.94248068)
     2a ->  34a  :     0.047624 (c= -0.21822886)
     2a ->  38a  :     0.012835 (c=  0.11329224)

STATE  8:  E=  10.121362 au    275.416 eV  2221382.1 cm**-1
     8a ->  32a  :     0.525080 (c=  0.72462410)
     8a ->  34a  :     0.439738 (c= -0.66312739)

STATE  9:  E=  10.123484 au    275.474 eV  2221848.0 cm**-1
     4a ->  32a  :     0.272498 (c=  0.52201337)
     4a ->  33a  :     0.463958 (c= -0.68114432)
     4a ->  34a  :     0.039249 (c=  0.19811331)
     6a ->  32a  :     0.065546 (c=  0.25601896)
     6a ->  33a  :     0.131635 (c= -0.36281553)
     6a ->  34a  :     0.016161 (c=  0.12712544)

STATE 10:  E=  10.125991 au    275.542 eV  2222398.1 cm**-1
     5a ->  32a  :     0.035018 (c= -0.18713049)
     5a ->  33a  :     0.047803 (c=  0.21863975)
     7a ->  32a  :     0.169627 (c= -0.41185742)
     7a ->  33a  :     0.590536 (c= -0.76846362)
     7a ->  34a  :     0.144009 (c=  0.37948552)

STATE 11:  E=  10.126440 au    275.554 eV  2222496.7 cm**-1
     5a ->  32a  :     0.093516 (c= -0.30580388)
     5a ->  33a  :     0.779323 (c=  0.88279260)
     5a ->  34a  :     0.010606 (c= -0.10298471)
     6a ->  33a  :     0.019068 (c= -0.13808619)
     7a ->  32a  :     0.042293 (c=  0.20565190)
     7a ->  33a  :     0.027342 (c=  0.16535327)
     7a ->  34a  :     0.014849 (c= -0.12185640)

STATE 12:  E=  10.128797 au    275.619 eV  2223014.0 cm**-1
     4a ->  32a  :     0.024584 (c= -0.15679398)
     4a ->  33a  :     0.136725 (c= -0.36976377)
     4a ->  34a  :     0.065198 (c=  0.25533877)
     6a ->  32a  :     0.105665 (c=  0.32506227)
     6a ->  33a  :     0.447013 (c=  0.66859052)
     6a ->  34a  :     0.194418 (c= -0.44092844)

STATE 13:  E=  10.130557 au    275.666 eV  2223400.2 cm**-1
     2a ->  32a  :     0.877777 (c= -0.93689737)
     2a ->  33a  :     0.011240 (c= -0.10601928)
     2a ->  34a  :     0.108400 (c=  0.32924101)

STATE 14:  E=  10.135461 au    275.800 eV  2224476.5 cm**-1
     4a ->  32a  :     0.242589 (c=  0.49253323)
     4a ->  33a  :     0.283442 (c=  0.53239289)
     4a ->  34a  :     0.241487 (c=  0.49141351)
     6a ->  32a  :     0.073275 (c=  0.27069367)
     6a ->  33a  :     0.072028 (c=  0.26838011)
     6a ->  34a  :     0.077509 (c=  0.27840519)

STATE 15:  E=  10.137038 au    275.843 eV  2224822.7 cm**-1
     7a ->  32a  :     0.455065 (c=  0.67458508)
     7a ->  34a  :     0.523435 (c=  0.72348842)

STATE 16:  E=  10.141470 au    275.963 eV  2225795.4 cm**-1
     1a ->  32a  :     0.911674 (c= -0.95481601)
     1a ->  33a  :     0.023764 (c= -0.15415721)
     1a ->  34a  :     0.059281 (c= -0.24347775)

STATE 17:  E=  10.142165 au    275.982 eV  2225948.0 cm**-1
     4a ->  32a  :     0.125175 (c=  0.35380049)
     4a ->  34a  :     0.099822 (c=  0.31594586)
     6a ->  32a  :     0.394830 (c= -0.62835496)
     6a ->  34a  :     0.319025 (c= -0.56482333)
     8a ->  32a  :     0.017908 (c= -0.13381956)
     8a ->  34a  :     0.016638 (c= -0.12898780)

STATE 18:  E=  10.144021 au    276.033 eV  2226355.3 cm**-1
     5a ->  32a  :     0.503850 (c=  0.70982378)
     5a ->  33a  :     0.108132 (c=  0.32883458)
     5a ->  34a  :     0.263796 (c=  0.51361072)
     6a ->  32a  :     0.019232 (c= -0.13867805)
     6a ->  34a  :     0.011723 (c= -0.10827182)
     8a ->  32a  :     0.038558 (c=  0.19636249)
     8a ->  34a  :     0.034303 (c=  0.18520994)

STATE 19:  E=  10.145233 au    276.066 eV  2226621.3 cm**-1
     5a ->  32a  :     0.046323 (c=  0.21522752)
     5a ->  34a  :     0.035060 (c=  0.18724432)
     8a ->  32a  :     0.377294 (c= -0.61424241)
     8a ->  33a  :     0.054783 (c= -0.23405666)
     8a ->  34a  :     0.447972 (c= -0.66930694)

STATE 20:  E=  10.148944 au    276.167 eV  2227435.8 cm**-1
     3a ->  33a  :     0.969341 (c= -0.98455095)
     3a ->  34a  :     0.019886 (c=  0.14101903)


-----------------------------
TD-DFT/TDA-EXCITATION SPECTRA
-----------------------------

Center of mass = ( -0.3073,  3.1155,  0.0000)
Calculating the Dipole integrals                  ... done
Transforming integrals                            ... done
Calculating the Linear Momentum integrals         ... done
Transforming integrals                            ... done
Calculating angular momentum integrals            ... done
Transforming integrals                            ... done

-----------------------------------------------------------------------------
         ABSORPTION SPECTRUM VIA TRANSITION ELECTRIC DIPOLE MOMENTS
-----------------------------------------------------------------------------
State   Energy    Wavelength  fosc         T2        TX        TY        TZ  
        (cm-1)      (nm)                 (au**2)    (au)      (au)      (au) 
-----------------------------------------------------------------------------
   1 2217423.4      4.5   0.027271384   0.00405  -0.00074   0.00039   0.06363
   2 2217795.7      4.5   0.026337802   0.00391   0.00073  -0.00038  -0.06252
   3 2218165.3      4.5   0.012751749   0.00189   0.00051  -0.00027  -0.04350
   4 2218331.5      4.5   0.057949176   0.00860   0.00108  -0.00057  -0.09273
   5 2218519.6      4.5   0.038804258   0.00576   0.00088  -0.00047  -0.07588
   6 2218851.2      4.5   0.000002695   0.00000   0.00007   0.00003  -0.00063
   7 2221253.4      4.5   0.040586050   0.00602   0.00091  -0.00047  -0.07755
   8 2221382.1      4.5   0.000850173   0.00013  -0.00013   0.00007   0.01122
   9 2221848.0      4.5   0.002899331   0.00043  -0.00025   0.00012   0.02072
  10 2222398.1      4.5   0.000154787   0.00002   0.00006  -0.00002  -0.00479
  11 2222496.7      4.5   0.002163673   0.00032  -0.00021   0.00011   0.01790
  12 2223014.0      4.5   0.000304963   0.00005  -0.00008   0.00004   0.00672
  13 2223400.2      4.5   0.001266662   0.00019  -0.00016   0.00006   0.01369
  14 2224476.5      4.5   0.002920102   0.00043  -0.00026   0.00011   0.02079
  15 2224822.7      4.5   0.003284589   0.00049  -0.00027   0.00013   0.02204
  16 2225795.4      4.5   0.056559015   0.00837   0.00104  -0.00062  -0.09146
  17 2225948.0      4.5   0.002210719   0.00033   0.00021  -0.00010  -0.01808
  18 2226355.3      4.5   0.001706096   0.00025   0.00018  -0.00009  -0.01588
  19 2226621.3      4.5   0.000009869   0.00000   0.00002  -0.00001  -0.00121
  20 2227435.8      4.5   0.000295900   0.00004   0.00006  -0.00005  -0.00661

-----------------------------------------------------------------------------
         ABSORPTION SPECTRUM VIA TRANSITION VELOCITY DIPOLE MOMENTS
-----------------------------------------------------------------------------
State   Energy    Wavelength   fosc        P2         PX        PY        PZ  
        (cm-1)      (nm)                 (au**2)     (au)      (au)      (au) 
-----------------------------------------------------------------------------
   1 2217423.4      4.5   0.026251359   0.39784   0.00735  -0.00387  -0.63069
   2 2217795.7      4.5   0.025330334   0.38395  -0.00724   0.00379   0.61958
   3 2218165.3      4.5   0.012256246   0.18581  -0.00503   0.00267   0.43101
   4 2218331.5      4.5   0.055708523   0.84461  -0.01074   0.00562   0.91895
   5 2218519.6      4.5   0.037270313   0.56511  -0.00871   0.00464   0.75167
   6 2218851.2      4.5   0.000009920   0.00015  -0.00079  -0.00026   0.01224
   7 2221253.4      4.5   0.039045684   0.59276  -0.00900   0.00470   0.76984
   8 2221382.1      4.5   0.000816765   0.01240   0.00132  -0.00069  -0.11135
   9 2221848.0      4.5   0.002786497   0.04231   0.00249  -0.00121  -0.20568
  10 2222398.1      4.5   0.000146027   0.00222  -0.00060   0.00024   0.04709
  11 2222496.7      4.5   0.002075759   0.03153   0.00208  -0.00106  -0.17755
  12 2223014.0      4.5   0.000292779   0.00445   0.00076  -0.00037  -0.06669
  13 2223400.2      4.5   0.001203251   0.01828   0.00161  -0.00058  -0.13521
  14 2224476.5      4.5   0.002814675   0.04279   0.00262  -0.00113  -0.20684
  15 2224822.7      4.5   0.003130082   0.04759   0.00268  -0.00127  -0.21814
  16 2225795.4      4.5   0.054219246   0.82479  -0.01031   0.00611   0.90810
  17 2225948.0      4.5   0.002115456   0.03218  -0.00207   0.00103   0.17938
  18 2226355.3      4.5   0.001643373   0.02501  -0.00184   0.00087   0.15812
  19 2226621.3      4.5   0.000009764   0.00015  -0.00018   0.00006   0.01219
  20 2227435.8      4.5   0.000338487   0.00515  -0.00069   0.00052   0.07178

-------------------------------------------------------------------
                             CD SPECTRUM
-------------------------------------------------------------------
State  Energy     Wavelength     R         MX        MY        MZ   
       (cm-1)       (nm)     (1e40*cgs)   (au)      (au)      (au)  
-------------------------------------------------------------------
   1 2217423.4      4.5      0.00008  -0.23799   0.97199  -0.00874
   2 2217795.7      4.5      0.00011   1.30276   0.45413   0.01245
   3 2218165.3      4.5      0.00045   0.55204  -0.97534   0.01246
   4 2218331.5      4.5     -0.00030   2.23326  -0.84237   0.03127
   5 2218519.6      4.5     -0.00027   0.73180   0.47028   0.00558
   6 2218851.2      4.5     -0.00043  -0.02034  -0.00602  -0.00122
   7 2221253.4      4.5      0.00011  -0.00676  -0.18566   0.00105
   8 2221382.1      4.5     -0.00002  -0.27243   0.04083  -0.00348
   9 2221848.0      4.5      0.00022  -0.20126  -0.19055  -0.00130
  10 2222398.1      4.5     -0.00015  -0.02166  -0.07423   0.00017
  11 2222496.7      4.5      0.00013  -0.25601   0.29314  -0.00474
  12 2223014.0      4.5      0.00006  -0.11665  -0.05227  -0.00102
  13 2223400.2      4.5     -0.00014   0.00590   0.04502  -0.00014
  14 2224476.5      4.5      0.00003  -0.16350  -0.15006  -0.00126
  15 2224822.7      4.5      0.00008  -0.10944   0.31265  -0.00315
  16 2225795.4      4.5     -0.00120  -1.90635   1.04725  -0.02869
  17 2225948.0      4.5     -0.00009   0.37994   0.10903   0.00377
  18 2226355.3      4.5      0.00000   0.28855  -0.24705   0.00469
  19 2226621.3      4.5     -0.00005   0.01590  -0.05348   0.00057
  20 2227435.8      4.5      0.00003  -0.10276  -0.00836  -0.00092

Total run time:      259.106 sec

           *** ORCA-CIS/TD-DFT FINISHED WITHOUT ERROR ***

-----------------------
CIS/TD-DFT TOTAL ENERGY
-----------------------

    E(SCF)  =   -384.629078638 Eh
    DE(CIS) =     10.103324635 Eh (Root  1)
    ----------------------------- ---------
    E(tot)  =   -374.525754003 Eh


-------------------------   --------------------
FINAL SINGLE POINT ENERGY      -374.525754003045
-------------------------   --------------------


                            ***************************************
                            *     ORCA property calculations      *
                            ***************************************

                                    ---------------------
                                    Active property flags
                                    ---------------------
   (+) Dipole Moment


------------------------------------------------------------------------------
                       ORCA ELECTRIC PROPERTIES CALCULATION
------------------------------------------------------------------------------

Dipole Moment Calculation                       ... on
Quadrupole Moment Calculation                   ... off
Polarizability Calculation                      ... off
GBWName                                         ... /Users/lailaal-madhagi/Desktop/Testing_XAS_Analysis_code/PhenylAcetaldehyde//Results_dir_PhenylAcetaldehyde_geom_element_C_2019-11-16_18-39-39//GTE1_PhenylAcetaldehyde_geom_2019-11-16_18-39-50//TDDFT_C-edge.gbw
Electron density file                           ... /Users/lailaal-madhagi/Desktop/Testing_XAS_Analysis_code/PhenylAcetaldehyde//Results_dir_PhenylAcetaldehyde_geom_element_C_2019-11-16_18-39-39//GTE1_PhenylAcetaldehyde_geom_2019-11-16_18-39-50//TDDFT_C-edge.scfp.tmp
The origin for moment calculation is the CENTER OF MASS  = (-0.307347,  3.115535  0.000000)

-------------
DIPOLE MOMENT
-------------
                                X             Y             Z
Electronic contribution:      1.34221       2.43967       0.00097
Nuclear contribution   :     -1.71859      -3.39857       0.00144
                        -----------------------------------------
Total Dipole Moment    :     -0.37638      -0.95890       0.00241
                        -----------------------------------------
Magnitude (a.u.)       :      1.03012
Magnitude (Debye)      :      2.61837



--------------------
Rotational spectrum 
--------------------
 
Rotational constants in cm-1:     0.164061     0.029222     0.024916 
Rotational constants in MHz :  4918.410528   876.050081   746.950793 

 Dipole components along the rotational axes: 
x,y,z [a.u.] :    -1.029884     0.022253     0.000794 
x,y,z [Debye]:    -2.617756     0.056563     0.002018 

 

Timings for individual modules:

Sum of individual times         ...      307.093 sec (=   5.118 min)
GTO integral calculation        ...        1.728 sec (=   0.029 min)   0.6 %
SCF iterations                  ...       45.312 sec (=   0.755 min)  14.8 %
CIS module                      ...      260.053 sec (=   4.334 min)  84.7 %
                             ****ORCA TERMINATED NORMALLY****
TOTAL RUN TIME: 0 days 0 hours 5 minutes 7 seconds 921 msec
