
                                 *****************
                                 * O   R   C   A *
                                 *****************

           --- An Ab Initio, DFT and Semiempirical electronic structure package ---

                  #######################################################
                  #                        -***-                        #
                  #          Department of theory and spectroscopy      #
                  #               Directorship: Frank Neese             #
                  #        Max Planck Institute fuer Kohlenforschung    #
                  #                Kaiser Wilhelm Platz 1               #
                  #                 D-45470 Muelheim/Ruhr               #
                  #                      Germany                        #
                  #                                                     #
                  #                  All rights reserved                #
                  #                        -***-                        #
                  #######################################################


                         Program Version 4.1.0  - RELEASE  -


 With contributions from (in alphabetic order):
   Daniel Aravena         : Magnetic Properties
   Michael Atanasov       : Ab Initio Ligand Field Theory
   Alexander A. Auer      : GIAO ZORA
   Ute Becker             : Parallelization
   Giovanni Bistoni       : ED, Open-shell LED
   Martin Brehm           : Molecular dynamics
   Dmytro Bykov           : SCF Hessian
   Vijay G. Chilkuri      : MRCI spin determinant printing
   Dipayan Datta          : RHF DLPNO-CCSD density
   Achintya Kumar Dutta   : EOM-CC, STEOM-CC
   Dmitry Ganyushin       : Spin-Orbit,Spin-Spin,Magnetic field MRCI
   Miquel Garcia          : C-PCM Hessian
   Yang Guo               : DLPNO-NEVPT2, CIM, IAO-localization
   Andreas Hansen         : Spin unrestricted coupled pair/coupled cluster methods
   Benjamin Helmich-Paris : CASSCF linear response (MC-RPA)
   Lee Huntington         : MR-EOM, pCC
   Robert Izsak           : Overlap fitted RIJCOSX, COSX-SCS-MP3, EOM
   Christian Kollmar      : KDIIS, OOCD, Brueckner-CCSD(T), CCSD density
   Simone Kossmann        : Meta GGA functionals, TD-DFT gradient, OOMP2, MP2 Hessian
   Martin Krupicka        : AUTO-CI
   Lucas Lang             : DCDCAS
   Dagmar Lenk            : GEPOL surface, SMD
   Dimitrios Liakos       : Extrapolation schemes; parallel MDCI
   Dimitrios Manganas     : ROCIS; embedding schemes
   Dimitrios Pantazis     : SARC Basis sets
   Taras Petrenko         : DFT Hessian,TD-DFT gradient, ASA, ECA, R-Raman, ABS, FL, XAS/XES, NRVS
   Peter Pinski           : DLPNO-MP2, DLPNO-MP2 Gradient
   Christoph Reimann      : Effective Core Potentials
   Marius Retegan         : Local ZFS, SOC
   Christoph Riplinger    : Optimizer, TS searches, QM/MM, DLPNO-CCSD(T), (RO)-DLPNO pert. Triples
   Tobias Risthaus        : Range-separated hybrids, TD-DFT gradient, RPA, STAB
   Michael Roemelt        : Restricted open shell CIS
   Masaaki Saitow         : Open-shell DLPNO
   Barbara Sandhoefer     : DKH picture change effects
   Avijit Sen             : IP-ROCIS
   Kantharuban Sivalingam : CASSCF convergence, NEVPT2, FIC-MRCI
   Bernardo de Souza      : ESD, SOC TD-DFT
   Georgi Stoychev        : AutoAux, RI-MP2 NMR
   Willem Van den Heuvel  : Paramagnetic NMR
   Boris Wezisla          : Elementary symmetry handling
   Frank Wennmohs         : Technical directorship


 We gratefully acknowledge several colleagues who have allowed us to
 interface, adapt or use parts of their codes:
   Stefan Grimme, W. Hujo, H. Kruse,             : VdW corrections, initial TS optimization,
                  C. Bannwarth                     DFT functionals, gCP, sTDA/sTD-DF
   Ed Valeev                                     : LibInt (2-el integral package), F12 methods
   Garnet Chan, S. Sharma, J. Yang, R. Olivares  : DMRG
   Ulf Ekstrom                                   : XCFun DFT Library
   Mihaly Kallay                                 : mrcc  (arbitrary order and MRCC methods)
   Andreas Klamt, Michael Diedenhofen            : otool_cosmo (COSMO solvation model)
   Jiri Pittner, Ondrej Demel                    : Mk-CCSD
   Frank Weinhold                                : gennbo (NPA and NBO analysis)
   Christopher J. Cramer and Donald G. Truhlar   : smd solvation model
   Lars Goerigk                                  : TD-DFT with DH, B97 family of functionals
   V. Asgeirsson, H. Jonsson                     : NEB implementation
   FAccTs GmbH                                   : IRC, NEB, NEB-TS, Multilevel


 Your calculation uses the libint2 library for the computation of 2-el integrals
 For citations please refer to: http://libint.valeyev.net

 This ORCA versions uses:
   CBLAS   interface :  Fast vector & matrix operations
   LAPACKE interface :  Fast linear algebra routines
   SCALAPACK package :  Parallel linear algebra routines




***************************************
The coordinates will be read from file: /Users/lailaal-madhagi/Desktop/Testing_XAS_Analysis_code/Pyridine/Pyridine_geom.xyz
***************************************


----- Orbital basis set information -----
Your calculation utilizes the basis: 6-31G*
   H-He, Li-Ne : W. J. Hehre, R. Ditchfield and J.A. Pople, J. Chem. Phys. 56, 2257 (1972).
                 Note: He and Ne are unpublished basis sets taken from the Gaussian program.
                 Note: Li and B from J. D. Dill and J. A. Pople, J. Chem. Phys. 62, 2921 (1975).
   Na - Ar     : M. M. Francl, W. J. Pietro, W. J. Hehre, J. S. Binkley, M. S. Gordon, 
                 D. J. DeFrees and J. A. Pople, J. Chem. Phys. 77, 3654 (1982).
   K - Zn      : V. A. Rassolov, J. A. Pople, M. A. Ratner, and T. L. Windus, J. Chem. Phys. 109, 1223 (1998).

================================================================================
                                        WARNINGS
                       Please study these warnings very carefully!
================================================================================


WARNING: Geometry Optimization
  ===> : Switching off AutoStart
         For restart on a previous wavefunction, please use MOREAD

INFO   : the flag for use of LIBINT has been found!

================================================================================
                                       INPUT FILE
================================================================================
NAME = /Users/lailaal-madhagi/Desktop/Testing_XAS_Analysis_code/Pyridine//Results_dir_Pyridine_geom_element_N_2019-11-27_20-35-22//GTE1_Pyridine_geom_2019-11-27_20-35-35//opt.inp
|  1> ! B3LYP 6-31G* TIGHTSCF Grid3 FinalGrid5 Opt 
|  2> !NormalPrint 
|  3> %output 
|  4> Print[P_Basis] 2 
|  5> Print[P_MOS] 1 
|  6> end 
|  7> *xyzfile 0 1 /Users/lailaal-madhagi/Desktop/Testing_XAS_Analysis_code/Pyridine/Pyridine_geom.xyz                           ****END OF INPUT****
================================================================================

                       *****************************
                       * Geometry Optimization Run *
                       *****************************

Geometry optimization settings:
Update method            Update   .... BFGS
Choice of coordinates    CoordSys .... Z-matrix Internals
Initial Hessian          InHess   .... Almoef's Model

Convergence Tolerances:
Energy Change            TolE     ....  5.0000e-06 Eh
Max. Gradient            TolMAXG  ....  3.0000e-04 Eh/bohr
RMS Gradient             TolRMSG  ....  1.0000e-04 Eh/bohr
Max. Displacement        TolMAXD  ....  4.0000e-03 bohr
RMS Displacement         TolRMSD  ....  2.0000e-03 bohr

------------------------------------------------------------------------------
                        ORCA OPTIMIZATION COORDINATE SETUP
------------------------------------------------------------------------------

The optimization will be done in new redundant internal coordinates
Making redundant internal coordinates   ...  (new redundants) done
Evaluating the initial hessian          ...  (Almloef) done
Evaluating the coordinates              ...  done
Calculating the B-matrix                .... done
Calculating the G-matrix                .... done
Diagonalizing the G-matrix              .... done
The first mode is                       ....   20
The number of degrees of freedom        ....   27

    -----------------------------------------------------------------
                    Redundant Internal Coordinates


    -----------------------------------------------------------------
         Definition                    Initial Value    Approx d2E/dq
    -----------------------------------------------------------------
      1. B(C   1,C   0)                  1.3968         0.609346   
      2. B(C   2,C   1)                  1.3976         0.607669   
      3. B(C   3,C   0)                  1.3968         0.609345   
      4. B(C   4,C   3)                  1.3976         0.607687   
      5. B(N   5,C   4)                  1.3605         0.623725   
      6. B(N   5,C   2)                  1.3604         0.623799   
      7. B(H   6,C   0)                  1.0823         0.370389   
      8. B(H   7,C   1)                  1.0823         0.370420   
      9. B(H   8,C   2)                  1.0818         0.371103   
     10. B(H   9,C   3)                  1.0823         0.370409   
     11. B(H  10,C   4)                  1.0818         0.371116   
     12. A(C   3,C   0,H   6)          120.0986         0.353557   
     13. A(C   1,C   0,C   3)          119.8017         0.431369   
     14. A(C   1,C   0,H   6)          120.0997         0.353557   
     15. A(C   0,C   1,C   2)          119.2471         0.431156   
     16. A(C   2,C   1,H   7)          120.3761         0.353397   
     17. A(C   0,C   1,H   7)          120.3768         0.353562   
     18. A(N   5,C   2,H   8)          119.8353         0.352891   
     19. A(C   1,C   2,H   8)          120.1236         0.353507   
     20. A(C   1,C   2,N   5)          120.0411         0.430146   
     21. A(C   4,C   3,H   9)          120.3754         0.353397   
     22. A(C   0,C   3,H   9)          120.3766         0.353560   
     23. A(C   0,C   3,C   4)          119.2480         0.431158   
     24. A(C   3,C   4,H  10)          120.1250         0.353511   
     25. A(C   3,C   4,N   5)          120.0398         0.430139   
     26. A(N   5,C   4,H  10)          119.8352         0.352886   
     27. A(C   2,N   5,C   4)          121.6222         0.429341   
     28. D(H   7,C   1,C   0,H   6)     -0.0005         0.025641   
     29. D(C   2,C   1,C   0,H   6)    179.9998         0.025641   
     30. D(C   2,C   1,C   0,C   3)      0.0003         0.025641   
     31. D(H   7,C   1,C   0,C   3)   -180.0000         0.025641   
     32. D(N   5,C   2,C   1,H   7)   -179.9998         0.025492   
     33. D(H   8,C   2,C   1,C   0)    179.9998         0.025492   
     34. D(N   5,C   2,C   1,C   0)     -0.0000         0.025492   
     35. D(H   8,C   2,C   1,H   7)      0.0000         0.025492   
     36. D(H   9,C   3,C   0,H   6)      0.0007         0.025641   
     37. D(H   9,C   3,C   0,C   1)   -179.9998         0.025641   
     38. D(C   4,C   3,C   0,H   6)    179.9999         0.025641   
     39. D(C   4,C   3,C   0,C   1)     -0.0006         0.025641   
     40. D(H  10,C   4,C   3,C   0)   -179.9997         0.025493   
     41. D(N   5,C   4,C   3,H   9)    179.9999         0.025493   
     42. D(N   5,C   4,C   3,C   0)      0.0007         0.025493   
     43. D(H  10,C   4,C   3,H   9)     -0.0005         0.025493   
     44. D(C   2,N   5,C   4,H  10)    179.9999         0.028567   
     45. D(C   2,N   5,C   4,C   3)     -0.0005         0.028567   
     46. D(C   4,N   5,C   2,H   8)   -179.9997         0.028575   
     47. D(C   4,N   5,C   2,C   1)      0.0001         0.028575   
    -----------------------------------------------------------------

Number of atoms                         .... 11
Number of degrees of freedom            .... 47

         *************************************************************
         *                GEOMETRY OPTIMIZATION CYCLE   1            *
         *************************************************************
---------------------------------
CARTESIAN COORDINATES (ANGSTROEM)
---------------------------------
  C     -1.768360    0.664140   -0.003690
  C     -0.393430    0.910410    0.000020
  C      0.493690   -0.169500   -0.001810
  C     -2.237990   -0.651350   -0.009150
  C     -1.319170   -1.704410   -0.010830
  N      0.016000   -1.443300   -0.007150
  H     -2.467750    1.490150   -0.002330
  H     -0.019330    1.926000    0.004260
  H      1.561340    0.004920    0.001010
  H     -3.301380   -0.852850   -0.012060
  H     -1.667250   -2.728670   -0.015050

----------------------------
CARTESIAN COORDINATES (A.U.)
----------------------------
  NO LB      ZA    FRAG     MASS         X           Y           Z
   0 C     6.0000    0    12.011   -3.341716    1.255043   -0.006973
   1 C     6.0000    0    12.011   -0.743475    1.720426    0.000038
   2 C     6.0000    0    12.011    0.932939   -0.320309   -0.003420
   3 C     6.0000    0    12.011   -4.229188   -1.230873   -0.017291
   4 C     6.0000    0    12.011   -2.492870   -3.220868   -0.020466
   5 N     7.0000    0    14.007    0.030236   -2.727442   -0.013512
   6 H     1.0000    0     1.008   -4.663372    2.815975   -0.004403
   7 H     1.0000    0     1.008   -0.036528    3.639613    0.008050
   8 H     1.0000    0     1.008    2.950505    0.009297    0.001909
   9 H     1.0000    0     1.008   -6.238704   -1.611653   -0.022790
  10 H     1.0000    0     1.008   -3.150646   -5.156439   -0.028440

--------------------------------
INTERNAL COORDINATES (ANGSTROEM)
--------------------------------
 C      0   0   0     0.000000000000     0.00000000     0.00000000
 C      1   0   0     1.396816087357     0.00000000     0.00000000
 C      2   1   0     1.397566045452   119.24708249     0.00000000
 C      1   2   3     1.396816411917   119.80171333     0.00000000
 C      4   1   2     1.397558005379   119.24799828     0.00000000
 N      3   2   1     1.360434743639   120.04114121     0.00000000
 H      1   2   3     1.082331160875   120.09969409   179.99976950
 H      2   1   3     1.082308567692   120.37678554   179.99977580
 H      3   2   1     1.081807196916   120.12357008   179.99978319
 H      4   1   2     1.082316501861   120.37655687   180.00018856
 H      5   4   1     1.081797597705   120.12497007   180.00032452

---------------------------
INTERNAL COORDINATES (A.U.)
---------------------------
 C      0   0   0     0.000000000000     0.00000000     0.00000000
 C      1   0   0     2.639599864561     0.00000000     0.00000000
 C      2   1   0     2.641017079971   119.24708249     0.00000000
 C      1   2   3     2.639600477889   119.80171333     0.00000000
 C      4   1   2     2.641001886436   119.24799828     0.00000000
 N      3   2   1     2.570849088549   120.04114121     0.00000000
 H      1   2   3     2.045309480262   120.09969409   179.99976950
 H      2   1   3     2.045266785335   120.37678554   179.99977580
 H      3   2   1     2.044319331877   120.12357008   179.99978319
 H      4   1   2     2.045281778740   120.37655687   180.00018856
 H      5   4   1     2.044301191996   120.12497007   180.00032452

---------------------
BASIS SET INFORMATION
---------------------
There are 3 groups of distinct atoms

 Group   1 Type C   : 10s4p1d contracted to 3s2p1d pattern {631/31/1}
 Group   2 Type N   : 10s4p1d contracted to 3s2p1d pattern {631/31/1}
 Group   3 Type H   : 4s contracted to 2s pattern {31}

Atom   0C    basis set group =>   1
Atom   1C    basis set group =>   1
Atom   2C    basis set group =>   1
Atom   3C    basis set group =>   1
Atom   4C    basis set group =>   1
Atom   5N    basis set group =>   2
Atom   6H    basis set group =>   3
Atom   7H    basis set group =>   3
Atom   8H    basis set group =>   3
Atom   9H    basis set group =>   3
Atom  10H    basis set group =>   3

-------------------------
BASIS SET IN INPUT FORMAT
-------------------------

 # Basis set for element : H 
 NewGTO H 
 S 3 
   1      18.7311370000      0.0334945995
   2       2.8253937000      0.2347269467
   3       0.6401217000      0.8137573184
 S 1 
   1       0.1612778000      1.0000000000
  end;

 # Basis set for element : C 
 NewGTO C 
 S 6 
   1    3047.5249000000      0.0018347002
   2     457.3695100000      0.0140373012
   3     103.9486900000      0.0688426061
   4      29.2101550000      0.2321844206
   5       9.2866630000      0.4679413416
   6       3.1639270000      0.3623120322
 S 3 
   1       7.8682724000     -0.1193324086
   2       1.8812885000     -0.1608542116
   3       0.5442493000      1.1434564826
 P 3 
   1       7.8682724000      0.0689990956
   2       1.8812885000      0.3164239798
   3       0.5442493000      0.7443082524
 S 1 
   1       0.1687144000      1.0000000000
 P 1 
   1       0.1687144000      1.0000000000
 D 1 
   1       0.8000000000      1.0000000000
  end;

 # Basis set for element : N 
 NewGTO N 
 S 6 
   1    4173.5110000000      0.0018347994
   2     627.4579000000      0.0139949958
   3     142.9021000000      0.0685869792
   4      40.2343300000      0.2322409295
   5      12.8202100000      0.4690698576
   6       4.3904370000      0.3604548906
 S 3 
   1      11.6263580000     -0.1149610229
   2       2.7162800000     -0.1691180337
   3       0.7722180000      1.1458522281
 P 3 
   1      11.6263580000      0.0675800232
   2       2.7162800000      0.3239071114
   3       0.7722180000      0.7408952549
 S 1 
   1       0.2120313000      1.0000000000
 P 1 
   1       0.2120313000      1.0000000000
 D 1 
   1       0.8000000000      1.0000000000
  end;

------------------------------------------------------------------------------
                           ORCA GTO INTEGRAL CALCULATION
------------------------------------------------------------------------------

                         BASIS SET STATISTICS AND STARTUP INFO

 # of primitive gaussian shells          ...  110
 # of primitive gaussian functions       ...  182
 # of contracted shells                  ...   46
 # of contracted basis functions         ...   94
 Highest angular momentum                ...    2
 Maximum contraction depth               ...    6
 Integral package used                   ... LIBINT
 Integral threshhold            Thresh   ...  2.500e-11
 Primitive cut-off              TCut     ...  2.500e-12


------------------------------ INTEGRAL EVALUATION ----------------------------


 * One electron integrals 
 Pre-screening matrix                    ... done
 Shell pair data                         ... done (   0.001 sec)

-------------------------------------------------------------------------------
                                 ORCA SCF
-------------------------------------------------------------------------------

------------
SCF SETTINGS
------------
Hamiltonian:
 Density Functional     Method          .... DFT(GTOs)
 Exchange Functional    Exchange        .... B88
   X-Alpha parameter    XAlpha          ....  0.666667
   Becke's b parameter  XBeta           ....  0.004200
 Correlation Functional Correlation     .... LYP
 LDA part of GGA corr.  LDAOpt          .... VWN-5
 Gradients option       PostSCFGGA      .... off
 Hybrid DFT is turned on
   Fraction HF Exchange ScalHFX         ....  0.200000
   Scaling of DF-GGA-X  ScalDFX         ....  0.720000
   Scaling of DF-GGA-C  ScalDFC         ....  0.810000
   Scaling of DF-LDA-C  ScalLDAC        ....  1.000000
   Perturbative correction              ....  0.000000
   Density functional embedding theory  .... OFF
   NL short-range parameter             ....  4.800000


General Settings:
 Integral files         IntName         .... /Users/lailaal-madhagi/Desktop/Testing_XAS_Analysis_code/Pyridine//Results_dir_Pyridine_geom_element_N_2019-11-27_20-35-22//GTE1_Pyridine_geom_2019-11-27_20-35-35//opt
 Hartree-Fock type      HFTyp           .... RHF
 Total Charge           Charge          ....    0
 Multiplicity           Mult            ....    1
 Number of Electrons    NEL             ....   42
 Basis Dimension        Dim             ....   94
 Nuclear Repulsion      ENuc            ....    204.7822309912 Eh

Convergence Acceleration:
 DIIS                   CNVDIIS         .... on
   Start iteration      DIISMaxIt       ....    12
   Startup error        DIISStart       ....  0.200000
   # of expansion vecs  DIISMaxEq       ....     5
   Bias factor          DIISBfac        ....   1.050
   Max. coefficient     DIISMaxC        ....  10.000
 Newton-Raphson         CNVNR           .... off
 SOSCF                  CNVSOSCF        .... on
   Start iteration      SOSCFMaxIt      ....   150
   Startup grad/error   SOSCFStart      ....  0.003300
 Level Shifting         CNVShift        .... on
   Level shift para.    LevelShift      ....    0.2500
   Turn off err/grad.   ShiftErr        ....    0.0010
 Zerner damping         CNVZerner       .... off
 Static damping         CNVDamp         .... on
   Fraction old density DampFac         ....    0.7000
   Max. Damping (<1)    DampMax         ....    0.9800
   Min. Damping (>=0)   DampMin         ....    0.0000
   Turn off err/grad.   DampErr         ....    0.1000
 Fernandez-Rico         CNVRico         .... off

SCF Procedure:
 Maximum # iterations   MaxIter         ....   125
 SCF integral mode      SCFMode         .... Direct
   Integral package                     .... LIBINT
 Reset frequency        DirectResetFreq ....    20
 Integral Threshold     Thresh          ....  2.500e-11 Eh
 Primitive CutOff       TCut            ....  2.500e-12 Eh

Convergence Tolerance:
 Convergence Check Mode ConvCheckMode   .... Total+1el-Energy
 Convergence forced     ConvForced      .... 0
 Energy Change          TolE            ....  1.000e-08 Eh
 1-El. energy change                    ....  1.000e-05 Eh
 Orbital Gradient       TolG            ....  1.000e-05
 Orbital Rotation angle TolX            ....  1.000e-05
 DIIS Error             TolErr          ....  5.000e-07


Diagonalization of the overlap matrix:
Smallest eigenvalue                        ... 1.007e-03
Time for diagonalization                   ...    0.002 sec
Threshold for overlap eigenvalues          ... 1.000e-08
Number of eigenvalues below threshold      ... 0
Time for construction of square roots      ...    0.001 sec
Total time needed                          ...    0.003 sec

-------------------
DFT GRID GENERATION
-------------------

General Integration Accuracy     IntAcc      ...  4.340
Radial Grid Type                 RadialGrid  ... Gauss-Chebyshev
Angular Grid (max. acc.)         AngularGrid ... Lebedev-194
Angular grid pruning method      GridPruning ... 3 (G Style)
Weight generation scheme         WeightScheme... Becke
Basis function cutoff            BFCut       ...    1.0000e-11
Integration weight cutoff        WCut        ...    1.0000e-14
Grids for H and He will be reduced by one unit

# of grid points (after initial pruning)     ...  27354 (   0.0 sec)
# of grid points (after weights+screening)   ...  25677 (   0.0 sec)
nearest neighbour list constructed           ...    0.0 sec
Grid point re-assignment to atoms done       ...    0.0 sec
Grid point division into batches done        ...    0.0 sec
Reduced shell lists constructed in    0.1 sec

Total number of grid points                  ...    25677
Total number of batches                      ...      407
Average number of points per batch           ...       63
Average number of grid points per atom       ...     2334
Average number of shells per batch           ...    35.27 (76.67%)
Average number of basis functions per batch  ...    74.84 (79.61%)
Average number of large shells per batch     ...    29.36 (83.25%)
Average number of large basis fcns per batch ...    62.37 (83.34%)
Maximum spatial batch extension              ...  17.32, 17.70, 22.18 au
Average spatial batch extension              ...   3.25,  3.31,  4.17 au

Time for grid setup =    0.197 sec

------------------------------
INITIAL GUESS: MODEL POTENTIAL
------------------------------
Loading Hartree-Fock densities                     ... done
Calculating cut-offs                               ... done
Setting up the integral package                    ... done
Initializing the effective Hamiltonian             ... done
Starting the Coulomb interaction                   ... done (   0.0 sec)
Reading the grid                                   ... done
Mapping shells                                     ... done
Starting the XC term evaluation                    ... done (   0.1 sec)
  promolecular density results
     # of electrons  =     41.997592972
     EX              =    -33.717906909
     EC              =     -1.397936712
     EX+EC           =    -35.115843621
Transforming the Hamiltonian                       ... done (   0.0 sec)
Diagonalizing the Hamiltonian                      ... done (   0.0 sec)
Back transforming the eigenvectors                 ... done (   0.0 sec)
Now organizing SCF variables                       ... done
                      ------------------
                      INITIAL GUESS DONE (   0.5 sec)
                      ------------------
--------------
SCF ITERATIONS
--------------
               ***  Starting incremental Fock matrix formation  ***

                         ----------------------------
                         !        ITERATION     0   !
                         ----------------------------
   Total Energy        :    -247.991215147627 Eh
   Energy Change       :    -247.991215147627 Eh
   MAX-DP              :       0.064755145647
   RMS-DP              :       0.002908086649
   Actual Damping      :       0.7000
   Actual Level Shift  :       0.2500 Eh
   Int. Num. El.       :    42.00012431 (UP=   21.00006215 DN=   21.00006215)
   Exchange            :   -27.61425144
   Correlation         :    -1.67191516


                         ----------------------------
                         !        ITERATION     1   !
                         ----------------------------
   Total Energy        :    -248.049025244069 Eh
   Energy Change       :      -0.057810096442 Eh
   MAX-DP              :       0.043922489868
   RMS-DP              :       0.002192274455
   Actual Damping      :       0.7000
   Actual Level Shift  :       0.2500 Eh
   Int. Num. El.       :    42.00015571 (UP=   21.00007786 DN=   21.00007786)
   Exchange            :   -27.44285112
   Correlation         :    -1.66470341

                               ***Turning on DIIS***

                         ----------------------------
                         !        ITERATION     2   !
                         ----------------------------
   Total Energy        :    -248.074141894088 Eh
   Energy Change       :      -0.025116650019 Eh
   MAX-DP              :       0.065441167425
   RMS-DP              :       0.003728732314
   Actual Damping      :       0.0000
   Actual Level Shift  :       0.2500 Eh
   Int. Num. El.       :    42.00017280 (UP=   21.00008640 DN=   21.00008640)
   Exchange            :   -27.32415220
   Correlation         :    -1.65947501
   DIIS-Error          :       0.030338117014


                         ----------------------------
                         !        ITERATION     3   !
                         ----------------------------
   Total Energy        :    -248.111253804187 Eh
   Energy Change       :      -0.037111910100 Eh
   MAX-DP              :       0.029742084597
   RMS-DP              :       0.001589542333
   Actual Damping      :       0.0000
   Actual Level Shift  :       0.2500 Eh
   Int. Num. El.       :    42.00018921 (UP=   21.00009461 DN=   21.00009461)
   Exchange            :   -27.13439000
   Correlation         :    -1.65075838
   DIIS-Error          :       0.039097839515
   DIIS coefficients:
      0.53955   0.46045


                         ----------------------------
                         !        ITERATION     4   !
                         ----------------------------
   Total Energy        :    -248.119972387365 Eh
   Energy Change       :      -0.008718583178 Eh
   MAX-DP              :       0.009689950895
   RMS-DP              :       0.000493475399
   Actual Damping      :       0.0000
   Actual Level Shift  :       0.2500 Eh
   Int. Num. El.       :    42.00017547 (UP=   21.00008774 DN=   21.00008774)
   Exchange            :   -27.20845912
   Correlation         :    -1.65428195
   DIIS-Error          :       0.007880066859
   DIIS coefficients:
      0.19685   0.05319   0.74997


                         ----------------------------
                         !        ITERATION     5   !
                         ----------------------------
   Total Energy        :    -248.120422606838 Eh
   Energy Change       :      -0.000450219472 Eh
   MAX-DP              :       0.002822089223
   RMS-DP              :       0.000154321664
   Actual Damping      :       0.0000
   Actual Level Shift  :       0.2500 Eh
   Int. Num. El.       :    42.00017663 (UP=   21.00008831 DN=   21.00008831)
   Exchange            :   -27.22270863
   Correlation         :    -1.65506854
   DIIS-Error          :       0.003606739212
   DIIS coefficients:
      0.06122  -0.00539   0.25161   0.69255

                      *** Initiating the SOSCF procedure ***
                           *** Shutting down DIIS ***
                      *** Re-Reading the Fockian *** 
                      *** Removing any level shift *** 

                         ----------------------------
                         !        ITERATION     6   !
                         ----------------------------
   Total Energy        :    -248.120460004866 Eh
   Energy Change       :      -0.000037398029 Eh
   MAX-DP              :       0.001251735686
   RMS-DP              :       0.000065279092
   Orbital gradient    :       0.000236255989
   Orbital Rotation    :       0.000236255989
   Actual Damping      :       0.0000
   Int. Num. El.       :    42.00017591 (UP=   21.00008796 DN=   21.00008796)
   Exchange            :   -27.22657990
   Correlation         :    -1.65521108

               *** Restarting incremental Fock matrix formation ***

                         ----------------------------
                         !        ITERATION     7   !
                         ----------------------------
   Total Energy        :    -248.120461010900 Eh
   Energy Change       :      -0.000001006034 Eh
   MAX-DP              :       0.000515513539
   RMS-DP              :       0.000021013321
   Orbital gradient    :       0.000179452922
   Orbital Rotation    :       0.000713399909
   Actual Damping      :       0.0000
   Int. Num. El.       :    42.00017602 (UP=   21.00008801 DN=   21.00008801)
   Exchange            :   -27.22690954
   Correlation         :    -1.65522375


                         ----------------------------
                         !        ITERATION     8   !
                         ----------------------------
   Total Energy        :    -248.120460497907 Eh
   Energy Change       :       0.000000512994 Eh
   MAX-DP              :       0.000333958565
   RMS-DP              :       0.000013506866
   Orbital gradient    :       0.000326625644
   Orbital Rotation    :       0.000492350429
   Actual Damping      :       0.0000
   Int. Num. El.       :    42.00017612 (UP=   21.00008806 DN=   21.00008806)
   Exchange            :   -27.22667988
   Correlation         :    -1.65521586


                         ----------------------------
                         !        ITERATION     9   !
                         ----------------------------
   Total Energy        :    -248.120461343570 Eh
   Energy Change       :      -0.000000845663 Eh
   MAX-DP              :       0.000090651764
   RMS-DP              :       0.000003010315
   Orbital gradient    :       0.000027373322
   Orbital Rotation    :       0.000104759943
   Actual Damping      :       0.0000
   Int. Num. El.       :    42.00017606 (UP=   21.00008803 DN=   21.00008803)
   Exchange            :   -27.22679263
   Correlation         :    -1.65521979


                         ----------------------------
                         !        ITERATION    10   !
                         ----------------------------
   Total Energy        :    -248.120461332410 Eh
   Energy Change       :       0.000000011159 Eh
   MAX-DP              :       0.000062264728
   RMS-DP              :       0.000001889065
   Orbital gradient    :       0.000048397660
   Orbital Rotation    :       0.000062424368
   Actual Damping      :       0.0000
   Int. Num. El.       :    42.00017606 (UP=   21.00008803 DN=   21.00008803)
   Exchange            :   -27.22683949
   Correlation         :    -1.65522125

                  ***Gradient check signals convergence***
              ***Rediagonalizing the Fockian in SOSCF/NRSCF***

               *****************************************************
               *                     SUCCESS                       *
               *           SCF CONVERGED AFTER  11 CYCLES          *
               *****************************************************

Setting up the final grid:

General Integration Accuracy     IntAcc      ...  5.010
Radial Grid Type                 RadialGrid  ... Gauss-Chebyshev
Angular Grid (max. acc.)         AngularGrid ... Lebedev-434
Angular grid pruning method      GridPruning ... 3 (G Style)
Weight generation scheme         WeightScheme... Becke
Basis function cutoff            BFCut       ...    1.0000e-11
Integration weight cutoff        WCut        ...    1.0000e-14
Grids for H and He will be reduced by one unit

# of grid points (after initial pruning)     ...  97540 (   0.0 sec)
# of grid points (after weights+screening)   ...  90819 (   0.1 sec)
nearest neighbour list constructed           ...    0.0 sec
Grid point re-assignment to atoms done       ...    0.0 sec
Grid point division into batches done        ...    0.5 sec
Reduced shell lists constructed in    0.8 sec

Total number of grid points                  ...    90819
Total number of batches                      ...     1425
Average number of points per batch           ...       63
Average number of grid points per atom       ...     8256
Average number of shells per batch           ...    32.68 (71.03%)
Average number of basis functions per batch  ...    69.20 (73.61%)
Average number of large shells per batch     ...    26.73 (81.79%)
Average number of large basis fcns per batch ...    56.58 (81.77%)
Maximum spatial batch extension              ...  16.20, 19.27, 16.35 au
Average spatial batch extension              ...   2.19,  2.25,  2.41 au

Final grid set up in    0.9 sec
Final integration                            ... done (   0.6 sec)
Change in XC energy                          ...    -0.000044248
Integrated number of electrons               ...    41.999981985
Previous integrated no of electrons          ...    42.000176067

----------------
TOTAL SCF ENERGY
----------------

Total Energy       :         -248.12050560 Eh           -6751.70221 eV

Components:
Nuclear Repulsion  :          204.78223099 Eh            5572.40780 eV
Electronic Energy  :         -452.90273659 Eh          -12324.11001 eV
One Electron Energy:         -739.34557976 Eh          -20118.61604 eV
Two Electron Energy:          286.44284317 Eh            7794.50603 eV

Virial components:
Potential Energy   :         -494.62739600 Eh          -13459.49571 eV
Kinetic Energy     :          246.50689041 Eh            6707.79351 eV
Virial Ratio       :            2.00654592


DFT components:
N(Alpha)           :       20.999990992402 electrons
N(Beta)            :       20.999990992402 electrons
N(Total)           :       41.999981984803 electrons
E(X)               :      -27.226848751970 Eh       
E(C)               :       -1.655224970421 Eh       
E(XC)              :      -28.882073722391 Eh       
DFET-embed. en.    :        0.000000000000 Eh       

---------------
SCF CONVERGENCE
---------------

  Last Energy change         ...   -1.5193e-08  Tolerance :   1.0000e-08
  Last MAX-Density change    ...    7.2967e-06  Tolerance :   1.0000e-07
  Last RMS-Density change    ...    3.0318e-07  Tolerance :   5.0000e-09
  Last Orbital Gradient      ...    2.4412e-06  Tolerance :   1.0000e-05
  Last Orbital Rotation      ...    6.2510e-06  Tolerance :   1.0000e-05

             **** THE GBW FILE WAS UPDATED (/Users/lailaal-madhagi/Desktop/Testing_XAS_Analysis_code/Pyridine//Results_dir_Pyridine_geom_element_N_2019-11-27_20-35-22//GTE1_Pyridine_geom_2019-11-27_20-35-35//opt.gbw) ****
             **** DENSITY FILE WAS UPDATED (/Users/lailaal-madhagi/Desktop/Testing_XAS_Analysis_code/Pyridine//Results_dir_Pyridine_geom_element_N_2019-11-27_20-35-22//GTE1_Pyridine_geom_2019-11-27_20-35-35//opt.scfp.tmp) ****
             **** ENERGY FILE WAS UPDATED (/Users/lailaal-madhagi/Desktop/Testing_XAS_Analysis_code/Pyridine//Results_dir_Pyridine_geom_element_N_2019-11-27_20-35-22//GTE1_Pyridine_geom_2019-11-27_20-35-35//opt.en.tmp) ****
----------------
ORBITAL ENERGIES
----------------

  NO   OCC          E(Eh)            E(eV) 
   0   2.0000     -14.321873      -389.7180 
   1   2.0000     -10.215924      -277.9894 
   2   2.0000     -10.215905      -277.9889 
   3   2.0000     -10.198159      -277.5060 
   4   2.0000     -10.189603      -277.2732 
   5   2.0000     -10.189570      -277.2723 
   6   2.0000      -0.921397       -25.0725 
   7   2.0000      -0.792145       -21.5554 
   8   2.0000      -0.757841       -20.6219 
   9   2.0000      -0.623376       -16.9629 
  10   2.0000      -0.621560       -16.9135 
  11   2.0000      -0.522631       -14.2215 
  12   2.0000      -0.471364       -12.8265 
  13   2.0000      -0.470821       -12.8117 
  14   2.0000      -0.430495       -11.7144 
  15   2.0000      -0.396006       -10.7759 
  16   2.0000      -0.385164       -10.4808 
  17   2.0000      -0.365875        -9.9560 
  18   2.0000      -0.276833        -7.5330 
  19   2.0000      -0.259069        -7.0496 
  20   2.0000      -0.238542        -6.4911 
  21   0.0000      -0.019954        -0.5430 
  22   0.0000      -0.007520        -0.2046 
  23   0.0000       0.099097         2.6966 
  24   0.0000       0.140791         3.8311 
  25   0.0000       0.146537         3.9875 
  26   0.0000       0.152121         4.1394 
  27   0.0000       0.179654         4.8886 
  28   0.0000       0.181232         4.9316 
  29   0.0000       0.240944         6.5564 
  30   0.0000       0.292261         7.9528 
  31   0.0000       0.318708         8.6725 
  32   0.0000       0.328258         8.9324 
  33   0.0000       0.450506        12.2589 
  34   0.0000       0.462444        12.5837 
  35   0.0000       0.519698        14.1417 
  36   0.0000       0.540636        14.7115 
  37   0.0000       0.566343        15.4110 
  38   0.0000       0.590443        16.0668 
  39   0.0000       0.590808        16.0767 
  40   0.0000       0.601509        16.3679 
  41   0.0000       0.604395        16.4464 
  42   0.0000       0.610396        16.6097 
  43   0.0000       0.636139        17.3102 
  44   0.0000       0.659015        17.9327 
  45   0.0000       0.680464        18.5164 
  46   0.0000       0.691998        18.8302 
  47   0.0000       0.832189        22.6450 
  48   0.0000       0.834901        22.7188 
  49   0.0000       0.849891        23.1267 
  50   0.0000       0.860709        23.4211 
  51   0.0000       0.863264        23.4906 
  52   0.0000       0.900225        24.4964 
  53   0.0000       0.928142        25.2560 
  54   0.0000       0.931326        25.3427 
  55   0.0000       0.974800        26.5257 
  56   0.0000       1.027756        27.9667 
  57   0.0000       1.075145        29.2562 
  58   0.0000       1.117206        30.4007 
  59   0.0000       1.168287        31.7907 
  60   0.0000       1.213684        33.0260 
  61   0.0000       1.254280        34.1307 
  62   0.0000       1.386803        37.7368 
  63   0.0000       1.400061        38.0976 
  64   0.0000       1.449365        39.4392 
  65   0.0000       1.480363        40.2827 
  66   0.0000       1.481543        40.3148 
  67   0.0000       1.503577        40.9144 
  68   0.0000       1.536472        41.8095 
  69   0.0000       1.733017        47.1578 
  70   0.0000       1.749567        47.6081 
  71   0.0000       1.817822        49.4654 
  72   0.0000       1.833659        49.8964 
  73   0.0000       1.928905        52.4882 
  74   0.0000       1.957294        53.2607 
  75   0.0000       2.048877        55.7528 
  76   0.0000       2.116063        57.5810 
  77   0.0000       2.142664        58.3049 
  78   0.0000       2.152097        58.5615 
  79   0.0000       2.168073        58.9963 
  80   0.0000       2.179434        59.3054 
  81   0.0000       2.294116        62.4261 
  82   0.0000       2.326336        63.3028 
  83   0.0000       2.348643        63.9098 
  84   0.0000       2.508448        68.2583 
  85   0.0000       2.546528        69.2946 
  86   0.0000       2.641807        71.8872 
  87   0.0000       2.675848        72.8135 
  88   0.0000       2.697056        73.3906 
  89   0.0000       2.698939        73.4419 
  90   0.0000       2.732473        74.3544 
  91   0.0000       2.776105        75.5417 
  92   0.0000       3.024278        82.2948 
  93   0.0000       3.386735        92.1578 
------------------
MOLECULAR ORBITALS
------------------
                      0         1         2         3         4         5   
                 -14.32187 -10.21592 -10.21591 -10.19816 -10.18960 -10.18957
                   2.00000   2.00000   2.00000   2.00000   2.00000   2.00000
                  --------  --------  --------  --------  --------  --------
  0C   1s         0.000137  0.000112 -0.000227  0.994473 -0.021250  0.028867
  0C   2s         0.001039  0.000447 -0.000904  0.036179 -0.002513  0.003423
  0C   1pz       -0.000000  0.000001  0.000001 -0.000001  0.000006  0.000003
  0C   1px        0.000040  0.000194 -0.000055  0.000537  0.000593  0.001250
  0C   1py       -0.000047  0.000042  0.000200 -0.000635  0.001290 -0.000016
  0C   3s        -0.015844 -0.004029  0.008148 -0.029701  0.011599 -0.015813
  0C   2pz        0.000011 -0.000004 -0.000010  0.000007 -0.000017  0.000000
  0C   2px       -0.005835 -0.003083  0.002603 -0.003557  0.000953 -0.005922
  0C   2py        0.006891  0.000715 -0.004521  0.004201 -0.005596  0.003717
  0C   1dz2       0.000216  0.000137 -0.000277 -0.000631  0.000547 -0.000746
  0C   1dxz      -0.000001 -0.000001  0.000001  0.000004 -0.000002  0.000007
  0C   1dyz      -0.000001 -0.000001  0.000002  0.000004 -0.000008  0.000003
  0C   1dx2y2    -0.000011  0.000013  0.000019  0.000068  0.000975  0.000911
  0C   1dxy      -0.000066 -0.000034  0.000060  0.000408 -0.000737  0.000631
  1C   1s        -0.000153 -0.008032  0.002652  0.025166 -0.151593 -0.983165
  1C   2s        -0.000943  0.000993 -0.000056 -0.001051 -0.005506 -0.036216
  1C   1pz       -0.000000 -0.000001  0.000001  0.000004  0.000001  0.000004
  1C   1px        0.000177  0.000877 -0.000323  0.001270  0.000232  0.000364
  1C   1py       -0.000202 -0.000865  0.000476  0.000277  0.000240  0.000814
  1C   3s         0.014751 -0.004654 -0.006144  0.009716 -0.000410  0.033371
  1C   2pz       -0.000042 -0.000007  0.000020 -0.000018  0.000007 -0.000031
  1C   2px       -0.004659 -0.005048  0.001891 -0.003596  0.000517 -0.002969
  1C   2py       -0.009452  0.000969  0.004617 -0.002987  0.001610 -0.007266
  1C   1dz2      -0.000152 -0.000696  0.000334  0.000638  0.000030  0.000646
  1C   1dxz      -0.000000 -0.000001  0.000000 -0.000006 -0.000000 -0.000002
  1C   1dyz       0.000001  0.000002 -0.000001 -0.000001 -0.000000 -0.000002
  1C   1dx2y2    -0.000152 -0.000056  0.000057 -0.001108 -0.000052 -0.000352
  1C   1dxy      -0.000083 -0.001016  0.000422 -0.000298 -0.000003  0.000274
  2C   1s        -0.000030 -0.942585  0.318618 -0.000156  0.001378  0.008372
  2C   2s         0.001061 -0.033816  0.010469 -0.000374  0.000039  0.002169
  2C   1pz       -0.000001  0.000005 -0.000001  0.000000  0.000000  0.000002
  2C   1px       -0.000087  0.001051 -0.000054  0.000279 -0.000032 -0.000816
  2C   1py       -0.000384  0.000686 -0.000211 -0.000132  0.000131  0.001063
  2C   3s        -0.017884  0.017829  0.000110 -0.001790  0.001477 -0.013047
  2C   2pz        0.000040  0.000016 -0.000016  0.000001 -0.000004  0.000009
  2C   2px        0.011363 -0.001222 -0.006488  0.000447 -0.001789  0.006185
  2C   2py        0.004890  0.005347 -0.000669 -0.000088 -0.000168 -0.001250
  2C   1dz2      -0.000165  0.000867 -0.000643 -0.000092 -0.000192 -0.000574
  2C   1dxz       0.000000 -0.000002  0.000002  0.000001 -0.000000 -0.000002
  2C   1dyz       0.000005 -0.000008  0.000005  0.000001  0.000001  0.000002
  2C   1dx2y2    -0.000893  0.000616 -0.000262 -0.000021 -0.000053 -0.000301
  2C   1dxy       0.000513 -0.000164 -0.000006  0.000093 -0.000174 -0.001114
  3C   1s        -0.000153  0.002772  0.008007  0.025259  0.983255 -0.150991
  3C   2s        -0.000943 -0.000558 -0.000823 -0.001048  0.036195 -0.005636
  3C   1pz       -0.000000  0.000001  0.000002 -0.000005  0.000003  0.000000
  3C   1px        0.000171 -0.000099 -0.000816 -0.000483  0.000905  0.000003
  3C   1py       -0.000208  0.000296  0.001042 -0.001207  0.000271  0.000114
  3C   3s         0.014751  0.007707 -0.000031  0.009714 -0.031705  0.010422
  3C   2pz        0.000031  0.000001 -0.000022  0.000018 -0.000019  0.000011
  3C   2px        0.010091  0.003942 -0.002856  0.003539 -0.006799  0.003896
  3C   2py        0.003036 -0.002242 -0.004754  0.003054 -0.001577  0.000753
  3C   1dz2      -0.000152  0.000157  0.000756  0.000638 -0.000625  0.000166
  3C   1dxz       0.000000  0.000001  0.000001 -0.000003  0.000001 -0.000000
  3C   1dyz       0.000000 -0.000001 -0.000003 -0.000008  0.000005 -0.000001
  3C   1dx2y2     0.000117  0.000102  0.000271  0.000951 -0.000417  0.000081
  3C   1dxy      -0.000128  0.000263  0.001032 -0.000643 -0.000132  0.000062
  4C   1s        -0.000030  0.318863  0.942502 -0.000157 -0.008414  0.001205
  4C   2s         0.001061  0.012204  0.033230 -0.000375 -0.002081  0.000615
  4C   1pz        0.000001  0.000003  0.000004 -0.000001 -0.000001  0.000001
  4C   1px        0.000393  0.000344  0.000807  0.000084  0.000909 -0.000157
  4C   1py        0.000022  0.000546  0.000746 -0.000297 -0.000950  0.000244
  4C   3s        -0.017883 -0.010908 -0.014103 -0.001790  0.011999 -0.005331
  4C   2pz       -0.000049 -0.000018  0.000018 -0.000002  0.000018 -0.000013
  4C   2px       -0.006696  0.001704  0.005080  0.000013 -0.000341 -0.000375
  4C   2py       -0.010401 -0.006264  0.002158 -0.000455  0.005492 -0.003553
  4C   1dz2      -0.000165 -0.000015 -0.001079 -0.000092  0.000605  0.000011
  4C   1dxz       0.000003  0.000001  0.000005  0.000001  0.000002 -0.000001
  4C   1dyz      -0.000002 -0.000000  0.000004  0.000001 -0.000001 -0.000000
  4C   1dx2y2     0.001011  0.000190  0.000654  0.000050  0.000076 -0.000017
  4C   1dxy       0.000194  0.000044 -0.000091  0.000081  0.001153 -0.000173
  5N   1s        -0.995429 -0.000083  0.000168 -0.000011  0.000036 -0.000049
  5N   2s        -0.033945 -0.000323  0.000654 -0.000269  0.000341 -0.000465
  5N   1pz       -0.000003  0.000004  0.000001 -0.000000  0.000000  0.000000
  5N   1px        0.001618  0.000463  0.000671  0.000058  0.000084 -0.000011
  5N   1py       -0.001911  0.000748 -0.000152 -0.000068  0.000001  0.000087
  5N   3s         0.036565  0.003538 -0.007152  0.000938 -0.004064  0.005541
  5N   2pz        0.000014  0.000017  0.000003  0.000000  0.000000  0.000005
  5N   2px       -0.007178  0.001750  0.003944 -0.000235  0.001538 -0.001063
  5N   2py        0.008479  0.003962 -0.001676  0.000278 -0.000816  0.001989
  5N   1dz2      -0.000153 -0.000741  0.001497 -0.000037 -0.000069  0.000094
  5N   1dxz      -0.000001  0.000002 -0.000010  0.000000  0.000000 -0.000001
  5N   1dyz       0.000000  0.000011 -0.000007  0.000000  0.000001 -0.000000
  5N   1dx2y2    -0.000080 -0.001464 -0.000931  0.000001 -0.000099 -0.000078
  5N   1dxy      -0.000482  0.000749 -0.000865  0.000003  0.000033 -0.000010
  6H   1s        -0.000180 -0.000059  0.000118 -0.001327 -0.000096  0.000131
  6H   2s        -0.002224 -0.000786  0.001589  0.003155  0.000891 -0.001216
  7H   1s         0.000415  0.000445 -0.000282 -0.000219  0.000157  0.001370
  7H   2s         0.002696  0.000644 -0.001362  0.000879 -0.000837 -0.002547
  8H   1s        -0.000095  0.001250 -0.000067  0.000006  0.000114  0.000120
  8H   2s        -0.003275 -0.003856  0.003752  0.000264  0.000646 -0.001206
  9H   1s         0.000415 -0.000046 -0.000525 -0.000219 -0.001353  0.000262
  9H   2s         0.002696  0.000691 -0.001339  0.000880  0.002681  0.000032
 10H   1s        -0.000095 -0.000705 -0.001034  0.000006 -0.000149 -0.000073
 10H   2s        -0.003275 -0.000642  0.005342  0.000264  0.000956 -0.000978
                      6         7         8         9        10        11   
                  -0.92140  -0.79215  -0.75784  -0.62338  -0.62156  -0.52263
                   2.00000   2.00000   2.00000   2.00000   2.00000   2.00000
                  --------  --------  --------  --------  --------  --------
  0C   1s         0.043954  0.147142 -0.000007  0.109840 -0.000137 -0.028817
  0C   2s        -0.084575 -0.284051  0.000025 -0.224975  0.000268  0.060959
  0C   1pz        0.000047  0.000066 -0.000412 -0.000085  0.000747  0.000324
  0C   1px       -0.024198 -0.034156 -0.082940  0.044082  0.150259 -0.166972
  0C   1py        0.028572  0.040308 -0.070229 -0.051700  0.127329  0.197230
  0C   3s        -0.012141 -0.215160 -0.000085 -0.154907  0.000385  0.065294
  0C   2pz       -0.000016  0.000007 -0.000051 -0.000080  0.000196  0.000119
  0C   2px        0.008418 -0.003692 -0.010173  0.041428  0.039624 -0.060856
  0C   2py       -0.009942  0.004389 -0.008542 -0.048811  0.033508  0.071911
  0C   1dz2       0.004401  0.012238  0.000002  0.005058 -0.000010 -0.002421
  0C   1dxz      -0.000012 -0.000048 -0.000015  0.000002  0.000013 -0.000000
  0C   1dyz      -0.000025 -0.000074  0.000037 -0.000022 -0.000033  0.000011
  0C   1dx2y2     0.000156 -0.000151 -0.009751  0.000926  0.008700 -0.000411
  0C   1dxy       0.000931 -0.000928  0.001628  0.005454 -0.001455 -0.002434
  1C   1s         0.053392  0.102665  0.107711 -0.047616 -0.093478  0.013789
  1C   2s        -0.097944 -0.197805 -0.210883  0.096714  0.187785 -0.026109
  1C   1pz        0.000163  0.000207  0.000041  0.000268  0.000155  0.000687
  1C   1px        0.000564  0.077614 -0.046257  0.187676 -0.058590  0.042244
  1C   1py        0.047333  0.013140  0.040326 -0.036303  0.081464  0.175910
  1C   3s        -0.083356 -0.130332 -0.148346  0.057918  0.154056 -0.018771
  1C   2pz        0.000116 -0.000027 -0.000044  0.000171  0.000137  0.000217
  1C   2px        0.014208  0.003293 -0.005750  0.057756 -0.003540  0.007461
  1C   2py        0.025497 -0.009686 -0.009305  0.015030  0.041674  0.058892
  1C   1dz2       0.006072  0.008371  0.007884 -0.001999 -0.004780 -0.000789
  1C   1dxz      -0.000013 -0.000058 -0.000009 -0.000025  0.000034 -0.000002
  1C   1dyz      -0.000037 -0.000044 -0.000047  0.000026  0.000042 -0.000014
  1C   1dx2y2     0.001466 -0.004748  0.002771 -0.007108 -0.000917  0.003331
  1C   1dxy       0.001740 -0.005349  0.004161 -0.004988  0.005418 -0.003494
  2C   1s         0.097249 -0.009797  0.116942 -0.070974  0.080963 -0.023188
  2C   2s        -0.188216  0.021697 -0.233124  0.143326 -0.169548  0.048731
  2C   1pz        0.000386 -0.000344 -0.000070  0.000672  0.000292  0.000389
  2C   1px        0.064962  0.018506  0.028918  0.032298 -0.066794  0.215213
  2C   1py        0.073345 -0.112130 -0.038421  0.177552  0.126278 -0.017536
  2C   3s        -0.065004 -0.001816 -0.169056  0.134546 -0.136760  0.068690
  2C   2pz       -0.000082  0.000015 -0.000071  0.000176 -0.000000  0.000175
  2C   2px       -0.019202  0.016985 -0.000702  0.012831 -0.035580  0.073344
  2C   2py       -0.012375 -0.006039 -0.020288  0.043243  0.022286  0.006407
  2C   1dz2       0.010840 -0.001234  0.009024 -0.002734  0.004857 -0.001393
  2C   1dxz      -0.000057  0.000030 -0.000016 -0.000004 -0.000039  0.000015
  2C   1dyz      -0.000097  0.000050 -0.000045 -0.000024 -0.000046  0.000014
  2C   1dx2y2     0.004578 -0.005657  0.000532  0.006674  0.000804  0.000110
  2C   1dxy      -0.008120  0.010965  0.004623 -0.008078 -0.006893  0.002891
  3C   1s         0.053387  0.102641 -0.107725 -0.047386  0.093599  0.013802
  3C   2s        -0.097943 -0.197789  0.210904  0.096252 -0.187996 -0.026174
  3C   1pz       -0.000073 -0.000307 -0.000112 -0.000642 -0.000094 -0.000419
  3C   1px       -0.046780 -0.025779  0.032162  0.005022  0.070657 -0.180419
  3C   1py        0.007254 -0.074373 -0.052275 -0.191258 -0.070727 -0.012658
  3C   3s        -0.083285 -0.130086  0.148377  0.057544 -0.154374 -0.018866
  3C   2pz       -0.000091  0.000004 -0.000035 -0.000236  0.000052 -0.000116
  3C   2px       -0.027424  0.009269 -0.010166 -0.024117  0.040592 -0.059457
  3C   2py       -0.009835 -0.004920 -0.004012 -0.054492 -0.010431  0.002592
  3C   1dz2       0.006069  0.008362 -0.007886 -0.001990  0.004789 -0.000791
  3C   1dxz      -0.000016 -0.000047  0.000015 -0.000006 -0.000039 -0.000014
  3C   1dyz      -0.000029 -0.000073  0.000032 -0.000020 -0.000029  0.000015
  3C   1dx2y2    -0.000816  0.002752  0.001264  0.005092 -0.002639 -0.004281
  3C   1dxy       0.002121 -0.006613 -0.004825 -0.007042 -0.004824 -0.002208
  4C   1s         0.097245 -0.009804 -0.116948 -0.071174 -0.080781 -0.023193
  4C   2s        -0.188185  0.021721  0.233116  0.143761  0.169186  0.048720
  4C   1pz       -0.000351  0.000099  0.000051 -0.000385 -0.000057 -0.000772
  4C   1px       -0.083032  0.107528 -0.033142 -0.180150  0.113988 -0.018183
  4C   1py       -0.051980 -0.036739  0.034863 -0.002791 -0.086693 -0.215174
  4C   3s        -0.065038 -0.002066  0.169168  0.134731  0.136335  0.068715
  4C   2pz        0.000090 -0.000055 -0.000034 -0.000113 -0.000101 -0.000282
  4C   2px        0.015411  0.003175 -0.020194 -0.044845  0.016270 -0.018681
  4C   2py        0.016857 -0.017899  0.002711 -0.005657 -0.038770 -0.071179
  4C   1dz2       0.010840 -0.001229 -0.009025 -0.002740 -0.004846 -0.001385
  4C   1dxz      -0.000075  0.000052  0.000015 -0.000027  0.000045  0.000016
  4C   1dyz      -0.000053 -0.000005  0.000047  0.000035  0.000031  0.000011
  4C   1dx2y2    -0.006961  0.008915 -0.001006 -0.008935  0.003023  0.000825
  4C   1dxy      -0.006190  0.008533 -0.004549 -0.005456  0.006274  0.002761
  5N   1s         0.153874 -0.093011  0.000003  0.072157 -0.000092 -0.018630
  5N   2s        -0.316009  0.199686 -0.000018 -0.163680  0.000199  0.042480
  5N   1pz       -0.000142  0.000046 -0.000544 -0.000018 -0.000937 -0.000143
  5N   1px        0.073530 -0.023935 -0.109276  0.008691 -0.188225  0.073573
  5N   1py       -0.086865  0.028271 -0.092522 -0.010740 -0.159341 -0.086901
  5N   3s        -0.322958  0.207710  0.000029 -0.164384  0.000221  0.064048
  5N   2pz       -0.000075  0.000025 -0.000184  0.000002 -0.000280 -0.000071
  5N   2px        0.038603 -0.012642 -0.037034 -0.001632 -0.056716  0.035580
  5N   2py       -0.045524  0.014883 -0.031368  0.001694 -0.048038 -0.042287
  5N   1dz2       0.009749 -0.002129 -0.000001 -0.001780  0.000003  0.002967
  5N   1dxz      -0.000046  0.000025  0.000021  0.000005  0.000020  0.000048
  5N   1dyz      -0.000062  0.000019 -0.000051  0.000010 -0.000050  0.000006
  5N   1dx2y2    -0.000472  0.000754  0.013553 -0.000063  0.013322  0.002600
  5N   1dxy      -0.002785  0.004474 -0.002266 -0.000490 -0.002227  0.015480
  6H   1s        -0.012987 -0.074683  0.000005 -0.117397  0.000141  0.160099
  6H   2s         0.003288 -0.013344 -0.000013 -0.035202  0.000064  0.095927
  7H   1s        -0.016777 -0.050683 -0.062890  0.050824  0.098912  0.077897
  7H   2s        -0.007678 -0.005992 -0.009709  0.013898  0.034661  0.051137
  8H   1s        -0.029971  0.005617 -0.068654  0.082231 -0.083741  0.125227
  8H   2s         0.006406 -0.004089 -0.012672  0.032350 -0.026419  0.070375
  9H   1s        -0.016772 -0.050657  0.062888  0.050580 -0.099029  0.077858
  9H   2s        -0.007656 -0.005903  0.009704  0.013870 -0.034689  0.051067
 10H   1s        -0.029972  0.005623  0.068659  0.082441  0.083537  0.125241
 10H   2s         0.006405 -0.004131  0.012670  0.032390  0.026312  0.070366
                     12        13        14        15        16        17   
                  -0.47136  -0.47082  -0.43050  -0.39601  -0.38516  -0.36588
                   2.00000   2.00000   2.00000   2.00000   2.00000   2.00000
                  --------  --------  --------  --------  --------  --------
  0C   1s         0.000203  0.059712  0.000011  0.009606  0.000000  0.000005
  0C   2s        -0.000415 -0.121824 -0.000052 -0.028878 -0.000001 -0.000032
  0C   1pz       -0.000984  0.000032  0.000095  0.000468 -0.186481  0.001158
  0C   1px       -0.198064 -0.014138  0.019356 -0.238761  0.000382  0.233037
  0C   1py       -0.167612  0.018039  0.016382  0.282028  0.000644  0.197334
  0C   3s        -0.000553 -0.162483 -0.000010 -0.017502  0.000007  0.000030
  0C   2pz       -0.000344  0.000016 -0.000161  0.000117 -0.107311  0.000415
  0C   2px       -0.069243 -0.007253 -0.032061 -0.058561  0.000227  0.083606
  0C   2py       -0.058603  0.008847 -0.027199  0.069272  0.000364  0.070814
  0C   1dz2       0.000006  0.001291 -0.000001 -0.004215  0.000019 -0.000001
  0C   1dxz      -0.000008  0.000045  0.000017 -0.000074 -0.005732  0.000018
  0C   1dyz       0.000020  0.000012 -0.000043 -0.000011  0.006763 -0.000045
  0C   1dx2y2    -0.005318  0.002201  0.011431 -0.003962  0.000035  0.011917
  0C   1dxy       0.000929  0.013090 -0.001914 -0.023702  0.000005 -0.001991
  1C   1s         0.008264 -0.051893 -0.019397  0.020724  0.000001 -0.001961
  1C   2s        -0.019523  0.104317  0.042346 -0.041872 -0.000001  0.010261
  1C   1pz        0.000232  0.000923 -0.000912  0.000108 -0.194660 -0.000970
  1C   1px        0.235896  0.092165  0.003893  0.184203  0.000411 -0.230655
  1C   1py       -0.076424  0.214510 -0.269925 -0.082763  0.000664 -0.143399
  1C   3s        -0.010530  0.141765  0.081033 -0.093526 -0.000012 -0.025778
  1C   2pz       -0.000003  0.000282 -0.000320  0.000060 -0.108947 -0.000242
  1C   2px        0.062936  0.019009 -0.021375  0.040771  0.000230 -0.083105
  1C   2py       -0.039158  0.070536 -0.080661 -0.008378  0.000368 -0.020161
  1C   1dz2      -0.000281 -0.003292  0.001974  0.000879  0.000061  0.002810
  1C   1dxz      -0.000013  0.000008 -0.000038 -0.000064  0.002150 -0.000002
  1C   1dyz      -0.000003  0.000084 -0.000032 -0.000026  0.009027 -0.000096
  1C   1dx2y2    -0.000818 -0.014379  0.000230 -0.003528  0.000026  0.017943
  1C   1dxy      -0.003639  0.007705 -0.009338 -0.015799 -0.000027 -0.008718
  2C   1s        -0.009870  0.051291 -0.015545 -0.025753 -0.000001 -0.005250
  2C   2s         0.017333 -0.105285  0.037707  0.057156  0.000001  0.003337
  2C   1pz        0.001037 -0.000455 -0.000434 -0.000112 -0.235987  0.000727
  2C   1px        0.036982 -0.124046 -0.285469 -0.184700  0.000489  0.162263
  2C   1py        0.281649 -0.057891  0.047503  0.078197  0.000806  0.113820
  2C   3s        -0.014752 -0.127488  0.039464  0.074452 -0.000004  0.048056
  2C   2pz        0.000440 -0.000104 -0.000150  0.000086 -0.135803  0.000193
  2C   2px        0.025562 -0.032359 -0.079972 -0.063136  0.000278  0.027688
  2C   2py        0.113121 -0.010066  0.005424  0.062725  0.000469  0.039146
  2C   1dz2       0.001581  0.001519  0.002239  0.000993  0.000077 -0.001475
  2C   1dxz       0.000004 -0.000037 -0.000053 -0.000004  0.011010  0.000052
  2C   1dyz      -0.000050  0.000053 -0.000013  0.000008  0.006268 -0.000066
  2C   1dx2y2     0.009873 -0.017345 -0.006006 -0.003071 -0.000001  0.022052
  2C   1dxy      -0.003310  0.001419 -0.009502  0.001828 -0.000050  0.000190
  3C   1s        -0.008608 -0.051839  0.019388  0.020731  0.000001  0.001953
  3C   2s         0.020210  0.104166 -0.042360 -0.041927 -0.000002 -0.010271
  3C   1pz        0.000756 -0.000667 -0.000390 -0.000554 -0.194636 -0.001069
  3C   1px       -0.037935 -0.226419 -0.265630  0.051259  0.000410 -0.179521
  3C   1py        0.244871 -0.057180  0.048314 -0.195355  0.000657 -0.203886
  3C   3s         0.011330  0.141679 -0.081142 -0.093412 -0.000002  0.025928
  3C   2pz        0.000173 -0.000181 -0.000201 -0.000136 -0.109040 -0.000340
  3C   2px       -0.028962 -0.072594 -0.083268  0.001448  0.000219 -0.033574
  3C   2py        0.068578 -0.007663 -0.007656 -0.041485  0.000367 -0.078706
  3C   1dz2       0.000262 -0.003295 -0.001974  0.000877 -0.000037 -0.002814
  3C   1dxz       0.000013  0.000054  0.000044 -0.000062 -0.009263  0.000060
  3C   1dyz       0.000004 -0.000030  0.000019 -0.000032 -0.000631 -0.000046
  3C   1dx2y2     0.000516  0.016099  0.003261 -0.001805  0.000017  0.019803
  3C   1dxy       0.003734  0.002590  0.008766 -0.016083  0.000032  0.002406
  4C   1s         0.010209  0.051220  0.015553 -0.025757 -0.000001  0.005256
  4C   2s        -0.018062 -0.105171 -0.037735  0.057155  0.000002 -0.003360
  4C   1pz        0.000562  0.000543 -0.000989  0.000575 -0.235984  0.000773
  4C   1px        0.284393  0.075628 -0.000207 -0.046664  0.000492  0.139006
  4C   1py       -0.009181  0.112930 -0.289388  0.195059  0.000815  0.141289
  4C   3s         0.014255 -0.127364 -0.039285  0.074741  0.000019 -0.048063
  4C   2pz        0.000265  0.000136 -0.000290  0.000146 -0.135728  0.000163
  4C   2px        0.115963  0.014733 -0.007937 -0.051320  0.000295  0.043337
  4C   2py        0.007000  0.030226 -0.079625  0.072663  0.000463  0.020821
  4C   1dz2      -0.001581  0.001521 -0.002238  0.000981 -0.000087  0.001471
  4C   1dxz       0.000027  0.000015  0.000040  0.000006 -0.007997  0.000013
  4C   1dyz      -0.000027 -0.000075  0.000045 -0.000016 -0.009819 -0.000095
  4C   1dx2y2     0.010530  0.016801 -0.002587  0.003506 -0.000016  0.020800
  4C   1dxy      -0.000107 -0.004299  0.010932  0.000732  0.000048 -0.007349
  5N   1s        -0.000162 -0.049297 -0.000007  0.027068  0.000001 -0.000002
  5N   2s         0.000389  0.112364  0.000011 -0.062733 -0.000001  0.000022
  5N   1pz       -0.001196  0.000035  0.000152  0.000236 -0.294491 -0.000806
  5N   1px       -0.240469 -0.015048  0.030943 -0.117388  0.000610 -0.162259
  5N   1py       -0.203486  0.019407  0.026200  0.138641  0.001008 -0.137404
  5N   3s         0.000384  0.166136  0.000037 -0.056441 -0.000014 -0.000107
  5N   2pz       -0.000291  0.000016  0.000022  0.000143 -0.172523 -0.000371
  5N   2px       -0.058649 -0.006953  0.004494 -0.070569  0.000371 -0.074728
  5N   2py       -0.049715  0.008836  0.003751  0.083587  0.000597 -0.063304
  5N   1dz2       0.000012  0.002423  0.000002 -0.004881 -0.000045  0.000003
  5N   1dxz       0.000017 -0.000026 -0.000019 -0.000039  0.013296  0.000020
  5N   1dyz      -0.000042 -0.000021  0.000048  0.000007 -0.015704 -0.000048
  5N   1dx2y2     0.011176 -0.000795 -0.012658 -0.002499 -0.000082  0.012891
  5N   1dxy      -0.001886 -0.004483  0.002120 -0.014863 -0.000013 -0.002158
  6H   1s        -0.000178 -0.052640 -0.000016  0.242277  0.000007 -0.000002
  6H   2s        -0.000079 -0.028605  0.000009  0.242071  0.000009 -0.000018
  7H   1s        -0.003384  0.189249 -0.134679 -0.036950  0.000000 -0.157249
  7H   2s         0.005968  0.134502 -0.122818 -0.029358  0.000003 -0.165648
  8H   1s         0.056408 -0.129857 -0.148781 -0.077352 -0.000001  0.137489
  8H   2s         0.037858 -0.089861 -0.132138 -0.077513 -0.000000  0.139870
  9H   1s         0.004622  0.189159  0.134712 -0.036966 -0.000002  0.157278
  9H   2s        -0.005170  0.134414  0.122795 -0.029420 -0.000005  0.165634
 10H   1s        -0.057290 -0.129502  0.148767 -0.077348 -0.000004 -0.137504
 10H   2s        -0.038394 -0.089602  0.132123 -0.077457 -0.000006 -0.139875
                     18        19        20        21        22        23   
                  -0.27683  -0.25907  -0.23854  -0.01995  -0.00752   0.09910
                   2.00000   2.00000   2.00000   0.00000   0.00000   0.00000
                  --------  --------  --------  --------  --------  --------
  0C   1s        -0.000001  0.000000 -0.001186  0.000001 -0.000000 -0.046979
  0C   2s         0.000001 -0.000000 -0.003280  0.000000 -0.000000  0.075030
  0C   1pz       -0.352457  0.000156  0.000047  0.369484 -0.000227  0.000252
  0C   1px        0.000735 -0.000001 -0.024431 -0.000770  0.000002 -0.131897
  0C   1py        0.001201 -0.000002  0.028837 -0.001259  0.000004  0.155767
  0C   3s         0.000002 -0.000006  0.117098 -0.000015  0.000023  0.706517
  0C   2pz       -0.239372  0.000060 -0.000026  0.479071 -0.000043  0.000595
  0C   2px        0.000508  0.000005  0.013301 -0.001000 -0.000006 -0.307681
  0C   2py        0.000820 -0.000001 -0.015556 -0.001637 -0.000004  0.363522
  0C   1dz2       0.000014  0.000124 -0.001531  0.000023 -0.000201  0.002244
  0C   1dxz      -0.004247  0.014380 -0.000027 -0.006752 -0.023355  0.000077
  0C   1dyz       0.005015  0.012170 -0.000004  0.007971 -0.019777  0.000021
  0C   1dx2y2     0.000026  0.000011 -0.001451  0.000041 -0.000019  0.003793
  0C   1dxy       0.000004 -0.000075 -0.008702  0.000006  0.000121  0.022724
  1C   1s         0.000000 -0.000000 -0.023221 -0.000000  0.000001 -0.039100
  1C   2s         0.000001 -0.000002  0.054478 -0.000000  0.000004  0.059008
  1C   1pz       -0.200854  0.293064 -0.000238 -0.165045 -0.317698  0.000651
  1C   1px        0.000419 -0.000612  0.104435  0.000343  0.000662  0.032360
  1C   1py        0.000687 -0.000999 -0.134251  0.000562  0.001084  0.171599
  1C   3s        -0.000006  0.000003  0.101349 -0.000007 -0.000012  0.635040
  1C   2pz       -0.141505  0.212449  0.000167 -0.225230 -0.415659  0.001387
  1C   2px        0.000304 -0.000446  0.131076  0.000460  0.000875  0.115537
  1C   2py        0.000471 -0.000719 -0.031868  0.000775  0.001406  0.333972
  1C   1dz2       0.000049 -0.000020  0.001783 -0.000064 -0.000043  0.001565
  1C   1dxz       0.015137  0.007263 -0.000017 -0.026745  0.011192 -0.000035
  1C   1dyz      -0.000999 -0.007722 -0.000039  0.005603 -0.014249 -0.000083
  1C   1dx2y2    -0.000035 -0.000041  0.004806  0.000075 -0.000072  0.011774
  1C   1dxy      -0.000050 -0.000008 -0.005915  0.000080 -0.000009 -0.015908
  2C   1s         0.000000 -0.000000  0.021346  0.000000 -0.000000 -0.037598
  2C   2s         0.000000  0.000000 -0.055003  0.000001 -0.000002  0.075066
  2C   1pz        0.124842  0.302340  0.000505 -0.212313  0.326722  0.000218
  2C   1px       -0.000260 -0.000632 -0.043478  0.000444 -0.000684  0.084798
  2C   1py       -0.000427 -0.001032  0.174421  0.000724 -0.001115  0.012794
  2C   3s        -0.000004  0.000007 -0.035750 -0.000001  0.000005  0.401630
  2C   2pz        0.093678  0.204941 -0.000108 -0.231049  0.406032  0.000535
  2C   2px       -0.000191 -0.000426 -0.007590  0.000469 -0.000843  0.232360
  2C   2py       -0.000327 -0.000701 -0.026604  0.000800 -0.001393  0.016634
  2C   1dz2      -0.000118  0.000033  0.001774 -0.000179 -0.000032  0.003048
  2C   1dxz      -0.000260 -0.006055 -0.000122 -0.003118  0.011649 -0.000029
  2C   1dyz      -0.019812  0.009260  0.000004 -0.028371 -0.012547  0.000029
  2C   1dx2y2    -0.000067  0.000044 -0.018176 -0.000090 -0.000067 -0.012577
  2C   1dxy       0.000042  0.000002 -0.022655  0.000070 -0.000013  0.002323
  3C   1s         0.000001  0.000000 -0.023232  0.000000 -0.000001 -0.039003
  3C   2s        -0.000002 -0.000002  0.054479 -0.000001  0.000004  0.059024
  3C   1pz       -0.201031 -0.292871 -0.000189 -0.164909  0.317661 -0.000373
  3C   1px        0.000421  0.000613  0.115197  0.000344 -0.000667 -0.174198
  3C   1py        0.000686  0.000999 -0.125146  0.000563 -0.001084 -0.003514
  3C   3s        -0.000010  0.000003  0.101742  0.000007  0.000009  0.632647
  3C   2pz       -0.141825 -0.212408 -0.000438 -0.224895  0.415757 -0.000918
  3C   2px        0.000286  0.000434  0.010199  0.000465 -0.000851 -0.347221
  3C   2py        0.000497  0.000730 -0.134475  0.000768 -0.001442 -0.057894
  3C   1dz2      -0.000094  0.000027  0.001774  0.000157  0.000035  0.001564
  3C   1dxz      -0.001521 -0.006425 -0.000034 -0.001127 -0.012204 -0.000078
  3C   1dyz      -0.015086  0.008453  0.000003  0.027312  0.013358  0.000023
  3C   1dx2y2    -0.000049  0.000042 -0.006471  0.000096  0.000071 -0.016297
  3C   1dxy       0.000037  0.000004 -0.004038 -0.000053  0.000013 -0.011202
  4C   1s        -0.000000 -0.000001  0.021359 -0.000000 -0.000000 -0.037594
  4C   2s         0.000000 -0.000001 -0.055013 -0.000000 -0.000004  0.074993
  4C   1pz        0.124630 -0.302447 -0.000100 -0.212591 -0.326590 -0.000334
  4C   1px       -0.000262  0.000631 -0.164930  0.000442  0.000682 -0.026528
  4C   1py       -0.000428  0.001034  0.071668  0.000726  0.001116 -0.081271
  4C   3s         0.000001  0.000014 -0.036330  0.000008 -0.000004  0.401443
  4C   2pz        0.093613 -0.204879  0.000064 -0.231317 -0.405765 -0.000892
  4C   2px       -0.000211  0.000432  0.027265  0.000482  0.000868 -0.055358
  4C   2py       -0.000308  0.000699  0.002682  0.000782  0.001365 -0.225687
  4C   1dz2       0.000053 -0.000015  0.001794  0.000094  0.000042  0.003052
  4C   1dxz       0.019587  0.008123 -0.000079  0.028493 -0.010465  0.000009
  4C   1dyz      -0.003015 -0.007490 -0.000101 -0.001595  0.013561 -0.000065
  4C   1dx2y2    -0.000052 -0.000042  0.009804 -0.000065  0.000069  0.012623
  4C   1dxy      -0.000061 -0.000012 -0.027331 -0.000094  0.000008 -0.001903
  5N   1s        -0.000000  0.000000 -0.068517 -0.000000  0.000001 -0.001105
  5N   2s        -0.000000  0.000001  0.147094 -0.000001  0.000002  0.013922
  5N   1pz        0.350044 -0.000143 -0.000654  0.378309 -0.000125  0.000085
  5N   1px       -0.000729 -0.000001  0.337197 -0.000789  0.000002 -0.041783
  5N   1py       -0.001193  0.000002 -0.398196 -0.001289  0.000001  0.049432
  5N   3s         0.000008 -0.000011  0.229286  0.000007 -0.000024 -0.007693
  5N   2pz        0.240222 -0.000165 -0.000485  0.414499 -0.000204  0.000177
  5N   2px       -0.000512 -0.000000  0.249908 -0.000863  0.000002 -0.088853
  5N   2py       -0.000827  0.000001 -0.295523 -0.001411 -0.000000  0.104596
  5N   1dz2       0.000036  0.000118  0.015465  0.000015  0.000185 -0.000540
  5N   1dxz      -0.010842  0.013693 -0.000003 -0.004386  0.021376  0.000033
  5N   1dyz       0.012819  0.011580 -0.000070  0.005200  0.018092  0.000016
  5N   1dx2y2     0.000067  0.000011  0.002365  0.000027  0.000017  0.001393
  5N   1dxy       0.000010 -0.000071  0.014006  0.000004 -0.000111  0.008267
  6H   1s         0.000000 -0.000000  0.045897  0.000000  0.000001 -0.079225
  6H   2s         0.000001  0.000002  0.064812  0.000007 -0.000003 -1.095737
  7H   1s         0.000002 -0.000000 -0.057293 -0.000001  0.000002 -0.060483
  7H   2s         0.000008 -0.000004 -0.114308 -0.000000  0.000014 -0.888795
  8H   1s        -0.000000 -0.000000 -0.083963  0.000002 -0.000002 -0.040651
  8H   2s        -0.000000 -0.000001 -0.104291  0.000010 -0.000002 -0.578982
  9H   1s        -0.000001 -0.000001 -0.057295  0.000000  0.000002 -0.060423
  9H   2s        -0.000002 -0.000004 -0.114145 -0.000007  0.000004 -0.886068
 10H   1s         0.000002 -0.000001 -0.083968 -0.000000 -0.000002 -0.040619
 10H   2s         0.000004 -0.000002 -0.104480 -0.000010 -0.000010 -0.577945
                     24        25        26        27        28        29   
                   0.14079   0.14654   0.15212   0.17965   0.18123   0.24094
                   0.00000   0.00000   0.00000   0.00000   0.00000   0.00000
                  --------  --------  --------  --------  --------  --------
  0C   1s        -0.000044 -0.000003  0.060898 -0.000757  0.092472 -0.039491
  0C   2s        -0.000113 -0.000002 -0.062559  0.001777 -0.193113  0.070275
  0C   1pz        0.000083 -0.300092 -0.000224  0.000327 -0.000129 -0.000346
  0C   1px        0.015937  0.000622  0.108609  0.065957  0.064101  0.177679
  0C   1py        0.013446  0.001027 -0.128114  0.057091 -0.074556 -0.209769
  0C   3s         0.002327  0.000087 -1.585409  0.005858 -0.740182  0.694971
  0C   2pz       -0.000946 -0.542065 -0.000414  0.001462 -0.001402 -0.001510
  0C   2px       -0.189857  0.001131  0.200994  0.285605  0.734967  0.779957
  0C   2py       -0.161223  0.001856 -0.237528  0.254036 -0.861682 -0.919743
  0C   1dz2      -0.000017 -0.000037  0.004494  0.000074 -0.008943  0.000180
  0C   1dxz      -0.000018  0.011065 -0.000010 -0.000023  0.000083  0.000020
  0C   1dyz       0.000045 -0.013075 -0.000025  0.000057  0.000073  0.000007
  0C   1dx2y2    -0.011928 -0.000068  0.000240 -0.015264  0.002159  0.000908
  0C   1dxy       0.001973 -0.000011  0.001524  0.002459  0.013510  0.005627
  1C   1s        -0.038736  0.000001 -0.003672  0.073864 -0.069139  0.017531
  1C   2s         0.042145 -0.000002 -0.012534 -0.112526  0.153204  0.021716
  1C   1pz        0.000881  0.302880 -0.000149 -0.000370  0.000377  0.000204
  1C   1px        0.094235 -0.000627 -0.054436 -0.059063 -0.007820  0.032418
  1C   1py        0.203008 -0.001032 -0.013742 -0.074145  0.116470  0.039750
  1C   3s         0.915328 -0.000040  0.239545 -1.317673  0.447956 -0.801315
  1C   2pz        0.002154  0.537996 -0.001430 -0.002185  0.004168  0.001719
  1C   2px        0.098406 -0.001097 -0.494566 -0.427210  0.192875  0.344429
  1C   2py        0.571741 -0.001804 -0.123154 -0.380321  1.103345  0.292943
  1C   1dz2      -0.001630  0.000121 -0.001170 -0.001563  0.009486 -0.002377
  1C   1dxz       0.000028  0.006653 -0.000002 -0.000023 -0.000061  0.000114
  1C   1dyz      -0.000031  0.016446  0.000024 -0.000032 -0.000015 -0.000039
  1C   1dx2y2     0.011461  0.000042 -0.004379  0.005172 -0.012305  0.025034
  1C   1dxy      -0.000499 -0.000057  0.000854 -0.011704 -0.000495  0.015532
  2C   1s        -0.025870  0.000004 -0.076312 -0.073724  0.029065  0.037866
  2C   2s         0.029815 -0.000004  0.125237  0.123852 -0.079673 -0.027110
  2C   1pz        0.000574 -0.288664  0.000069  0.000511 -0.000253  0.000772
  2C   1px        0.205204  0.000597  0.162622  0.117246 -0.052032  0.154172
  2C   1py        0.042786  0.000986 -0.075592  0.079544 -0.042327  0.130759
  2C   3s         0.694422 -0.000056  1.081676  1.136096  0.222366 -0.572548
  2C   2pz        0.000968 -0.483965  0.001186  0.002756 -0.002354  0.004642
  2C   2px        0.474000  0.000950  0.627788  0.525135 -0.673396  0.530915
  2C   2py       -0.006666  0.001670 -0.030627  0.488106 -0.278224  1.038323
  2C   1dz2      -0.002264 -0.000089  0.006494  0.004536 -0.008360 -0.009912
  2C   1dxz      -0.000011 -0.018116 -0.000064  0.000022  0.000021  0.000078
  2C   1dyz       0.000062 -0.003938 -0.000093 -0.000045  0.000049  0.000144
  2C   1dx2y2    -0.013024  0.000024  0.006405  0.008772 -0.001118 -0.012626
  2C   1dxy       0.002334  0.000070 -0.015471  0.005924 -0.002073  0.020098
  3C   1s         0.038805  0.000001 -0.003640 -0.072809 -0.070269  0.017389
  3C   2s        -0.042271  0.000001 -0.012670  0.110392  0.154901  0.021863
  3C   1pz        0.000652  0.302877  0.000238 -0.000328 -0.000146 -0.000177
  3C   1px        0.216036 -0.000631  0.023028 -0.081346 -0.114875 -0.044378
  3C   1py        0.059363 -0.001033  0.051421 -0.046456  0.026085 -0.025111
  3C   3s        -0.916900 -0.000015  0.238337  1.310715  0.468444 -0.796076
  3C   2pz        0.001216  0.538031  0.002038 -0.002117 -0.002399 -0.001708
  3C   2px        0.579779 -0.001096  0.203332 -0.427751 -1.128369 -0.342595
  3C   2py        0.000619 -0.001867  0.467672 -0.358456 -0.011429 -0.292899
  3C   1dz2       0.001639 -0.000085 -0.001164  0.001401  0.009510 -0.002394
  3C   1dxz       0.000006 -0.017319  0.000011  0.000045 -0.000025  0.000047
  3C   1dyz      -0.000054 -0.003844 -0.000010 -0.000018 -0.000105  0.000125
  3C   1dx2y2     0.011037  0.000023  0.004457  0.008485  0.011595 -0.018593
  3C   1dxy      -0.003243  0.000067 -0.000607  0.009449 -0.004293  0.022820
  4C   1s         0.026148  0.000003 -0.076153  0.073351  0.030154  0.037882
  4C   2s        -0.030224 -0.000010  0.125018 -0.122633 -0.081611 -0.027156
  4C   1pz        0.000822 -0.288806 -0.000492  0.000546  0.000264 -0.000778
  4C   1px        0.075974  0.000601  0.047999  0.096839  0.051760 -0.154147
  4C   1py        0.195845  0.000993 -0.172165  0.101928  0.045936 -0.130725
  4C   3s        -0.698553 -0.000023  1.078038 -1.141088  0.206758 -0.571861
  4C   2pz        0.001758 -0.483887 -0.002297  0.002631  0.002960 -0.003523
  4C   2px        0.072297  0.001039 -0.073785  0.561369  0.393389 -1.107522
  4C   2py        0.470484  0.001647 -0.622046  0.428266  0.626387 -0.356546
  4C   1dz2       0.002242  0.000126  0.006519 -0.004415 -0.008446 -0.009929
  4C   1dxz      -0.000028  0.006870 -0.000089  0.000001  0.000023  0.000125
  4C   1dyz       0.000036  0.017223 -0.000026 -0.000013  0.000043  0.000027
  4C   1dx2y2    -0.013076  0.000045 -0.011149  0.006388  0.000469  0.018523
  4C   1dxy       0.002068 -0.000058 -0.012563 -0.008400 -0.002478  0.014925
  5N   1s        -0.000069 -0.000001  0.050582 -0.000140  0.011308 -0.115881
  5N   2s         0.000147  0.000003 -0.120547 -0.000270  0.045749  0.177575
  5N   1pz        0.000126  0.304392 -0.000095 -0.000347  0.000051  0.000189
  5N   1px        0.024889 -0.000635  0.055479 -0.070571 -0.027265 -0.099323
  5N   1py        0.021129 -0.001033 -0.065522 -0.060054  0.031176  0.117407
  5N   3s         0.000456  0.000003 -0.385757  0.006904 -0.776848  2.263593
  5N   2pz       -0.000413  0.420645  0.000045 -0.000136 -0.000356  0.000956
  5N   2px       -0.082472 -0.000853 -0.017131 -0.029969  0.182607 -0.485439
  5N   2py       -0.069878 -0.001423  0.018748 -0.022312 -0.216292  0.576972
  5N   1dz2       0.000001  0.000004 -0.004859 -0.000065  0.008565 -0.010577
  5N   1dxz       0.000019 -0.000936  0.000086 -0.000012 -0.000057  0.000053
  5N   1dyz      -0.000048  0.001116  0.000056  0.000032 -0.000061  0.000069
  5N   1dx2y2     0.012684  0.000005  0.003081 -0.008320 -0.001205  0.000559
  5N   1dxy      -0.002153  0.000000  0.018150  0.001439 -0.006816  0.003831
  6H   1s         0.000050 -0.000000  0.014949 -0.000328  0.044065 -0.000105
  6H   2s        -0.000207 -0.000039  1.059219 -0.012615  1.516143  1.076594
  7H   1s        -0.041149 -0.000001  0.020915  0.011552 -0.045261 -0.039697
  7H   2s        -1.153909 -0.000022  0.223162  1.067128 -1.377439 -0.219820
  8H   1s        -0.041569  0.000005 -0.050695 -0.031471  0.040685  0.023917
  8H   2s        -0.970362  0.000078 -1.247381 -1.205357  0.690405 -0.474596
  9H   1s         0.041213  0.000002  0.020973 -0.010862 -0.045472 -0.039529
  9H   2s         1.154295  0.000033  0.224353 -1.045816 -1.394633 -0.218310
 10H   1s         0.041820  0.000001 -0.050587  0.030951  0.041218  0.023842
 10H   2s         0.974583  0.000027 -1.243216  1.195623  0.709444 -0.477136
                     30        31        32        33        34        35   
                   0.29226   0.31871   0.32826   0.45051   0.46244   0.51970
                   0.00000   0.00000   0.00000   0.00000   0.00000   0.00000
                  --------  --------  --------  --------  --------  --------
  0C   1s        -0.000079  0.074876  0.000835 -0.000368 -0.079936 -0.000001
  0C   2s         0.000217 -0.041053 -0.000423 -0.000640 -0.096008  0.000000
[...]
 2 C  dxz             0.0       0.0       0.0       0.0      19.8       0.0
 2 C  dyz             0.0       0.0       0.0       0.0       0.2       0.0
 2 C  dx2y2           0.7       0.1      12.6       5.2       0.0       0.9
 2 C  dxy             2.5       0.2       0.8       8.8       0.0      12.4
 3 C  s               6.2       1.8       0.6       0.2       0.0       5.5
 3 C  pz              0.0       0.0       0.0       0.0       1.0       0.0
 3 C  px              2.3       2.1       0.7       0.2       0.0       2.4
 3 C  py              0.1       1.1       0.5       1.0       0.0       0.1
 3 C  dz2             6.8       0.2       3.8       0.1       0.0      11.1
 3 C  dxz             0.0       0.0       0.0       0.0      20.4       0.0
 3 C  dyz             0.0       0.0       0.0       0.0       0.4       0.0
 3 C  dx2y2           0.9      10.4      12.5       3.8       0.0       1.2
 3 C  dxy             0.0       0.7       2.6      11.1       0.0       0.6
 4 C  s               0.6       0.4       0.5       1.3       0.0       0.3
 4 C  pz              0.0       0.0       0.0       0.0       1.3       0.0
 4 C  px              0.3       0.4       0.4       0.5       0.0       0.6
 4 C  py              0.1       0.6       0.4       0.9       0.0       0.4
 4 C  dz2             5.3       3.1       3.7       1.8       0.0       0.3
 4 C  dyz             0.0       0.0       0.0       0.0      19.9       0.0
 4 C  dx2y2           0.2       0.2       9.3       9.7       0.0       0.1
 4 C  dxy             2.5       0.1       4.1       4.3       0.0      13.2
 5 N  s               6.5      10.8       0.0       1.8       0.0       0.0
 5 N  px              0.2       0.7       0.9       0.5       0.0       1.4
 5 N  py              0.3       1.0       0.7       0.7       0.0       1.0
 5 N  dz2             3.4       0.1       0.0       0.1       0.0       0.0
 5 N  dxz             0.0       0.0       0.0       0.0       5.0       0.0
 5 N  dyz             0.0       0.0       0.0       0.0       3.6       0.0
 5 N  dx2y2           0.5       0.1       0.0       0.0       0.0       5.8
 5 N  dxy            14.9       3.2       0.0       0.0       0.0       0.2
 6 H  s               3.5       3.8       0.0       1.9       0.0       0.0
 7 H  s               0.2       4.6       4.9       0.0       0.0       0.2
 8 H  s               0.0       0.5       4.4       0.8       0.0       0.4
 9 H  s               0.2       4.6       4.9       0.0       0.0       0.2
10 H  s               0.0       0.5       4.4       0.8       0.0       0.4

                     78        79        80        81        82        83   
                   2.17368   2.18167   2.19887   2.29587   2.32074   2.38411
                   0.00000   0.00000   0.00000   0.00000   0.00000   0.00000
                  --------  --------  --------  --------  --------  --------
 0 C  s               0.0       0.0       3.3       0.0       0.0       0.0
 0 C  pz              0.0       2.3       0.0       0.1       0.0       0.7
 0 C  px              0.7       0.0       1.1       0.0       0.0       0.0
 0 C  py              0.5       0.0       1.5       0.0       0.0       0.0
 0 C  dz2             0.0       0.0      11.2       0.0       0.0       0.0
 0 C  dxz             0.0      13.8       0.0       0.9      21.8       2.8
 0 C  dyz             0.0      19.3       0.0       1.3      15.7       3.9
 0 C  dx2y2           2.2       0.0       0.1       0.0       0.0       0.0
 0 C  dxy             0.1       0.0       5.1       0.0       0.0       0.0
 1 C  s               0.6       0.0       0.5       0.0       0.0       0.0
 1 C  pz              0.0       0.5       0.0       0.8       0.5       0.2
 1 C  px              0.3       0.0       1.6       0.0       0.0       0.0
 1 C  py              1.2       0.0       0.1       0.0       0.0       0.0
 1 C  dz2             5.6       0.0       4.9       0.0       0.0       0.0
 1 C  dxz             0.0      17.3       0.0       5.4      12.6       6.3
 1 C  dyz             0.0       2.4       0.0      17.9       0.0       1.6
 1 C  dx2y2           0.4       0.0       0.0       0.0       0.0       0.0
 1 C  dxy             4.8       0.0       0.4       0.0       0.0       0.0
 2 C  s               5.4       0.0       1.2       0.0       0.0       0.0
 2 C  pz              0.0       0.2       0.0       0.6       0.4       0.7
 2 C  px              2.9       0.0       0.5       0.0       0.0       0.0
 2 C  py              0.4       0.0       1.3       0.0       0.0       0.0
 2 C  dz2            16.5       0.0       9.9       0.0       0.0       0.0
 2 C  dxz             0.0       2.1       0.0      10.1       0.2       7.4
 2 C  dyz             0.0       1.8       0.0      13.6       5.5      13.2
 2 C  dx2y2           1.4       0.0       3.9       0.0       0.0       0.0
 2 C  dxy             2.7       0.0       1.8       0.0       0.0       0.0
 3 C  s               0.6       0.0       0.6       0.0       0.0       0.0
 3 C  pz              0.0       0.5       0.0       0.8       0.5       0.2
 3 C  px              1.2       0.0       0.1       0.0       0.0       0.0
 3 C  py              0.3       0.0       1.7       0.0       0.0       0.0
 3 C  dz2             5.6       0.0       4.9       0.0       0.0       0.0
 3 C  dxz             0.0       4.9       0.0      14.4       0.6       2.8
 3 C  dyz             0.0      14.8       0.0       9.0      12.1       5.2
 3 C  dx2y2           1.6       0.0       0.1       0.0       0.0       0.0
 3 C  dxy             3.5       0.0       0.3       0.0       0.0       0.0
 4 C  s               5.4       0.0       1.2       0.0       0.0       0.0
 4 C  pz              0.0       0.2       0.0       0.6       0.4       0.7
 4 C  px              0.5       0.0       1.3       0.0       0.0       0.0
 4 C  py              2.8       0.0       0.5       0.0       0.0       0.0
 4 C  dz2            16.5       0.0       9.9       0.0       0.0       0.0
 4 C  dxz             0.0       2.4       0.0       9.7       5.7      16.2
 4 C  dyz             0.0       1.5       0.0      14.0       0.0       4.4
 4 C  dx2y2           2.7       0.0       5.4       0.0       0.0       0.0
 4 C  dxy             1.3       0.0       0.4       0.0       0.0       0.0
 5 N  s               0.0       0.0       8.6       0.0       0.0       0.0
 5 N  pz              0.0       0.9       0.0       0.2       0.0       2.9
 5 N  px              3.1       0.0       1.0       0.0       0.0       0.0
 5 N  py              2.2       0.0       1.4       0.0       0.0       0.0
 5 N  dz2             0.0       0.0       7.6       0.0       0.0       0.0
 5 N  dxz             0.0       6.3       0.0       0.3      13.9      12.9
 5 N  dyz             0.0       8.8       0.0       0.4      10.0      18.0
 5 N  dx2y2           5.9       0.0       0.2       0.0       0.0       0.0
 5 N  dxy             0.2       0.0       5.9       0.0       0.0       0.0
 6 H  s               0.0       0.0       0.3       0.0       0.0       0.0
 7 H  s               0.2       0.0       0.1       0.0       0.0       0.0
 8 H  s               0.2       0.0       0.0       0.0       0.0       0.0
 9 H  s               0.2       0.0       0.1       0.0       0.0       0.0
10 H  s               0.2       0.0       0.0       0.0       0.0       0.0

                     84        85        86        87        88        89   
                   2.52207   2.54470   2.65008   2.66213   2.69295   2.71615
                   0.00000   0.00000   0.00000   0.00000   0.00000   0.00000
                  --------  --------  --------  --------  --------  --------
 0 C  s               3.4       0.0       6.3       2.5       0.0       0.0
 0 C  px              0.2       0.4       0.7       0.1       0.0       1.7
 0 C  py              0.2       0.3       0.9       0.1       0.0       1.3
 0 C  dz2            10.9       0.0      11.6       8.3       0.0       0.0
 0 C  dxz             0.0       0.0       0.0       0.0       6.6       0.0
 0 C  dyz             0.0       0.0       0.0       0.0       4.7       0.0
 0 C  dx2y2           0.1       4.2       0.1       0.2       0.0       0.2
 0 C  dxy             2.6       0.1       4.7       8.1       0.0       0.0
 1 C  s               1.0       4.8       1.0       3.8       0.0       1.0
 1 C  px              0.1       0.0       1.0       0.7       0.0       0.3
 1 C  py              0.2       1.0       0.2       0.5       0.0       0.5
 1 C  dz2             3.2      14.2       4.3       7.9       0.0       1.2
 1 C  dxz             0.0       0.0       0.0       0.0      11.3       0.0
 1 C  dyz             0.0       0.0       0.0       0.0       2.2       0.0
 1 C  dx2y2           0.0       2.0       2.3       0.4       0.0      13.9
 1 C  dxy             0.9       0.0      12.9       4.7       0.0       4.0
 2 C  s               1.3       4.8       0.2       1.2       0.0       0.2
 2 C  px              0.1       0.8       0.2       0.5       0.0       0.1
 2 C  py              1.3       0.1       1.8       1.8       0.0       0.8
 2 C  dz2             3.7      13.6       1.9       1.3       0.0       1.1
 2 C  dxz             0.0       0.0       0.0       0.0       0.4       0.0
 2 C  dyz             0.0       0.0       0.0       0.0      18.7       0.0
 2 C  dx2y2           0.7       1.6       0.4       8.3       0.0      17.6
 2 C  dxy             6.3       1.0       4.3       0.0       0.0       1.8
 3 C  s               1.0       4.8       1.0       3.8       0.0       1.0
 3 C  px              0.3       1.0       0.1       0.5       0.0       0.4
 3 C  py              0.0       0.0       1.1       0.7       0.0       0.3
 3 C  dz2             3.3      14.2       4.3       7.9       0.0       1.2
 3 C  dxz             0.0       0.0       0.0       0.0       0.8       0.0
 3 C  dyz             0.0       0.0       0.0       0.0      12.6       0.0
 3 C  dx2y2           0.1       1.8       0.1       0.0       0.0      17.5
 3 C  dxy             0.8       0.1      15.1       5.0       0.0       0.5
 4 C  s               1.3       4.8       0.2       1.2       0.0       0.2
 4 C  px              1.4       0.0       1.6       1.4       0.0       0.8
 4 C  py              0.0       0.8       0.3       0.9       0.0       0.1
 4 C  dz2             3.7      13.7       1.9       1.3       0.0       1.1
 4 C  dxz             0.0       0.0       0.0       0.0      17.3       0.0
 4 C  dyz             0.0       0.0       0.0       0.0       1.8       0.0
 4 C  dx2y2           0.0       2.3       1.6       7.5       0.0      12.5
 4 C  dxy             7.0       0.3       3.1       0.8       0.0       6.9
 5 N  s              12.2       0.0       5.0       1.2       0.0       0.0
 5 N  px              1.4       0.3       0.5       0.2       0.0       1.3
 5 N  py              2.0       0.2       0.7       0.2       0.0       0.9
 5 N  dz2            24.5       0.0       5.4       0.0       0.0       0.0
 5 N  dxz             0.0       0.0       0.0       0.0      13.8       0.0
 5 N  dyz             0.0       0.0       0.0       0.0       9.9       0.0
 5 N  dx2y2           0.0       2.5       0.0       0.4       0.0       5.6
 5 N  dxy             1.7       0.1       0.6      14.8       0.0       0.2
 6 H  s               1.3       0.0       1.7       0.1       0.0       0.0
 7 H  s               0.3       1.1       0.6       0.0       0.0       0.9
 8 H  s               0.7       1.0       0.1       0.9       0.0       1.1
 9 H  s               0.3       1.1       0.6       0.0       0.0       0.9
10 H  s               0.7       1.0       0.1       0.9       0.0       1.1

                     90        91        92        93   
                   2.77450   2.78331   3.04533   3.38449
                   0.00000   0.00000   0.00000   0.00000
                  --------  --------  --------  --------
 0 C  s               1.2       0.0       0.0       1.0
 0 C  px              0.2       2.1       1.4       0.0
 0 C  py              0.3       1.5       1.0       0.0
 0 C  dz2             0.1       0.0       0.0       0.8
 0 C  dx2y2           0.3      28.1       6.8       0.4
 0 C  dxy            12.8       0.8       0.2      12.6
 1 C  s               0.5       1.0       0.0       1.2
 1 C  px              1.9       2.7       2.0       0.0
 1 C  py              1.0       0.0       0.4       0.1
 1 C  dz2             0.6       0.1       0.0       0.8
 1 C  dx2y2          10.6       1.7       5.0       6.6
 1 C  dxy             0.0       9.9       3.7       6.9
 2 C  s               2.2       3.3       0.6       1.4
 2 C  px              0.4       0.9       0.0       0.0
 2 C  py              0.6       0.3       4.5       0.0
 2 C  dz2             3.5       0.7       0.0       1.2
 2 C  dx2y2           0.2       2.1       1.9      12.2
 2 C  dxy            11.4       0.4      10.4       2.2
 3 C  s               0.5       1.0       0.0       1.2
 3 C  px              0.6       0.1       0.1       0.1
 3 C  py              2.4       2.6       2.3       0.0
 3 C  dz2             0.6       0.1       0.0       0.8
 3 C  dx2y2           9.4       0.0       2.2      10.7
 3 C  dxy             1.2      11.5       6.5       2.7
 4 C  s               2.3       3.3       0.6       1.4
 4 C  px              0.5       0.5       4.4       0.0
 4 C  py              0.4       0.8       0.1       0.0
 4 C  dz2             3.5       0.7       0.0       1.2
 4 C  dx2y2           2.2       2.5       5.5       7.9
 4 C  dxy             9.3       0.0       6.8       6.5
 5 N  s               2.6       0.0       0.0       2.0
 5 N  px              0.0       2.0       3.4       0.1
 5 N  py              0.1       1.4       2.5       0.1
 5 N  dz2             6.1       0.0       0.0       1.2
 5 N  dx2y2           0.2      16.8      26.8       0.4
 5 N  dxy             7.8       0.5       0.7      13.7
 6 H  s               0.9       0.0       0.0       0.5
 7 H  s               0.6       0.2       0.0       0.6
 8 H  s               0.1       0.1       0.0       0.4
 9 H  s               0.6       0.2       0.0       0.6
10 H  s               0.1       0.1       0.0       0.4


                      *****************************
                      * MAYER POPULATION ANALYSIS *
                      *****************************

  NA   - Mulliken gross atomic population
  ZA   - Total nuclear charge
  QA   - Mulliken gross atomic charge
  VA   - Mayer's total valence
  BVA  - Mayer's bonded valence
  FA   - Mayer's free valence

  ATOM       NA         ZA         QA         VA         BVA        FA
  0 C      6.1043     6.0000    -0.1043     3.9463     3.9463    -0.0000
  1 C      6.1303     6.0000    -0.1303     3.9114     3.9114    -0.0000
  2 C      5.9956     6.0000     0.0044     3.9410     3.9410    -0.0000
  3 C      6.1306     6.0000    -0.1306     3.9111     3.9111     0.0000
  4 C      5.9954     6.0000     0.0046     3.9410     3.9410     0.0000
  5 N      7.3411     7.0000    -0.3411     3.0431     3.0431     0.0000
  6 H      0.8574     1.0000     0.1426     0.9333     0.9333     0.0000
  7 H      0.8633     1.0000     0.1367     0.9379     0.9379    -0.0000
  8 H      0.8595     1.0000     0.1405     0.9338     0.9338    -0.0000
  9 H      0.8630     1.0000     0.1370     0.9378     0.9378     0.0000
 10 H      0.8596     1.0000     0.1404     0.9338     0.9338     0.0000

  Mayer bond orders larger than 0.1
B(  0-C ,  1-C ) :   1.4559 B(  0-C ,  3-C ) :   1.4560 B(  0-C ,  6-H ) :   0.9287 
B(  1-C ,  2-C ) :   1.4210 B(  1-C ,  4-C ) :   0.1029 B(  1-C ,  7-H ) :   0.9264 
B(  2-C ,  3-C ) :   0.1029 B(  2-C ,  5-N ) :   1.4591 B(  2-C ,  8-H ) :   0.9327 
B(  3-C ,  4-C ) :   1.4207 B(  3-C ,  9-H ) :   0.9263 B(  4-C ,  5-N ) :   1.4594 
B(  4-C , 10-H ) :   0.9326 

-------
TIMINGS
-------

Total SCF time: 0 days 0 hours 0 min 8 sec 

Total time                  ....       8.140 sec
Sum of individual times     ....       7.886 sec  ( 96.9%)

Fock matrix formation       ....       6.764 sec  ( 83.1%)
  XC integration            ....       1.410 sec  ( 20.8% of F)
    Basis function eval.    ....       0.545 sec  ( 38.7% of XC)
    Density eval.           ....       0.334 sec  ( 23.7% of XC)
    XC-Functional eval.     ....       0.124 sec  (  8.8% of XC)
    XC-Potential eval.      ....       0.322 sec  ( 22.8% of XC)
Diagonalization             ....       0.001 sec  (  0.0%)
Density matrix formation    ....       0.001 sec  (  0.0%)
Population analysis         ....       0.023 sec  (  0.3%)
Initial guess               ....       0.003 sec  (  0.0%)
Orbital Transformation      ....       0.000 sec  (  0.0%)
Orbital Orthonormalization  ....       0.001 sec  (  0.0%)
DIIS solution               ....       0.000 sec  (  0.0%)
SOSCF solution              ....       0.005 sec  (  0.1%)
Grid generation             ....       1.089 sec  ( 13.4%)

-------------------------   --------------------
FINAL SINGLE POINT ENERGY      -248.124792069228
-------------------------   --------------------

                                *** OPTIMIZATION RUN DONE ***

                            ***************************************
                            *     ORCA property calculations      *
                            ***************************************

                                    ---------------------
                                    Active property flags
                                    ---------------------
   (+) Dipole Moment


------------------------------------------------------------------------------
                       ORCA ELECTRIC PROPERTIES CALCULATION
------------------------------------------------------------------------------

Dipole Moment Calculation                       ... on
Quadrupole Moment Calculation                   ... off
Polarizability Calculation                      ... off
GBWName                                         ... /Users/lailaal-madhagi/Desktop/Testing_XAS_Analysis_code/Pyridine//Results_dir_Pyridine_geom_element_N_2019-11-27_20-35-22//GTE1_Pyridine_geom_2019-11-27_20-35-35//opt.gbw
Electron density file                           ... /Users/lailaal-madhagi/Desktop/Testing_XAS_Analysis_code/Pyridine//Results_dir_Pyridine_geom_element_N_2019-11-27_20-35-22//GTE1_Pyridine_geom_2019-11-27_20-35-35//opt.scfp.tmp
The origin for moment calculation is the CENTER OF MASS  = (-1.641706, -0.752804 -0.010271)

-------------
DIPOLE MOMENT
-------------
                                X             Y             Z
Electronic contribution:      0.87150      -1.02885      -0.00169
Nuclear contribution   :     -1.42646       1.68481       0.00277
                        -----------------------------------------
Total Dipole Moment    :     -0.55496       0.65596       0.00108
                        -----------------------------------------
Magnitude (a.u.)       :      0.85923
Magnitude (Debye)      :      2.18399



--------------------
Rotational spectrum 
--------------------
 
Rotational constants in cm-1:     0.200995     0.193366     0.098553 
Rotational constants in MHz :  6025.687848  5796.966170  2954.557289 

 Dipole components along the rotational axes: 
x,y,z [a.u.] :    -0.859229     0.000743     0.000003 
x,y,z [Debye]:    -2.183986     0.001888     0.000007 

 

Timings for individual modules:

Sum of individual times         ...      109.844 sec (=   1.831 min)
GTO integral calculation        ...        2.853 sec (=   0.048 min)   2.6 %
SCF iterations                  ...       69.577 sec (=   1.160 min)  63.3 %
SCF Gradient evaluation         ...       35.919 sec (=   0.599 min)  32.7 %
Geometry relaxation             ...        1.494 sec (=   0.025 min)   1.4 %
                             ****ORCA TERMINATED NORMALLY****
TOTAL RUN TIME: 0 days 0 hours 1 minutes 51 seconds 315 msec
