
                                 *****************
                                 * O   R   C   A *
                                 *****************

           --- An Ab Initio, DFT and Semiempirical electronic structure package ---

                  #######################################################
                  #                        -***-                        #
                  #          Department of theory and spectroscopy      #
                  #               Directorship: Frank Neese             #
                  #        Max Planck Institute fuer Kohlenforschung    #
                  #                Kaiser Wilhelm Platz 1               #
                  #                 D-45470 Muelheim/Ruhr               #
                  #                      Germany                        #
                  #                                                     #
                  #                  All rights reserved                #
                  #                        -***-                        #
                  #######################################################


                         Program Version 4.1.0  - RELEASE  -


 With contributions from (in alphabetic order):
   Daniel Aravena         : Magnetic Properties
   Michael Atanasov       : Ab Initio Ligand Field Theory
   Alexander A. Auer      : GIAO ZORA
   Ute Becker             : Parallelization
   Giovanni Bistoni       : ED, Open-shell LED
   Martin Brehm           : Molecular dynamics
   Dmytro Bykov           : SCF Hessian
   Vijay G. Chilkuri      : MRCI spin determinant printing
   Dipayan Datta          : RHF DLPNO-CCSD density
   Achintya Kumar Dutta   : EOM-CC, STEOM-CC
   Dmitry Ganyushin       : Spin-Orbit,Spin-Spin,Magnetic field MRCI
   Miquel Garcia          : C-PCM Hessian
   Yang Guo               : DLPNO-NEVPT2, CIM, IAO-localization
   Andreas Hansen         : Spin unrestricted coupled pair/coupled cluster methods
   Benjamin Helmich-Paris : CASSCF linear response (MC-RPA)
   Lee Huntington         : MR-EOM, pCC
   Robert Izsak           : Overlap fitted RIJCOSX, COSX-SCS-MP3, EOM
   Christian Kollmar      : KDIIS, OOCD, Brueckner-CCSD(T), CCSD density
   Simone Kossmann        : Meta GGA functionals, TD-DFT gradient, OOMP2, MP2 Hessian
   Martin Krupicka        : AUTO-CI
   Lucas Lang             : DCDCAS
   Dagmar Lenk            : GEPOL surface, SMD
   Dimitrios Liakos       : Extrapolation schemes; parallel MDCI
   Dimitrios Manganas     : ROCIS; embedding schemes
   Dimitrios Pantazis     : SARC Basis sets
   Taras Petrenko         : DFT Hessian,TD-DFT gradient, ASA, ECA, R-Raman, ABS, FL, XAS/XES, NRVS
   Peter Pinski           : DLPNO-MP2, DLPNO-MP2 Gradient
   Christoph Reimann      : Effective Core Potentials
   Marius Retegan         : Local ZFS, SOC
   Christoph Riplinger    : Optimizer, TS searches, QM/MM, DLPNO-CCSD(T), (RO)-DLPNO pert. Triples
   Tobias Risthaus        : Range-separated hybrids, TD-DFT gradient, RPA, STAB
   Michael Roemelt        : Restricted open shell CIS
   Masaaki Saitow         : Open-shell DLPNO
   Barbara Sandhoefer     : DKH picture change effects
   Avijit Sen             : IP-ROCIS
   Kantharuban Sivalingam : CASSCF convergence, NEVPT2, FIC-MRCI
   Bernardo de Souza      : ESD, SOC TD-DFT
   Georgi Stoychev        : AutoAux, RI-MP2 NMR
   Willem Van den Heuvel  : Paramagnetic NMR
   Boris Wezisla          : Elementary symmetry handling
   Frank Wennmohs         : Technical directorship


 We gratefully acknowledge several colleagues who have allowed us to
 interface, adapt or use parts of their codes:
   Stefan Grimme, W. Hujo, H. Kruse,             : VdW corrections, initial TS optimization,
                  C. Bannwarth                     DFT functionals, gCP, sTDA/sTD-DF
   Ed Valeev                                     : LibInt (2-el integral package), F12 methods
   Garnet Chan, S. Sharma, J. Yang, R. Olivares  : DMRG
   Ulf Ekstrom                                   : XCFun DFT Library
   Mihaly Kallay                                 : mrcc  (arbitrary order and MRCC methods)
   Andreas Klamt, Michael Diedenhofen            : otool_cosmo (COSMO solvation model)
   Jiri Pittner, Ondrej Demel                    : Mk-CCSD
   Frank Weinhold                                : gennbo (NPA and NBO analysis)
   Christopher J. Cramer and Donald G. Truhlar   : smd solvation model
   Lars Goerigk                                  : TD-DFT with DH, B97 family of functionals
   V. Asgeirsson, H. Jonsson                     : NEB implementation
   FAccTs GmbH                                   : IRC, NEB, NEB-TS, Multilevel


 Your calculation uses the libint2 library for the computation of 2-el integrals
 For citations please refer to: http://libint.valeyev.net

 This ORCA versions uses:
   CBLAS   interface :  Fast vector & matrix operations
   LAPACKE interface :  Fast linear algebra routines
   SCALAPACK package :  Parallel linear algebra routines




***************************************
The coordinates will be read from file: /Users/lailaal-madhagi/Desktop/Testing_XAS_Analysis_code/Pyridine//Results_dir_Pyridine_geom_element_N_2019-11-27_20-35-22//GTE1_Pyridine_geom_2019-11-27_20-35-35//opt.xyz
***************************************


----- Orbital basis set information -----
Your calculation utilizes the basis: 6-31G*
   H-He, Li-Ne : W. J. Hehre, R. Ditchfield and J.A. Pople, J. Chem. Phys. 56, 2257 (1972).
                 Note: He and Ne are unpublished basis sets taken from the Gaussian program.
                 Note: Li and B from J. D. Dill and J. A. Pople, J. Chem. Phys. 62, 2921 (1975).
   Na - Ar     : M. M. Francl, W. J. Pietro, W. J. Hehre, J. S. Binkley, M. S. Gordon, 
                 D. J. DeFrees and J. A. Pople, J. Chem. Phys. 77, 3654 (1982).
   K - Zn      : V. A. Rassolov, J. A. Pople, M. A. Ratner, and T. L. Windus, J. Chem. Phys. 109, 1223 (1998).

================================================================================
                                        WARNINGS
                       Please study these warnings very carefully!
================================================================================

INFO   : Checking CIS options ...

WARNING: CIS/ROCIS methods need fully converged wavefunctions
  ===> : Setting SCFConvForced true
         You can overwrite this default with %scf ConvForced false 


INFO   : the flag for use of LIBINT has been found!

================================================================================
                                       INPUT FILE
================================================================================
NAME = /Users/lailaal-madhagi/Desktop/Testing_XAS_Analysis_code/Pyridine//Results_dir_Pyridine_geom_element_N_2019-11-27_20-35-22//GTE1_Pyridine_geom_2019-11-27_20-35-35//TDDFT_N-edge.inp
|  1> #This is N K-edge calculation 
|  2> ! B3LYP 6-31G* TIGHTSCF Grid3 FinalGrid5 
|  3> !NormalPrint 
|  4> %output 
|  5> Print[P_Basis] 2 
|  6> Print[P_MOS] 1 
|  7> end 
|  8> 
|  9> %tddft 
| 10> orbwin[0]=0,0,-1,-1 
| 11> nroots=20 
| 12> maxdim=200 
| 13> end 
| 14> *xyzfile 0 1 /Users/lailaal-madhagi/Desktop/Testing_XAS_Analysis_code/Pyridine//Results_dir_Pyridine_geom_element_N_2019-11-27_20-35-22//GTE1_Pyridine_geom_2019-11-27_20-35-35//opt.xyz                           ****END OF INPUT****
================================================================================

                       ****************************
                       * Single Point Calculation *
                       ****************************

---------------------------------
CARTESIAN COORDINATES (ANGSTROEM)
---------------------------------
  C     -1.782415    0.680725   -0.003661
  C     -0.406412    0.911634   -0.000001
  C      0.452101   -0.190123   -0.001965
  C     -2.237115   -0.638323   -0.009111
  C     -1.291971   -1.666753   -0.010648
  N      0.031698   -1.461864   -0.007183
  H     -2.484908    1.510516   -0.002299
  H     -0.004182    1.920809    0.004272
  H      1.531838   -0.044657    0.000782
  H     -3.298836   -0.868708   -0.012102
  H     -1.613427   -2.707717   -0.014865

----------------------------
CARTESIAN COORDINATES (A.U.)
----------------------------
  NO LB      ZA    FRAG     MASS         X           Y           Z
   0 C     6.0000    0    12.011   -3.368276    1.286383   -0.006917
   1 C     6.0000    0    12.011   -0.768007    1.722739   -0.000002
   2 C     6.0000    0    12.011    0.854347   -0.359280   -0.003714
   3 C     6.0000    0    12.011   -4.227535   -1.206256   -0.017216
   4 C     6.0000    0    12.011   -2.441471   -3.149707   -0.020122
   5 N     7.0000    0    14.007    0.059900   -2.762523   -0.013574
   6 H     1.0000    0     1.008   -4.695795    2.854462   -0.004344
   7 H     1.0000    0     1.008   -0.007904    3.629804    0.008073
   8 H     1.0000    0     1.008    2.894754   -0.084389    0.001477
   9 H     1.0000    0     1.008   -6.233897   -1.641620   -0.022869
  10 H     1.0000    0     1.008   -3.048935   -5.116844   -0.028091

--------------------------------
INTERNAL COORDINATES (ANGSTROEM)
--------------------------------
 C      0   0   0     0.000000000000     0.00000000     0.00000000
 C      1   0   0     1.395248183999     0.00000000     0.00000000
 C      2   1   0     1.396752087216   118.39998449     0.00000000
 C      1   2   3     1.395231163118   118.54647272     0.00000000
 C      4   1   2     1.396770423461   118.39648514     0.00000000
 N      5   4   1     1.339436580124   123.78426385     0.00000000
 H      1   2   3     1.087222223748   120.72439789   180.00006961
 H      2   1   3     1.086389146978   121.25729721   179.99954468
 H      3   2   1     1.089494691355   120.25323454   179.99980545
 H      4   1   2     1.086433584501   121.26322164   179.99932568
 H      5   4   1     1.089476113848   120.25548178   179.99963372

---------------------------
INTERNAL COORDINATES (A.U.)
---------------------------
 C      0   0   0     0.000000000000     0.00000000     0.00000000
 C      1   0   0     2.636636956610     0.00000000     0.00000000
 C      2   1   0     2.639478921822   118.39998449     0.00000000
 C      1   2   3     2.636604791805   118.54647272     0.00000000
 C      4   1   2     2.639513572303   118.39648514     0.00000000
 N      5   4   1     2.531168310190   123.78426385     0.00000000
 H      1   2   3     2.054552249597   120.72439789   180.00006961
 H      2   1   3     2.052977962653   121.25729721   179.99954468
 H      3   2   1     2.058846591022   120.25323454   179.99980545
 H      4   1   2     2.053061937401   121.26322164   179.99932568
 H      5   4   1     2.058811484621   120.25548178   179.99963372

---------------------
BASIS SET INFORMATION
---------------------
There are 3 groups of distinct atoms

 Group   1 Type C   : 10s4p1d contracted to 3s2p1d pattern {631/31/1}
 Group   2 Type N   : 10s4p1d contracted to 3s2p1d pattern {631/31/1}
 Group   3 Type H   : 4s contracted to 2s pattern {31}

Atom   0C    basis set group =>   1
Atom   1C    basis set group =>   1
Atom   2C    basis set group =>   1
Atom   3C    basis set group =>   1
Atom   4C    basis set group =>   1
Atom   5N    basis set group =>   2
Atom   6H    basis set group =>   3
Atom   7H    basis set group =>   3
Atom   8H    basis set group =>   3
Atom   9H    basis set group =>   3
Atom  10H    basis set group =>   3

-------------------------
BASIS SET IN INPUT FORMAT
-------------------------

 # Basis set for element : H 
 NewGTO H 
 S 3 
   1      18.7311370000      0.0334945995
   2       2.8253937000      0.2347269467
   3       0.6401217000      0.8137573184
 S 1 
   1       0.1612778000      1.0000000000
  end;

 # Basis set for element : C 
 NewGTO C 
 S 6 
   1    3047.5249000000      0.0018347002
   2     457.3695100000      0.0140373012
   3     103.9486900000      0.0688426061
   4      29.2101550000      0.2321844206
   5       9.2866630000      0.4679413416
   6       3.1639270000      0.3623120322
 S 3 
   1       7.8682724000     -0.1193324086
   2       1.8812885000     -0.1608542116
   3       0.5442493000      1.1434564826
 P 3 
   1       7.8682724000      0.0689990956
   2       1.8812885000      0.3164239798
   3       0.5442493000      0.7443082524
 S 1 
   1       0.1687144000      1.0000000000
 P 1 
   1       0.1687144000      1.0000000000
 D 1 
   1       0.8000000000      1.0000000000
  end;

 # Basis set for element : N 
 NewGTO N 
 S 6 
   1    4173.5110000000      0.0018347994
   2     627.4579000000      0.0139949958
   3     142.9021000000      0.0685869792
   4      40.2343300000      0.2322409295
   5      12.8202100000      0.4690698576
   6       4.3904370000      0.3604548906
 S 3 
   1      11.6263580000     -0.1149610229
   2       2.7162800000     -0.1691180337
   3       0.7722180000      1.1458522281
 P 3 
   1      11.6263580000      0.0675800232
   2       2.7162800000      0.3239071114
   3       0.7722180000      0.7408952549
 S 1 
   1       0.2120313000      1.0000000000
 P 1 
   1       0.2120313000      1.0000000000
 D 1 
   1       0.8000000000      1.0000000000
  end;

------------------------------------------------------------------------------
                           ORCA GTO INTEGRAL CALCULATION
------------------------------------------------------------------------------

                         BASIS SET STATISTICS AND STARTUP INFO

 # of primitive gaussian shells          ...  110
 # of primitive gaussian functions       ...  182
 # of contracted shells                  ...   46
 # of contracted basis functions         ...   94
 Highest angular momentum                ...    2
 Maximum contraction depth               ...    6
 Integral package used                   ... LIBINT
 Integral threshhold            Thresh   ...  2.500e-11
 Primitive cut-off              TCut     ...  2.500e-12


------------------------------ INTEGRAL EVALUATION ----------------------------


 * One electron integrals 
 Pre-screening matrix                    ... done
 Shell pair data                         ... done (   0.003 sec)

-------------------------------------------------------------------------------
                                 ORCA SCF
-------------------------------------------------------------------------------

------------
SCF SETTINGS
------------
Hamiltonian:
 Density Functional     Method          .... DFT(GTOs)
 Exchange Functional    Exchange        .... B88
   X-Alpha parameter    XAlpha          ....  0.666667
   Becke's b parameter  XBeta           ....  0.004200
 Correlation Functional Correlation     .... LYP
 LDA part of GGA corr.  LDAOpt          .... VWN-5
 Gradients option       PostSCFGGA      .... off
 Hybrid DFT is turned on
   Fraction HF Exchange ScalHFX         ....  0.200000
   Scaling of DF-GGA-X  ScalDFX         ....  0.720000
   Scaling of DF-GGA-C  ScalDFC         ....  0.810000
   Scaling of DF-LDA-C  ScalLDAC        ....  1.000000
   Perturbative correction              ....  0.000000
   Density functional embedding theory  .... OFF
   NL short-range parameter             ....  4.800000


General Settings:
 Integral files         IntName         .... /Users/lailaal-madhagi/Desktop/Testing_XAS_Analysis_code/Pyridine//Results_dir_Pyridine_geom_element_N_2019-11-27_20-35-22//GTE1_Pyridine_geom_2019-11-27_20-35-35//TDDFT_N-edge
 Hartree-Fock type      HFTyp           .... RHF
 Total Charge           Charge          ....    0
 Multiplicity           Mult            ....    1
 Number of Electrons    NEL             ....   42
 Basis Dimension        Dim             ....   94
 Nuclear Repulsion      ENuc            ....    205.7643859721 Eh

Convergence Acceleration:
 DIIS                   CNVDIIS         .... on
   Start iteration      DIISMaxIt       ....    12
   Startup error        DIISStart       ....  0.200000
   # of expansion vecs  DIISMaxEq       ....     5
   Bias factor          DIISBfac        ....   1.050
   Max. coefficient     DIISMaxC        ....  10.000
 Newton-Raphson         CNVNR           .... off
 SOSCF                  CNVSOSCF        .... on
   Start iteration      SOSCFMaxIt      ....   150
   Startup grad/error   SOSCFStart      ....  0.003300
 Level Shifting         CNVShift        .... on
   Level shift para.    LevelShift      ....    0.2500
   Turn off err/grad.   ShiftErr        ....    0.0010
 Zerner damping         CNVZerner       .... off
 Static damping         CNVDamp         .... on
   Fraction old density DampFac         ....    0.7000
   Max. Damping (<1)    DampMax         ....    0.9800
   Min. Damping (>=0)   DampMin         ....    0.0000
   Turn off err/grad.   DampErr         ....    0.1000
 Fernandez-Rico         CNVRico         .... off

SCF Procedure:
 Maximum # iterations   MaxIter         ....   125
 SCF integral mode      SCFMode         .... Direct
   Integral package                     .... LIBINT
 Reset frequency        DirectResetFreq ....    20
 Integral Threshold     Thresh          ....  2.500e-11 Eh
 Primitive CutOff       TCut            ....  2.500e-12 Eh

Convergence Tolerance:
 Convergence Check Mode ConvCheckMode   .... Total+1el-Energy
 Convergence forced     ConvForced      .... 1
 Energy Change          TolE            ....  1.000e-08 Eh
 1-El. energy change                    ....  1.000e-05 Eh
 Orbital Gradient       TolG            ....  1.000e-05
 Orbital Rotation angle TolX            ....  1.000e-05
 DIIS Error             TolErr          ....  5.000e-07


Diagonalization of the overlap matrix:
Smallest eigenvalue                        ... 1.017e-03
Time for diagonalization                   ...    0.001 sec
Threshold for overlap eigenvalues          ... 1.000e-08
Number of eigenvalues below threshold      ... 0
Time for construction of square roots      ...    0.001 sec
Total time needed                          ...    0.002 sec

-------------------
DFT GRID GENERATION
-------------------

General Integration Accuracy     IntAcc      ...  4.340
Radial Grid Type                 RadialGrid  ... Gauss-Chebyshev
Angular Grid (max. acc.)         AngularGrid ... Lebedev-194
Angular grid pruning method      GridPruning ... 3 (G Style)
Weight generation scheme         WeightScheme... Becke
Basis function cutoff            BFCut       ...    1.0000e-11
Integration weight cutoff        WCut        ...    1.0000e-14
Grids for H and He will be reduced by one unit

# of grid points (after initial pruning)     ...  27354 (   0.0 sec)
# of grid points (after weights+screening)   ...  25656 (   0.0 sec)
nearest neighbour list constructed           ...    0.0 sec
Grid point re-assignment to atoms done       ...    0.0 sec
Grid point division into batches done        ...    0.0 sec
Reduced shell lists constructed in    0.2 sec

Total number of grid points                  ...    25656
Total number of batches                      ...      407
Average number of points per batch           ...       63
Average number of grid points per atom       ...     2332
Average number of shells per batch           ...    35.39 (76.94%)
Average number of basis functions per batch  ...    75.13 (79.92%)
Average number of large shells per batch     ...    29.38 (83.03%)
Average number of large basis fcns per batch ...    62.41 (83.08%)
Maximum spatial batch extension              ...  17.37, 17.50, 25.60 au
Average spatial batch extension              ...   3.21,  3.31,  4.20 au

Time for grid setup =    0.210 sec

------------------------------
INITIAL GUESS: MODEL POTENTIAL
------------------------------
Loading Hartree-Fock densities                     ... done
Calculating cut-offs                               ... done
Setting up the integral package                    ... done
Initializing the effective Hamiltonian             ... done
Starting the Coulomb interaction                   ... done (   0.0 sec)
Reading the grid                                   ... done
Mapping shells                                     ... done
Starting the XC term evaluation                    ... done (   0.2 sec)
  promolecular density results
     # of electrons  =     41.997558541
     EX              =    -33.731465182
     EC              =     -1.399138234
     EX+EC           =    -35.130603416
Transforming the Hamiltonian                       ... done (   0.0 sec)
Diagonalizing the Hamiltonian                      ... done (   0.0 sec)
Back transforming the eigenvectors                 ... done (   0.0 sec)
Now organizing SCF variables                       ... done
                      ------------------
                      INITIAL GUESS DONE (   0.5 sec)
                      ------------------
--------------
SCF ITERATIONS
--------------
               ***  Starting incremental Fock matrix formation  ***

                         ----------------------------
                         !        ITERATION     0   !
                         ----------------------------
   Total Energy        :    -247.994778560076 Eh
   Energy Change       :    -247.994778560076 Eh
   MAX-DP              :       0.065037741219
   RMS-DP              :       0.002930058659
   Actual Damping      :       0.7000
   Actual Level Shift  :       0.2500 Eh
   Int. Num. El.       :    42.00013296 (UP=   21.00006648 DN=   21.00006648)
   Exchange            :   -27.63228094
   Correlation         :    -1.67327851


                         ----------------------------
                         !        ITERATION     1   !
                         ----------------------------
   Total Energy        :    -248.052825759150 Eh
   Energy Change       :      -0.058047199074 Eh
   MAX-DP              :       0.044197055679
   RMS-DP              :       0.002209845627
   Actual Damping      :       0.7000
   Actual Level Shift  :       0.2500 Eh
   Int. Num. El.       :    42.00016603 (UP=   21.00008302 DN=   21.00008302)
   Exchange            :   -27.45996761
   Correlation         :    -1.66600691

                               ***Turning on DIIS***

                         ----------------------------
                         !        ITERATION     2   !
                         ----------------------------
   Total Energy        :    -248.078183727320 Eh
   Energy Change       :      -0.025357968170 Eh
   MAX-DP              :       0.066472725149
   RMS-DP              :       0.003743605260
   Actual Damping      :       0.0000
   Actual Level Shift  :       0.2500 Eh
   Int. Num. El.       :    42.00018305 (UP=   21.00009152 DN=   21.00009152)
   Exchange            :   -27.34048540
   Correlation         :    -1.66073037
   DIIS-Error          :       0.030756560464


                         ----------------------------
                         !        ITERATION     3   !
                         ----------------------------
   Total Energy        :    -248.115417388736 Eh
   Energy Change       :      -0.037233661416 Eh
   MAX-DP              :       0.029950953380
   RMS-DP              :       0.001614249280
   Actual Damping      :       0.0000
   Actual Level Shift  :       0.2500 Eh
   Int. Num. El.       :    42.00019513 (UP=   21.00009756 DN=   21.00009756)
   Exchange            :   -27.14910386
   Correlation         :    -1.65192772
   DIIS-Error          :       0.040407022173
   DIIS coefficients:
      0.54013   0.45987


                         ----------------------------
                         !        ITERATION     4   !
                         ----------------------------
   Total Energy        :    -248.124271023058 Eh
   Energy Change       :      -0.008853634322 Eh
   MAX-DP              :       0.009482870263
   RMS-DP              :       0.000500599761
   Actual Damping      :       0.0000
   Actual Level Shift  :       0.2500 Eh
   Int. Num. El.       :    42.00017923 (UP=   21.00008961 DN=   21.00008961)
   Exchange            :   -27.22374162
   Correlation         :    -1.65549134
   DIIS-Error          :       0.007994923038
   DIIS coefficients:
      0.19171   0.04327   0.76502


                         ----------------------------
                         !        ITERATION     5   !
                         ----------------------------
   Total Energy        :    -248.124714289311 Eh
   Energy Change       :      -0.000443266253 Eh
   MAX-DP              :       0.002690023961
   RMS-DP              :       0.000153137020
   Actual Damping      :       0.0000
   Actual Level Shift  :       0.2500 Eh
   Int. Num. El.       :    42.00018074 (UP=   21.00009037 DN=   21.00009037)
   Exchange            :   -27.23845335
   Correlation         :    -1.65629776
   DIIS-Error          :       0.003528837012
   DIIS coefficients:
      0.06159  -0.00810   0.26207   0.68444

                      *** Initiating the SOSCF procedure ***
                           *** Shutting down DIIS ***
                      *** Re-Reading the Fockian *** 
                      *** Removing any level shift *** 

                         ----------------------------
                         !        ITERATION     6   !
                         ----------------------------
   Total Energy        :    -248.124752182384 Eh
   Energy Change       :      -0.000037893073 Eh
   MAX-DP              :       0.001163424875
   RMS-DP              :       0.000063005243
   Orbital gradient    :       0.000210663033
   Orbital Rotation    :       0.000210663033
   Actual Damping      :       0.0000
   Int. Num. El.       :    42.00017978 (UP=   21.00008989 DN=   21.00008989)
   Exchange            :   -27.24229627
   Correlation         :    -1.65644081

               *** Restarting incremental Fock matrix formation ***

                         ----------------------------
                         !        ITERATION     7   !
                         ----------------------------
   Total Energy        :    -248.124753274951 Eh
   Energy Change       :      -0.000001092567 Eh
   MAX-DP              :       0.000356061880
   RMS-DP              :       0.000015752970
   Orbital gradient    :       0.000105153071
   Orbital Rotation    :       0.000417708603
   Actual Damping      :       0.0000
   Int. Num. El.       :    42.00017996 (UP=   21.00008998 DN=   21.00008998)
   Exchange            :   -27.24266010
   Correlation         :    -1.65645528


                         ----------------------------
                         !        ITERATION     8   !
                         ----------------------------
   Total Energy        :    -248.124753027708 Eh
   Energy Change       :       0.000000247243 Eh
   MAX-DP              :       0.000241545229
   RMS-DP              :       0.000009530892
   Orbital gradient    :       0.000189159247
   Orbital Rotation    :       0.000294783520
   Actual Damping      :       0.0000
   Int. Num. El.       :    42.00018003 (UP=   21.00009002 DN=   21.00009002)
   Exchange            :   -27.24238108
   Correlation         :    -1.65644589


                         ----------------------------
                         !        ITERATION     9   !
                         ----------------------------
   Total Energy        :    -248.124753477133 Eh
   Energy Change       :      -0.000000449425 Eh
   MAX-DP              :       0.000025206578
   RMS-DP              :       0.000000974452
   Orbital gradient    :       0.000006179690
   Orbital Rotation    :       0.000023978911
   Actual Damping      :       0.0000
   Int. Num. El.       :    42.00017998 (UP=   21.00008999 DN=   21.00008999)
   Exchange            :   -27.24253111
   Correlation         :    -1.65645059


                         ----------------------------
                         !        ITERATION    10   !
                         ----------------------------
   Total Energy        :    -248.124753476889 Eh
   Energy Change       :       0.000000000243 Eh
   MAX-DP              :       0.000013890983
   RMS-DP              :       0.000000503612
   Orbital gradient    :       0.000008082774
   Orbital Rotation    :       0.000009191620
   Actual Damping      :       0.0000
   Int. Num. El.       :    42.00018000 (UP=   21.00009000 DN=   21.00009000)
   Exchange            :   -27.24254761
   Correlation         :    -1.65645162

                  ***Gradient check signals convergence***
              ***Rediagonalizing the Fockian in SOSCF/NRSCF***

               *****************************************************
               *                     SUCCESS                       *
               *           SCF CONVERGED AFTER  11 CYCLES          *
               *****************************************************

Setting up the final grid:

General Integration Accuracy     IntAcc      ...  5.010
Radial Grid Type                 RadialGrid  ... Gauss-Chebyshev
Angular Grid (max. acc.)         AngularGrid ... Lebedev-434
Angular grid pruning method      GridPruning ... 3 (G Style)
Weight generation scheme         WeightScheme... Becke
Basis function cutoff            BFCut       ...    1.0000e-11
Integration weight cutoff        WCut        ...    1.0000e-14
Grids for H and He will be reduced by one unit

# of grid points (after initial pruning)     ...  97540 (   0.0 sec)
# of grid points (after weights+screening)   ...  90784 (   0.1 sec)
nearest neighbour list constructed           ...    0.0 sec
Grid point re-assignment to atoms done       ...    0.0 sec
Grid point division into batches done        ...    0.8 sec
Reduced shell lists constructed in    1.3 sec

Total number of grid points                  ...    90784
Total number of batches                      ...     1424
Average number of points per batch           ...       63
Average number of grid points per atom       ...     8253
Average number of shells per batch           ...    32.76 (71.23%)
Average number of basis functions per batch  ...    69.35 (73.78%)
Average number of large shells per batch     ...    26.78 (81.73%)
Average number of large basis fcns per batch ...    56.66 (81.70%)
Maximum spatial batch extension              ...  17.35, 19.31, 16.35 au
Average spatial batch extension              ...   2.17,  2.25,  2.39 au

Final grid set up in    1.5 sec
Final integration                            ... done (   1.1 sec)
Change in XC energy                          ...    -0.000038591
Integrated number of electrons               ...    41.999973041
Previous integrated no of electrons          ...    42.000179988

----------------
TOTAL SCF ENERGY
----------------

Total Energy       :         -248.12479207 Eh           -6751.81885 eV

Components:
Nuclear Repulsion  :          205.76438597 Eh            5599.13360 eV
Electronic Energy  :         -453.88917804 Eh          -12350.95244 eV
One Electron Energy:         -741.24788034 Eh          -20170.38027 eV
Two Electron Energy:          287.35870230 Eh            7819.42782 eV

Virial components:
Potential Energy   :         -494.73864804 Eh          -13462.52303 eV
Kinetic Energy     :          246.61385597 Eh            6710.70419 eV
Virial Ratio       :            2.00612673


DFT components:
N(Alpha)           :       20.999986520335 electrons
N(Beta)            :       20.999986520335 electrons
N(Total)           :       41.999973040669 electrons
E(X)               :      -27.242576173054 Eh       
E(C)               :       -1.656454707497 Eh       
E(XC)              :      -28.899030880551 Eh       
DFET-embed. en.    :        0.000000000000 Eh       

---------------
SCF CONVERGENCE
---------------

  Last Energy change         ...   -9.2473e-10  Tolerance :   1.0000e-08
  Last MAX-Density change    ...    2.4060e-06  Tolerance :   1.0000e-07
  Last RMS-Density change    ...    1.2047e-07  Tolerance :   5.0000e-09
  Last Orbital Gradient      ...    6.4089e-07  Tolerance :   1.0000e-05
  Last Orbital Rotation      ...    1.1744e-06  Tolerance :   1.0000e-05

             **** THE GBW FILE WAS UPDATED (/Users/lailaal-madhagi/Desktop/Testing_XAS_Analysis_code/Pyridine//Results_dir_Pyridine_geom_element_N_2019-11-27_20-35-22//GTE1_Pyridine_geom_2019-11-27_20-35-35//TDDFT_N-edge.gbw) ****
             **** DENSITY FILE WAS UPDATED (/Users/lailaal-madhagi/Desktop/Testing_XAS_Analysis_code/Pyridine//Results_dir_Pyridine_geom_element_N_2019-11-27_20-35-22//GTE1_Pyridine_geom_2019-11-27_20-35-35//TDDFT_N-edge.scfp.tmp) ****
             **** ENERGY FILE WAS UPDATED (/Users/lailaal-madhagi/Desktop/Testing_XAS_Analysis_code/Pyridine//Results_dir_Pyridine_geom_element_N_2019-11-27_20-35-22//GTE1_Pyridine_geom_2019-11-27_20-35-35//TDDFT_N-edge.en.tmp) ****
----------------
ORBITAL ENERGIES
----------------

  NO   OCC          E(Eh)            E(eV) 
   0   2.0000     -14.322035      -389.7224 
   1   2.0000     -10.212832      -277.9053 
   2   2.0000     -10.212816      -277.9049 
   3   2.0000     -10.200531      -277.5706 
   4   2.0000     -10.190392      -277.2947 
   5   2.0000     -10.190352      -277.2936 
   6   2.0000      -0.933819       -25.4105 
   7   2.0000      -0.798727       -21.7345 
   8   2.0000      -0.755805       -20.5665 
   9   2.0000      -0.624358       -16.9897 
  10   2.0000      -0.622933       -16.9509 
  11   2.0000      -0.523862       -14.2550 
  12   2.0000      -0.472929       -12.8690 
  13   2.0000      -0.467906       -12.7324 
  14   2.0000      -0.424878       -11.5615 
  15   2.0000      -0.399753       -10.8778 
  16   2.0000      -0.390698       -10.6314 
  17   2.0000      -0.360257        -9.8031 
  18   2.0000      -0.282264        -7.6808 
  19   2.0000      -0.257808        -7.0153 
  20   2.0000      -0.248812        -6.7705 
  21   0.0000      -0.019045        -0.5182 
  22   0.0000      -0.006069        -0.1651 
  23   0.0000       0.096276         2.6198 
  24   0.0000       0.140788         3.8310 
  25   0.0000       0.150043         4.0829 
  26   0.0000       0.157652         4.2899 
  27   0.0000       0.178629         4.8607 
  28   0.0000       0.179639         4.8882 
  29   0.0000       0.244953         6.6655 
  30   0.0000       0.297898         8.1062 
  31   0.0000       0.323867         8.8129 
  32   0.0000       0.324357         8.8262 
  33   0.0000       0.457832        12.4583 
  34   0.0000       0.462954        12.5976 
  35   0.0000       0.519055        14.1242 
  36   0.0000       0.539768        14.6878 
  37   0.0000       0.589657        16.0454 
  38   0.0000       0.591078        16.0840 
  39   0.0000       0.596328        16.2269 
  40   0.0000       0.600542        16.3416 
  41   0.0000       0.601043        16.3552 
  42   0.0000       0.611226        16.6323 
  43   0.0000       0.649084        17.6625 
  44   0.0000       0.659026        17.9330 
  45   0.0000       0.678967        18.4756 
  46   0.0000       0.690248        18.7826 
  47   0.0000       0.826329        22.4855 
  48   0.0000       0.830406        22.5965 
  49   0.0000       0.849007        23.1026 
  50   0.0000       0.854096        23.2411 
  51   0.0000       0.864683        23.5292 
  52   0.0000       0.885880        24.1060 
  53   0.0000       0.925590        25.1866 
  54   0.0000       0.931906        25.3585 
  55   0.0000       0.973271        26.4841 
  56   0.0000       1.041890        28.3513 
  57   0.0000       1.074416        29.2363 
  58   0.0000       1.116131        30.3715 
  59   0.0000       1.166786        31.7499 
  60   0.0000       1.214281        33.0423 
  61   0.0000       1.253798        34.1176 
  62   0.0000       1.382755        37.6267 
  63   0.0000       1.394679        37.9511 
  64   0.0000       1.464112        39.8405 
  65   0.0000       1.478220        40.2244 
  66   0.0000       1.482678        40.3457 
  67   0.0000       1.517725        41.2994 
  68   0.0000       1.527667        41.5699 
  69   0.0000       1.708301        46.4852 
  70   0.0000       1.782987        48.5175 
  71   0.0000       1.824204        49.6391 
  72   0.0000       1.824483        49.6467 
  73   0.0000       1.923087        52.3299 
  74   0.0000       1.967434        53.5366 
  75   0.0000       2.055776        55.9405 
  76   0.0000       2.130621        57.9771 
  77   0.0000       2.136459        58.1360 
  78   0.0000       2.173677        59.1488 
  79   0.0000       2.181667        59.3662 
  80   0.0000       2.198867        59.8342 
  81   0.0000       2.295874        62.4739 
  82   0.0000       2.320742        63.1506 
  83   0.0000       2.384114        64.8750 
  84   0.0000       2.522068        68.6290 
  85   0.0000       2.544702        69.2449 
  86   0.0000       2.650080        72.1124 
  87   0.0000       2.662130        72.4402 
  88   0.0000       2.692949        73.2789 
  89   0.0000       2.716150        73.9102 
  90   0.0000       2.774502        75.4980 
  91   0.0000       2.783313        75.7378 
  92   0.0000       3.045331        82.8677 
  93   0.0000       3.384489        92.0966 
------------------
MOLECULAR ORBITALS
------------------
                      0         1         2         3         4         5   
                 -14.32204 -10.21283 -10.21282 -10.20053 -10.19039 -10.19035
                   2.00000   2.00000   2.00000   2.00000   2.00000   2.00000
                  --------  --------  --------  --------  --------  --------
  0C   1s         0.000131  0.000112  0.000210 -0.994647  0.019505  0.023757
  0C   2s         0.000975  0.000493  0.000924 -0.036205  0.002567  0.003135
  0C   1pz        0.000000  0.000001 -0.000001  0.000001 -0.000005  0.000003
  0C   1px       -0.000005  0.000201  0.000025 -0.000569 -0.000524  0.001278
  0C   1py        0.000006  0.000059 -0.000188  0.000672 -0.001288  0.000050
  0C   3s        -0.016167 -0.004693 -0.008800  0.029891 -0.012397 -0.015157
  0C   2pz        0.000011 -0.000003  0.000010 -0.000007  0.000017 -0.000000
  0C   2px       -0.005749 -0.003245 -0.002760  0.003665 -0.001292 -0.005829
  0C   2py        0.006791  0.001033  0.004753 -0.004329  0.005749  0.003432
  0C   1dz2       0.000191  0.000150  0.000281  0.000629 -0.000586 -0.000717
  0C   1dxz      -0.000001 -0.000001 -0.000001 -0.000004  0.000003  0.000007
  0C   1dyz      -0.000001 -0.000001 -0.000002 -0.000004  0.000008  0.000002
  0C   1dx2y2    -0.000005  0.000019 -0.000022 -0.000065 -0.000948  0.000970
  0C   1dxy      -0.000032 -0.000034 -0.000054 -0.000390  0.000745  0.000556
  1C   1s        -0.000162 -0.009537 -0.002860 -0.021557  0.099500 -0.989869
  1C   2s        -0.001056  0.000952 -0.000059  0.001177  0.003593 -0.036482
  1C   1pz       -0.000000 -0.000001 -0.000001 -0.000004 -0.000001  0.000004
  1C   1px        0.000148  0.000881  0.000311 -0.001275 -0.000223  0.000376
  1C   1py       -0.000132 -0.000893 -0.000445 -0.000261 -0.000181  0.000875
  1C   3s         0.014156 -0.004846  0.007054 -0.009864  0.002085  0.033328
  1C   2pz       -0.000043 -0.000007 -0.000022  0.000018 -0.000008 -0.000031
  1C   2px       -0.005185 -0.005225 -0.002082  0.003706 -0.000750 -0.003035
  1C   2py       -0.009332  0.001044 -0.005121  0.002895 -0.001929 -0.007233
  1C   1dz2      -0.000172 -0.000732 -0.000333 -0.000642  0.000001  0.000636
  1C   1dxz       0.000000 -0.000001 -0.000000  0.000006  0.000000 -0.000002
  1C   1dyz       0.000002  0.000002  0.000001  0.000001 -0.000000 -0.000002
  1C   1dx2y2    -0.000203 -0.000084 -0.000069  0.001104  0.000045 -0.000341
  1C   1dxy      -0.000027 -0.001061 -0.000404  0.000280  0.000005  0.000273
  2C   1s        -0.000071 -0.951896 -0.289577  0.000176 -0.001075  0.009911
  2C   2s         0.000912 -0.034446 -0.009470  0.000379  0.000035  0.002183
  2C   1pz       -0.000002  0.000005  0.000001 -0.000000 -0.000000  0.000002
  2C   1px       -0.000054  0.001142  0.000088 -0.000260 -0.000000 -0.000786
  2C   1py       -0.000453  0.000823  0.000265  0.000142 -0.000060  0.001096
  2C   3s        -0.017980  0.017712 -0.001571  0.001742 -0.002219 -0.013057
  2C   2pz        0.000039  0.000016  0.000016 -0.000000  0.000005  0.000007
  2C   2px        0.010198 -0.001802  0.006846 -0.000373  0.001951  0.005834
  2C   2py        0.005224  0.005830  0.000426  0.000084  0.000131 -0.001513
  2C   1dz2      -0.000265  0.000917  0.000642  0.000097  0.000160 -0.000607
  2C   1dxz       0.000001 -0.000002 -0.000002 -0.000001 -0.000000 -0.000002
  2C   1dyz       0.000006 -0.000008 -0.000005 -0.000001 -0.000001  0.000003
  2C   1dx2y2    -0.000996  0.000831  0.000273 -0.000003  0.000032 -0.000369
  2C   1dxy       0.000488 -0.000088 -0.000003 -0.000096  0.000105 -0.001098
  3C   1s        -0.000162  0.002944 -0.009533 -0.021643 -0.989910 -0.099063
  3C   2s        -0.001056 -0.000580  0.000757  0.001174 -0.036468 -0.003723
  3C   1pz       -0.000000  0.000001 -0.000002  0.000005 -0.000003  0.000001
  3C   1px        0.000106 -0.000088  0.000826  0.000468 -0.000949  0.000027
  3C   1py       -0.000168  0.000251 -0.001056  0.001214 -0.000259  0.000141
  3C   3s         0.014157  0.008557 -0.000093 -0.009862  0.032251  0.008661
  3C   2pz        0.000033  0.000003  0.000023 -0.000018  0.000021  0.000010
  3C   2px        0.010060  0.004573  0.002866 -0.003467  0.007080  0.003501
  3C   2py        0.003576 -0.001963  0.005096 -0.003177  0.001681  0.000771
  3C   1dz2      -0.000172  0.000131 -0.000793 -0.000642  0.000623  0.000127
  3C   1dxz       0.000001  0.000001 -0.000001  0.000002 -0.000001 -0.000000
  3C   1dyz       0.000000 -0.000001  0.000003  0.000008 -0.000005 -0.000001
  3C   1dx2y2     0.000183  0.000093 -0.000257 -0.000953  0.000411  0.000042
  3C   1dxy      -0.000092  0.000238 -0.001082  0.000625  0.000140  0.000048
  4C   1s        -0.000071  0.289849 -0.951813  0.000178  0.009948  0.000916
  4C   2s         0.000912  0.011326 -0.033881  0.000379  0.002133  0.000469
  4C   1pz        0.000001  0.000002 -0.000005  0.000001  0.000001  0.000000
  4C   1px        0.000456  0.000328 -0.000984 -0.000097 -0.000944 -0.000131
  4C   1py       -0.000022  0.000516 -0.000847  0.000280  0.000939  0.000181
  4C   3s        -0.017980 -0.011172  0.013833  0.001742 -0.012356 -0.004767
  4C   2pz       -0.000046 -0.000020 -0.000016  0.000001 -0.000018 -0.000011
  4C   2px       -0.006834  0.001752 -0.005391 -0.000022  0.000609 -0.000336
  4C   2py       -0.009196 -0.007075 -0.001448  0.000381 -0.005506 -0.003057
  4C   1dz2      -0.000265  0.000023  0.001119  0.000096 -0.000627  0.000037
  4C   1dxz       0.000004  0.000000 -0.000005 -0.000001 -0.000002 -0.000001
  4C   1dyz      -0.000002 -0.000001 -0.000003 -0.000001  0.000001 -0.000000
  4C   1dx2y2     0.001101  0.000238 -0.000821 -0.000029 -0.000009  0.000002
  4C   1dxy       0.000137 -0.000032  0.000203 -0.000092 -0.001157 -0.000122
  5N   1s        -0.995420 -0.000081 -0.000152  0.000010 -0.000039 -0.000048
  5N   2s        -0.034234 -0.000362 -0.000678  0.000235 -0.000402 -0.000491
  5N   1pz       -0.000003  0.000004 -0.000001  0.000000 -0.000000  0.000000
  5N   1px        0.001706  0.000460 -0.000816 -0.000056 -0.000075 -0.000026
  5N   1py       -0.002015  0.000870  0.000210  0.000066  0.000023  0.000084
  5N   3s         0.037008  0.004256  0.007981 -0.000867  0.004285  0.005241
  5N   2pz        0.000014  0.000019 -0.000004 -0.000000  0.000001  0.000004
  5N   2px       -0.007341  0.001879 -0.004469  0.000209 -0.001539 -0.001178
  5N   2py        0.008670  0.004510  0.001689 -0.000247  0.001118  0.001964
  5N   1dz2      -0.000120 -0.000820 -0.001539  0.000028  0.000074  0.000090
  5N   1dxz      -0.000002  0.000002  0.000010 -0.000000 -0.000001 -0.000001
  5N   1dyz      -0.000000  0.000012  0.000007 -0.000000 -0.000001 -0.000000
  5N   1dx2y2    -0.000093 -0.001515  0.000995 -0.000005  0.000069 -0.000090
  5N   1dxy      -0.000556  0.000731  0.000730 -0.000027 -0.000113 -0.000109
  6H   1s        -0.000157 -0.000064 -0.000120  0.001315  0.000106  0.000130
  6H   2s        -0.002101 -0.000858 -0.001609 -0.003081 -0.000942 -0.001152
  7H   1s         0.000430  0.000479  0.000294  0.000212 -0.000078  0.001364
  7H   2s         0.002830  0.000689  0.001510 -0.000841  0.000701 -0.002524
  8H   1s         0.000012  0.001248  0.000013 -0.000006 -0.000093  0.000136
  8H   2s        -0.002642 -0.003504 -0.003519 -0.000287 -0.000604 -0.001025
  9H   1s         0.000430 -0.000023  0.000561  0.000212  0.001352  0.000194
  9H   2s         0.002830  0.000870  0.001413 -0.000841 -0.002613  0.000185
 10H   1s         0.000012 -0.000685  0.001044 -0.000006  0.000151 -0.000064
 10H   2s        -0.002642 -0.000971 -0.004870 -0.000288 -0.000885 -0.000796
                      6         7         8         9        10        11   
                  -0.93382  -0.79873  -0.75580  -0.62436  -0.62293  -0.52386
                   2.00000   2.00000   2.00000   2.00000   2.00000   2.00000
                  --------  --------  --------  --------  --------  --------
  0C   1s         0.039008 -0.146922 -0.000016 -0.000057 -0.113991  0.023024
  0C   2s        -0.075010  0.283384  0.000042  0.000105  0.233664 -0.049166
  0C   1pz        0.000044 -0.000075 -0.000416  0.000727  0.000092 -0.000318
  0C   1px       -0.022666  0.038670 -0.083636  0.146182 -0.047746  0.163514
  0C   1py        0.026765 -0.045638 -0.070825  0.123823  0.056274 -0.193159
  0C   3s        -0.008293  0.212842 -0.000050  0.000260  0.165134 -0.049790
  0C   2pz       -0.000014 -0.000009 -0.000050  0.000184  0.000084 -0.000119
  0C   2px        0.007563  0.004450 -0.009961  0.037181 -0.043525  0.060900
  0C   2py       -0.008929 -0.005320 -0.008363  0.031372  0.051353 -0.071908
  0C   1dz2       0.003987 -0.012322  0.000002 -0.000007 -0.005235  0.002088
  0C   1dxz      -0.000010  0.000046 -0.000015  0.000014 -0.000001 -0.000004
  0C   1dyz      -0.000022  0.000074  0.000037 -0.000034  0.000023 -0.000011
  0C   1dx2y2     0.000177  0.000076 -0.009930  0.009009 -0.000895  0.000157
  0C   1dxy       0.001050  0.000487  0.001658 -0.001504 -0.005301  0.000898
  1C   1s         0.048446 -0.105320  0.108007 -0.093081  0.047481 -0.005836
  1C   2s        -0.088800  0.202429 -0.211601  0.187051 -0.096047  0.010568
  1C   1pz        0.000156 -0.000225  0.000046  0.000147 -0.000240 -0.000754
  1C   1px        0.000485 -0.075971 -0.045305 -0.052148 -0.189385 -0.059390
  1C   1py        0.045292 -0.019169  0.041002  0.075253  0.045474 -0.185093
  1C   3s        -0.070860  0.133579 -0.149848  0.151673 -0.058093 -0.005674
  1C   2pz        0.000106  0.000021 -0.000044  0.000140 -0.000159 -0.000225
  1C   2px        0.014733 -0.002533 -0.005711 -0.002514 -0.057516 -0.011836
  1C   2py        0.022039  0.007624 -0.009362  0.042139 -0.011668 -0.058373
  1C   1dz2       0.005684 -0.008678  0.007848 -0.004732  0.002010  0.001100
  1C   1dxz      -0.000011  0.000059 -0.000009  0.000033  0.000026  0.000001
  1C   1dyz      -0.000036  0.000046 -0.000048  0.000041 -0.000028  0.000009
  1C   1dx2y2     0.001756  0.004637  0.002935 -0.000661  0.007833 -0.002566
  1C   1dxy       0.001661  0.005228  0.003998  0.005159  0.004853  0.003149
  2C   1s         0.098674  0.005253  0.117103  0.080116  0.069619  0.019983
  2C   2s        -0.189483 -0.012737 -0.233045 -0.167433 -0.139800 -0.042488
  2C   1pz        0.000418  0.000342 -0.000079  0.000316 -0.000655 -0.000404
  2C   1px        0.062993 -0.023375  0.024408 -0.071466 -0.022900 -0.210255
  2C   1py        0.083893  0.114585 -0.038135  0.136338 -0.178173  0.010010
  2C   3s        -0.067598  0.007201 -0.168701 -0.131839 -0.131029 -0.054424
  2C   2pz       -0.000070 -0.000015 -0.000074  0.000003 -0.000170 -0.000196
  2C   2px       -0.012595 -0.016264 -0.001579 -0.038837 -0.010632 -0.078977
  2C   2py       -0.012951  0.005679 -0.020761  0.024990 -0.043037 -0.008926
  2C   1dz2       0.011426  0.000860  0.008774  0.004683  0.002522  0.000938
  2C   1dxz      -0.000059 -0.000027 -0.000010 -0.000033  0.000005 -0.000006
  2C   1dyz      -0.000104 -0.000048 -0.000043 -0.000043  0.000024 -0.000012
  2C   1dx2y2     0.005578  0.005959  0.000987  0.001192 -0.006589  0.000907
  2C   1dxy      -0.008495 -0.010651  0.005646 -0.005376  0.008033 -0.001451
  3C   1s         0.048438 -0.105292 -0.108024  0.093130  0.047396 -0.005838
  3C   2s        -0.088800  0.202414  0.211633 -0.187119 -0.095872  0.010617
  3C   1pz       -0.000070  0.000311 -0.000106 -0.000081  0.000634  0.000496
  3C   1px       -0.044752  0.031462  0.032995  0.065566 -0.013675  0.192295
  3C   1py        0.006992  0.071764 -0.051425 -0.063632  0.194339  0.028061
  3C   3s        -0.070754  0.133298  0.149868 -0.151927 -0.057989 -0.005555
  3C   2pz       -0.000088 -0.000004 -0.000035  0.000056  0.000230  0.000132
  3C   2px       -0.024081 -0.007369 -0.010233  0.041156  0.020816  0.059662
  3C   2py       -0.010920  0.003779 -0.003986 -0.009543  0.054819  0.001856
  3C   1dz2       0.005679 -0.008667 -0.007850  0.004738  0.002010  0.001101
  3C   1dxz      -0.000016  0.000048  0.000015 -0.000038  0.000005  0.000011
  3C   1dyz      -0.000025  0.000074  0.000031 -0.000030  0.000023 -0.000014
  3C   1dx2y2    -0.001116 -0.002686  0.001472 -0.002305 -0.005825  0.003444
  3C   1dxy       0.002141  0.006462 -0.004722 -0.004672  0.007146  0.002130
  4C   1s         0.098675  0.005271 -0.117102 -0.080039  0.069702  0.019980
  4C   2s        -0.189461 -0.012780  0.233027  0.167282 -0.139994 -0.042464
  4C   1pz       -0.000360 -0.000085  0.000034 -0.000060  0.000351  0.000764
  4C   1px       -0.093122 -0.109156 -0.033603  0.122866  0.179368  0.024795
  4C   1py       -0.048292  0.041949  0.030361 -0.092990 -0.006698  0.209022
  4C   3s        -0.067629  0.007433  0.168785  0.131640 -0.131004 -0.054381
  4C   2pz        0.000066  0.000053 -0.000037 -0.000109  0.000104  0.000307
  4C   2px        0.014910 -0.002922 -0.020812  0.018317  0.044271  0.022116
  4C   2py        0.010213  0.017120  0.001934 -0.042412  0.003485  0.076293
  4C   1dz2       0.011426  0.000856 -0.008773 -0.004676  0.002521  0.000929
  4C   1dxz      -0.000079 -0.000050  0.000010  0.000039  0.000028 -0.000010
  4C   1dyz      -0.000053  0.000009  0.000043  0.000027 -0.000034 -0.000003
  4C   1dx2y2    -0.008029 -0.009099 -0.000910  0.002882  0.008843 -0.001316
  4C   1dxy      -0.006220 -0.008137 -0.005667  0.004703  0.005451 -0.001067
  5N   1s         0.157291  0.087581  0.000004 -0.000033 -0.069072  0.019797
  5N   2s        -0.323252 -0.187616 -0.000023  0.000065  0.157298 -0.043077
  5N   1pz       -0.000154 -0.000047 -0.000554 -0.000988  0.000016  0.000145
  5N   1px        0.079334  0.024165 -0.111273 -0.198428 -0.008013 -0.074837
  5N   1py       -0.093712 -0.028526 -0.094210 -0.167990  0.009681  0.088386
  5N   3s        -0.317828 -0.193110  0.000042  0.000087  0.153335 -0.077502
  5N   2pz       -0.000072 -0.000023 -0.000188 -0.000291 -0.000006  0.000065
  5N   2px        0.036985  0.011681 -0.037956 -0.058775  0.003532 -0.032425
  5N   2py       -0.043584 -0.013735 -0.032145 -0.049786 -0.004049  0.038577
  5N   1dz2       0.009683  0.001843 -0.000002  0.000001  0.002054 -0.002838
  5N   1dxz      -0.000041 -0.000020  0.000022  0.000023 -0.000005 -0.000049
  5N   1dyz      -0.000060 -0.000016 -0.000053 -0.000056 -0.000011 -0.000007
  5N   1dx2y2    -0.000258 -0.000611  0.014195  0.015025  0.000102 -0.002623
  5N   1dxy      -0.001486 -0.003607 -0.002373 -0.002512  0.000661 -0.015603
  6H   1s        -0.010864  0.071445  0.000007  0.000065  0.123074 -0.150934
  6H   2s         0.003144  0.012200 -0.000015  0.000046  0.037213 -0.090501
  7H   1s        -0.014589  0.049609 -0.063293  0.095580 -0.049417 -0.092416
  7H   2s        -0.006883  0.005559 -0.009994  0.032157 -0.013826 -0.060454
  8H   1s        -0.029893 -0.004746 -0.068332 -0.082797 -0.074380 -0.118420
  8H   2s         0.003761  0.003724 -0.012554 -0.024658 -0.029329 -0.063968
  9H   1s        -0.014583  0.049576  0.063288 -0.095606 -0.049329 -0.092382
  9H   2s        -0.006855  0.005462  0.009981 -0.032160 -0.013859 -0.060386
 10H   1s        -0.029899 -0.004759  0.068336  0.082731 -0.074467 -0.118422
 10H   2s         0.003746  0.003763  0.012560  0.024617 -0.029333 -0.063968
                     12        13        14        15        16        17   
                  -0.47293  -0.46791  -0.42488  -0.39975  -0.39070  -0.36026
                   2.00000   2.00000   2.00000   2.00000   2.00000   2.00000
                  --------  --------  --------  --------  --------  --------
  0C   1s         0.000025  0.058511  0.000006  0.009835  0.000000 -0.000003
  0C   2s        -0.000051 -0.119010 -0.000054 -0.029505 -0.000001  0.000024
  0C   1pz        0.001008 -0.000002  0.000366  0.000467 -0.177711 -0.001103
  0C   1px        0.202578  0.000868  0.073067 -0.239229  0.000367 -0.221747
  0C   1py        0.171523 -0.001227  0.061932  0.282607  0.000611 -0.187730
  0C   3s        -0.000037 -0.164130  0.000061 -0.016189  0.000004 -0.000072
  0C   2pz        0.000373  0.000006 -0.000052  0.000116 -0.101781 -0.000431
  0C   2px        0.075012 -0.003124 -0.010442 -0.058996  0.000213 -0.086679
  0C   2py        0.063498  0.003445 -0.008909  0.069697  0.000344 -0.073369
  0C   1dz2      -0.000001  0.001535 -0.000003 -0.004187  0.000019  0.000001
  0C   1dxz       0.000007  0.000046  0.000020 -0.000071 -0.005768 -0.000016
  0C   1dyz      -0.000016  0.000012 -0.000050 -0.000010  0.006806  0.000039
  0C   1dx2y2     0.004373  0.002292  0.013408 -0.003845  0.000035 -0.010246
  0C   1dxy      -0.000720  0.013743 -0.002247 -0.022963  0.000005  0.001711
  1C   1s        -0.008761 -0.052390 -0.019706  0.021154  0.000000 -0.001686
  1C   2s         0.019892  0.105239  0.044366 -0.042535  0.000000 -0.002377
  1C   1pz       -0.000089  0.000873 -0.001054  0.000124 -0.187908  0.000833
  1C   1px       -0.236623  0.085097 -0.061825  0.179672  0.000396  0.222780
  1C   1py        0.119010  0.204419 -0.271991 -0.074645  0.000639  0.107884
  1C   3s         0.009197  0.144300  0.078302 -0.098134 -0.000008  0.045754
  1C   2pz        0.000048  0.000265 -0.000346  0.000068 -0.103322  0.000190
  1C   2px       -0.060090  0.016045 -0.038278  0.038089  0.000216  0.077665
  1C   2py        0.050431  0.067405 -0.078332 -0.003842  0.000348  0.008202
  1C   1dz2       0.000049 -0.003222  0.002331  0.000815  0.000062 -0.002559
  1C   1dxz       0.000021  0.000014 -0.000040 -0.000065  0.002033  0.000002
  1C   1dyz       0.000005  0.000085 -0.000040 -0.000021  0.009163  0.000092
  1C   1dx2y2     0.001634 -0.013791  0.001587 -0.004602  0.000027 -0.017485
  1C   1dxy       0.005171  0.009017 -0.010122 -0.015321 -0.000027  0.008513
  2C   1s         0.014626  0.052856 -0.018403 -0.026744 -0.000000  0.002382
  2C   2s        -0.028373 -0.108017  0.043836  0.058646  0.000000  0.003956
  2C   1pz       -0.000944 -0.000501 -0.000487 -0.000144 -0.239885 -0.000811
  2C   1px        0.004586 -0.135418 -0.265409 -0.183592  0.000495 -0.195069
  2C   1py       -0.279680 -0.064107  0.019080  0.069061  0.000819 -0.118818
  2C   3s        -0.000170 -0.134518  0.054790  0.076669 -0.000005 -0.039045
  2C   2pz       -0.000400 -0.000123 -0.000207  0.000076 -0.136928 -0.000246
  2C   2px       -0.014000 -0.038708 -0.078210 -0.067007  0.000280 -0.038250
  2C   2py       -0.108347 -0.011712 -0.012754  0.062718  0.000474 -0.048608
  2C   1dz2      -0.001625  0.001461  0.001905  0.000853  0.000085  0.001809
  2C   1dxz      -0.000003 -0.000033 -0.000049  0.000003  0.011080 -0.000061
  2C   1dyz       0.000045  0.000056 -0.000011  0.000012  0.007610  0.000066
  2C   1dx2y2    -0.008769 -0.017488 -0.005559 -0.002932  0.000003 -0.023502
  2C   1dxy       0.002753  0.002409 -0.009051  0.003529 -0.000054 -0.001534
  3C   1s         0.008713 -0.052403  0.019703  0.021155  0.000000  0.001691
  3C   2s        -0.019787  0.105244 -0.044399 -0.042572 -0.000001  0.002385
  3C   1pz       -0.000701 -0.000618 -0.000633 -0.000553 -0.187882  0.000988
  3C   1px        0.078124 -0.215644 -0.278490  0.044055  0.000392  0.143195
  3C   1py       -0.253038 -0.049996 -0.016210 -0.189563  0.000638  0.201940
  3C   3s        -0.008952  0.144340 -0.078432 -0.098046  0.000003 -0.045842
  3C   2pz       -0.000147 -0.000163 -0.000259 -0.000136 -0.103397  0.000302
  3C   2px        0.039987 -0.069226 -0.083735 -0.002585  0.000209  0.020914
  3C   2py       -0.067719 -0.004747 -0.024785 -0.038173  0.000348  0.075322
  3C   1dz2      -0.000055 -0.003223 -0.002331  0.000816 -0.000037  0.002562
  3C   1dxz      -0.000019  0.000058  0.000049 -0.000059 -0.009378 -0.000057
  3C   1dyz      -0.000011 -0.000027  0.000016 -0.000036 -0.000493  0.000046
  3C   1dx2y2    -0.000119  0.015971  0.004796 -0.000634  0.000018 -0.019303
  3C   1dxy      -0.005432  0.004053  0.009058 -0.015983  0.000033 -0.002364
  4C   1s        -0.014577  0.052868  0.018406 -0.026757 -0.000000 -0.002391
  4C   2s         0.028302 -0.108054 -0.043846  0.058663  0.000001 -0.003920
  4C   1pz       -0.000401  0.000598 -0.000953  0.000581 -0.239890 -0.000899
  4C   1px       -0.275011  0.085786 -0.024943 -0.037813  0.000500 -0.149365
  4C   1py        0.050730  0.122993 -0.264883  0.192550  0.000820 -0.172798
  4C   3s        -0.000297 -0.134326 -0.054675  0.077032  0.000017  0.039011
  4C   2pz       -0.000214  0.000164 -0.000308  0.000159 -0.136856 -0.000214
  4C   2px       -0.109192  0.018272 -0.025590 -0.050588  0.000300 -0.054432
  4C   2py        0.003865  0.036225 -0.074918  0.076502  0.000461 -0.029703
  4C   1dz2       0.001636  0.001451 -0.001902  0.000839 -0.000091 -0.001803
  4C   1dxz      -0.000024  0.000019  0.000037  0.000013 -0.009334 -0.000008
  4C   1dyz       0.000022 -0.000075  0.000041 -0.000013 -0.009668  0.000104
  4C   1dx2y2    -0.009176  0.017335 -0.002314  0.003934 -0.000013 -0.021733
  4C   1dxy       0.000246 -0.003408  0.010361  0.002384  0.000053  0.009088
  5N   1s        -0.000025 -0.047447 -0.000001  0.030050  0.000001 -0.000000
  5N   2s         0.000040  0.108613 -0.000004 -0.069200  0.000001 -0.000019
  5N   1pz        0.001129  0.000049  0.000243  0.000249 -0.305528  0.000868
  5N   1px        0.226738 -0.025347  0.048297 -0.125594  0.000638  0.173612
  5N   1py        0.191978  0.029745  0.040904  0.148302  0.001045  0.146994
  5N   3s         0.000224  0.159745  0.000050 -0.064274 -0.000013  0.000145
  5N   2pz        0.000288  0.000024  0.000024  0.000150 -0.175873  0.000368
  5N   2px        0.057949 -0.011534  0.004593 -0.074746  0.000381  0.073515
  5N   2py        0.049182  0.013781  0.003866  0.088573  0.000609  0.062282
  5N   1dz2      -0.000003  0.002338  0.000000 -0.005289 -0.000048 -0.000003
  5N   1dxz      -0.000016 -0.000034 -0.000019 -0.000044  0.014315 -0.000023
  5N   1dyz       0.000039 -0.000024  0.000047  0.000006 -0.016908  0.000057
  5N   1dx2y2    -0.010345 -0.001123 -0.012489 -0.002801 -0.000089 -0.015126
  5N   1dxy       0.001728 -0.006705  0.002091 -0.016657 -0.000014  0.002533
  6H   1s        -0.000025 -0.066060  0.000024  0.240775  0.000004  0.000012
  6H   2s        -0.000025 -0.039866  0.000047  0.238948  0.000006  0.000031
  7H   1s         0.022457  0.184444 -0.151382 -0.030178 -0.000000  0.141469
  7H   2s         0.009402  0.131985 -0.140853 -0.023153  0.000003  0.149895
  8H   1s        -0.035540 -0.136249 -0.137052 -0.076492 -0.000003 -0.157399
  8H   2s        -0.021415 -0.093806 -0.123694 -0.073945 -0.000002 -0.163531
  9H   1s        -0.022267  0.184415  0.151400 -0.030213 -0.000001 -0.141501
  9H   2s        -0.009190  0.131887  0.140821 -0.023252 -0.000003 -0.149879
 10H   1s         0.035426 -0.136300  0.137031 -0.076544 -0.000000  0.157401
 10H   2s         0.021283 -0.093826  0.123670 -0.073936 -0.000003  0.163510
                     18        19        20        21        22        23   
                  -0.28226  -0.25781  -0.24881  -0.01904  -0.00607   0.09628
                   2.00000   2.00000   2.00000   0.00000   0.00000   0.00000
                  --------  --------  --------  --------  --------  --------
  0C   1s        -0.000000 -0.000000 -0.001911  0.000000  0.000001  0.049009
  0C   2s         0.000000  0.000001  0.009881  0.000001 -0.000001 -0.077342
  0C   1pz        0.355022 -0.000091 -0.000061  0.379090  0.000186 -0.000246
  0C   1px       -0.000743  0.000002  0.032663 -0.000791 -0.000001  0.129331
  0C   1py       -0.001212 -0.000000 -0.038586 -0.001293 -0.000001 -0.152768
  0C   3s        -0.000002 -0.000003 -0.092299 -0.000011 -0.000019 -0.756442
  0C   2pz        0.239138 -0.000006  0.000016  0.491549 -0.000009 -0.000562
  0C   2px       -0.000510 -0.000007 -0.007533 -0.001030  0.000007  0.291760
  0C   2py       -0.000817  0.000004  0.008706 -0.001679  0.000002 -0.344729
  0C   1dz2      -0.000016 -0.000125  0.001675  0.000024  0.000201 -0.002445
  0C   1dxz       0.004811 -0.014551  0.000031 -0.007085  0.023237 -0.000077
  0C   1dyz      -0.005678 -0.012316  0.000005  0.008374  0.019675 -0.000020
  0C   1dx2y2    -0.000030 -0.000012  0.001638  0.000043  0.000019 -0.003844
  0C   1dxy      -0.000005  0.000076  0.009820  0.000007 -0.000121 -0.023019
  1C   1s        -0.000000  0.000001  0.022289 -0.000000 -0.000001  0.039839
  1C   2s        -0.000002 -0.000001 -0.051154 -0.000001 -0.000003 -0.062398
  1C   1pz        0.207500 -0.296249  0.000254 -0.168697  0.315181 -0.000647
  1C   1px       -0.000431  0.000613 -0.108120  0.000351 -0.000657 -0.041574
  1C   1py       -0.000709  0.001016  0.137050  0.000574 -0.001074 -0.165956
  1C   3s         0.000008 -0.000007 -0.106676 -0.000002  0.000012 -0.619106
  1C   2pz        0.145153 -0.215474 -0.000109 -0.233612  0.415361 -0.001448
  1C   2px       -0.000310  0.000445 -0.126212  0.000477 -0.000875 -0.151233
  1C   2py       -0.000485  0.000730  0.042539  0.000802 -0.001402 -0.331625
  1C   1dz2      -0.000052  0.000022 -0.001498 -0.000059  0.000045 -0.002012
  1C   1dxz      -0.015024 -0.007088  0.000020 -0.026768 -0.011079  0.000037
  1C   1dyz       0.000508  0.008016  0.000032  0.006458  0.014473  0.000089
  1C   1dx2y2     0.000033  0.000042 -0.003100  0.000078  0.000073 -0.012560
  1C   1dxy       0.000050  0.000007  0.006176  0.000078  0.000008  0.016491
  2C   1s         0.000000 -0.000001 -0.023127 -0.000000  0.000001  0.033880
  2C   2s        -0.000001  0.000002  0.057429  0.000002  0.000001 -0.067179
  2C   1pz       -0.117864 -0.300739 -0.000480 -0.205200 -0.330753 -0.000265
  2C   1px        0.000245  0.000632  0.053238  0.000429  0.000693 -0.089599
  2C   1py        0.000404  0.001020 -0.176279  0.000699  0.001130 -0.022359
  2C   3s         0.000000 -0.000007  0.044152 -0.000000 -0.000007 -0.359676
  2C   2pz       -0.085857 -0.204076  0.000138 -0.226644 -0.411615 -0.000536
  2C   2px        0.000176  0.000425  0.008500  0.000462  0.000854 -0.225721
  2C   2py        0.000301  0.000701  0.032422  0.000783  0.001418 -0.019439
  2C   1dz2       0.000120 -0.000034 -0.002010 -0.000174  0.000035 -0.002478
  2C   1dxz      -0.000304  0.005779  0.000121 -0.001734 -0.011492  0.000029
  2C   1dyz       0.020472 -0.009337 -0.000001 -0.028432  0.012953 -0.000041
  2C   1dx2y2     0.000071 -0.000043  0.017800 -0.000093  0.000069  0.014475
  2C   1dxy      -0.000042  0.000001  0.022483  0.000065  0.000012 -0.003067
  3C   1s        -0.000000  0.000001  0.022298 -0.000000 -0.000000  0.039726
  3C   2s         0.000001 -0.000003 -0.051150 -0.000000 -0.000001 -0.062408
  3C   1pz        0.207599  0.296114  0.000186 -0.168669 -0.315111  0.000397
  3C   1px       -0.000432 -0.000623 -0.117350  0.000350  0.000659  0.170104
  3C   1py       -0.000708 -0.001005  0.129256  0.000575  0.001075  0.013521
  3C   3s         0.000015 -0.000005 -0.107009  0.000012 -0.000006 -0.616256
  3C   2pz        0.145413  0.215452  0.000394 -0.233382 -0.415397  0.001040
  3C   2px       -0.000287 -0.000434 -0.021513  0.000482  0.000840  0.350531
  3C   2py       -0.000510 -0.000734  0.131352  0.000796  0.001440  0.093386
  3C   1dz2       0.000095 -0.000025 -0.001488  0.000155 -0.000034 -0.002012
  3C   1dxz       0.001986  0.006744  0.000032 -0.001964  0.012443  0.000083
  3C   1dyz       0.014896 -0.008322  0.000003  0.027474 -0.013289 -0.000023
  3C   1dx2y2     0.000047 -0.000042  0.004939  0.000098 -0.000072  0.017230
  3C   1dxy      -0.000038 -0.000006  0.004839 -0.000051 -0.000014  0.011500
  4C   1s         0.000000 -0.000001 -0.023140 -0.000000  0.000000  0.033877
  4C   2s         0.000000  0.000004  0.057439  0.000000  0.000003 -0.067113
  4C   1pz       -0.117757  0.300795  0.000052 -0.205418  0.330658  0.000364
  4C   1px        0.000245 -0.000620  0.165139  0.000427 -0.000690  0.036741
  4C   1py        0.000404 -0.001030 -0.081608  0.000700 -0.001129  0.084385
  4C   3s        -0.000005 -0.000018  0.044806  0.000004  0.000008 -0.359376
  4C   2pz       -0.085865  0.203972 -0.000086 -0.226841  0.411410  0.000869
  4C   2px        0.000196 -0.000433 -0.033043  0.000471 -0.000881  0.057051
  4C   2py        0.000277 -0.000699 -0.002708  0.000764 -0.001381  0.218439
  4C   1dz2      -0.000051  0.000013 -0.002034  0.000085 -0.000040 -0.002479
  4C   1dxz      -0.020144 -0.008249  0.000080  0.028330  0.010885 -0.000015
  4C   1dyz       0.003678  0.007231  0.000101 -0.002974 -0.013472  0.000068
  4C   1dx2y2     0.000055  0.000041 -0.009501 -0.000069 -0.000069 -0.014661
  4C   1dxy       0.000061  0.000014  0.027050 -0.000090 -0.000010  0.001816
  5N   1s        -0.000000  0.000003  0.074053 -0.000000 -0.000001  0.005490
  5N   2s         0.000001 -0.000009 -0.160289 -0.000001 -0.000002 -0.026002
  5N   1pz       -0.342633  0.000100  0.000632  0.370887  0.000068 -0.000086
  5N   1px        0.000717 -0.000014 -0.327440 -0.000775 -0.000002  0.044107
  5N   1py        0.001167  0.000015  0.386702 -0.001265  0.000000 -0.052185
  5N   3s        -0.000004  0.000005 -0.248551  0.000009  0.000028 -0.014342
  5N   2pz       -0.234100  0.000139  0.000463  0.408869  0.000135 -0.000172
  5N   2px        0.000502 -0.000012 -0.239197 -0.000855 -0.000001  0.088230
  5N   2py        0.000807  0.000013  0.283025 -0.001394  0.000003 -0.103834
  5N   1dz2      -0.000038 -0.000119 -0.015917  0.000014 -0.000190 -0.000222
  5N   1dxz       0.011361 -0.013681  0.000006 -0.004220 -0.021959 -0.000025
  5N   1dyz      -0.013429 -0.011571  0.000073  0.005002 -0.018585 -0.000009
  5N   1dx2y2    -0.000070 -0.000011 -0.002373  0.000026 -0.000018 -0.001163
  5N   1dxy      -0.000011  0.000071 -0.013999  0.000004  0.000114 -0.006892
  6H   1s        -0.000000 -0.000001 -0.053422 -0.000001 -0.000002  0.081155
  6H   2s        -0.000003 -0.000006 -0.075436  0.000001  0.000002  1.082188
  7H   1s        -0.000001  0.000003  0.054084 -0.000000 -0.000003  0.065964
  7H   2s        -0.000007  0.000008  0.103618 -0.000002 -0.000018  0.893153
  8H   1s        -0.000001  0.000005  0.091102  0.000002  0.000002  0.041466
  8H   2s        -0.000001  0.000006  0.108525  0.000009  0.000003  0.554542
  9H   1s         0.000000  0.000004  0.054076 -0.000001 -0.000004  0.065906
  9H   2s         0.000002  0.000012  0.103436 -0.000011 -0.000014  0.889879
 10H   1s        -0.000002  0.000004  0.091122 -0.000000  0.000002  0.041421
 10H   2s        -0.000005  0.000006  0.108698 -0.000013  0.000011  0.553212
                     24        25        26        27        28        29   
                   0.14079   0.15004   0.15765   0.17863   0.17964   0.24495
                   0.00000   0.00000   0.00000   0.00000   0.00000   0.00000
                  --------  --------  --------  --------  --------  --------
  0C   1s        -0.000016 -0.000002  0.064774  0.087548 -0.000799 -0.052003
  0C   2s        -0.000146  0.000000 -0.074196 -0.189043  0.001536  0.083239
  0C   1pz        0.000061 -0.289756 -0.000248 -0.000118 -0.000343 -0.000347
  0C   1px        0.014033  0.000601  0.126470  0.054259 -0.071102  0.178945
  0C   1py        0.011675  0.000986 -0.149162 -0.065388 -0.059462 -0.211388
  0C   3s         0.001576  0.000039 -1.580616 -0.576177  0.005016  1.128018
  0C   2pz       -0.000898 -0.532849 -0.000612 -0.001382 -0.001455 -0.001564
  0C   2px       -0.176640  0.001118  0.315858  0.703122 -0.303889  0.809239
  0C   2py       -0.150243  0.001834 -0.372828 -0.835163 -0.244236 -0.953884
  0C   1dz2      -0.000016 -0.000037  0.003438 -0.009705  0.000091 -0.000184
  0C   1dxz      -0.000018  0.010827  0.000002  0.000084  0.000023  0.000005
  0C   1dyz       0.000043 -0.012795 -0.000015  0.000076 -0.000061  0.000003
  0C   1dx2y2    -0.011577 -0.000066  0.000626  0.002365  0.016201  0.000139
  0C   1dxy       0.001904 -0.000011  0.003816  0.013025 -0.002854  0.001139
  1C   1s        -0.041136  0.000002 -0.007899 -0.069593 -0.072529  0.012994
  1C   2s         0.046255 -0.000003  0.001163  0.155880  0.111395  0.034299
  1C   1pz        0.000915  0.302018 -0.000104  0.000402  0.000306  0.000186
  1C   1px        0.101984 -0.000630 -0.056663 -0.000706  0.056140  0.070430
  1C   1py        0.204769 -0.001036  0.003398  0.119204  0.058490  0.011542
  1C   3s         0.951292 -0.000058  0.199392  0.453751  1.280007 -0.797928
  1C   2pz        0.002283  0.535187 -0.000918  0.004291  0.001924  0.001976
  1C   2px        0.151400 -0.001106 -0.466851  0.272505  0.416089  0.599136
  1C   2py        0.571368 -0.001825  0.015438  1.090939  0.313675  0.213335
  1C   1dz2      -0.001408  0.000125 -0.000253  0.009536  0.001760 -0.001531
  1C   1dxz       0.000027  0.006263  0.000002 -0.000060  0.000024  0.000125
  1C   1dyz      -0.000032  0.017263  0.000013 -0.000013  0.000032 -0.000048
  1C   1dx2y2     0.011652  0.000045 -0.002352 -0.012589 -0.005234  0.027635
  1C   1dxy      -0.000647 -0.000057  0.001552  0.000023  0.012136  0.018119
  2C   1s        -0.020515  0.000003 -0.069086  0.036305  0.073877  0.047258
  2C   2s         0.022477 -0.000001  0.104273 -0.082158 -0.125052 -0.031162
  2C   1pz        0.000558 -0.290680  0.000212 -0.000302 -0.000524  0.000544
  2C   1px        0.204827  0.000597  0.182999 -0.074264 -0.125045  0.135443
  2C   1py        0.041596  0.000988 -0.048804 -0.042385 -0.079902  0.074890
  2C   3s         0.613202 -0.000066  1.093415  0.113307 -1.155183 -0.935318
  2C   2pz        0.000834 -0.494515  0.001316 -0.002382 -0.002727  0.004087
  2C   2px        0.472840  0.000972  0.604062 -0.691654 -0.543352  0.458756
  2C   2py       -0.039336  0.001708  0.017507 -0.274336 -0.471048  0.918238
  2C   1dz2      -0.002643 -0.000085  0.004185 -0.008252 -0.004549 -0.009881
  2C   1dxz      -0.000010 -0.016021 -0.000050  0.000020 -0.000023  0.000058
  2C   1dyz       0.000067 -0.004659 -0.000067  0.000054  0.000040  0.000148
  2C   1dx2y2    -0.013474  0.000018  0.004453 -0.002504 -0.008014 -0.016076
  2C   1dxy       0.002771  0.000064 -0.012954 -0.001445 -0.006734  0.016423
  3C   1s         0.041240  0.000001 -0.007957 -0.068128  0.073911  0.012785
  3C   2s        -0.046490  0.000000  0.001165  0.153638 -0.114700  0.034530
  3C   1pz        0.000693  0.302014  0.000211 -0.000158  0.000293 -0.000279
  3C   1px        0.219182 -0.000635  0.006212 -0.116132  0.069478 -0.022724
  3C   1py        0.066778 -0.001030  0.056341  0.021120  0.045412 -0.067080
  3C   3s        -0.952916  0.000018  0.199885  0.427749 -1.288831 -0.790714
  3C   2pz        0.001425  0.535217  0.001706 -0.002589  0.002045 -0.002535
  3C   2px        0.588610 -0.001086  0.061108 -1.114735  0.399433 -0.304393
  3C   2py        0.053360 -0.001834  0.463011 -0.079663  0.360707 -0.557875
  3C   1dz2       0.001412 -0.000085 -0.000249  0.009505 -0.001933 -0.001554
  3C   1dxz       0.000007 -0.018062  0.000009 -0.000025 -0.000044  0.000052
  3C   1dyz      -0.000053 -0.003326 -0.000007 -0.000105  0.000022  0.000133
  3C   1dx2y2     0.011285  0.000026  0.002763  0.011721 -0.009097 -0.020219
  3C   1dxy      -0.003156  0.000068  0.000727 -0.004237 -0.009685  0.026123
  4C   1s         0.020701 -0.000002 -0.068913  0.034783 -0.074713  0.047338
  4C   2s        -0.022766  0.000000  0.104020 -0.079692  0.126733 -0.031225
  4C   1pz        0.000806 -0.290815 -0.000599  0.000322 -0.000581 -0.000625
  4C   1px        0.074869  0.000601  0.018194  0.052009 -0.100369 -0.095907
  4C   1py        0.195543  0.000982 -0.187974  0.064112 -0.111718 -0.121723
  4C   3s        -0.616156  0.000044  1.090054  0.138056  1.155491 -0.936428
  4C   2pz        0.001684 -0.494444 -0.002261  0.002916 -0.002764 -0.003082
  4C   2px        0.039897  0.001037 -0.116867  0.372736 -0.561118 -0.976893
  4C   2py        0.474063  0.001619 -0.590696  0.629313 -0.471487 -0.307093
  4C   1dz2       0.002632  0.000115  0.004197 -0.008178  0.004718 -0.009891
  4C   1dxz      -0.000031  0.007237 -0.000070  0.000026  0.000002  0.000113
  4C   1dyz       0.000035  0.015035 -0.000019  0.000039  0.000009  0.000010
  4C   1dx2y2    -0.013670  0.000036 -0.008457  0.001782 -0.005453  0.020585
  4C   1dxy       0.001787 -0.000055 -0.010825 -0.002026  0.008994  0.010325
  5N   1s        -0.000026 -0.000000  0.036688  0.009306 -0.000033 -0.110764
  5N   2s         0.000036 -0.000002 -0.084085  0.048975 -0.000561  0.171772
  5N   1pz        0.000173  0.317923 -0.000077  0.000067  0.000325  0.000206
  5N   1px        0.031579 -0.000661  0.040961 -0.029753  0.067830 -0.108593
  5N   1py        0.026706 -0.001082 -0.048468  0.036588  0.056674  0.128285
  5N   3s         0.000163  0.000012 -0.310236 -0.733364  0.006129  2.247083
  5N   2pz       -0.000411  0.443926  0.000060 -0.000366  0.000233  0.001013
  5N   2px       -0.085841 -0.000907 -0.031648  0.192109  0.046625 -0.514152
  5N   2py       -0.072746 -0.001495  0.036151 -0.226165  0.043069  0.610798
  5N   1dz2      -0.000005  0.000000 -0.002968  0.008540 -0.000082 -0.014532
  5N   1dxz       0.000019 -0.000013  0.000075 -0.000056  0.000014  0.000078
  5N   1dyz      -0.000046  0.000029  0.000043 -0.000061 -0.000033  0.000097
  5N   1dx2y2     0.012181 -0.000001  0.002900 -0.001050  0.008900  0.001025
  5N   1dxy      -0.002059  0.000000  0.017168 -0.006820 -0.001407  0.006650
  6H   1s         0.000086  0.000001  0.016725  0.043777 -0.000447  0.017140
  6H   2s         0.000379 -0.000024  1.242271  1.404215 -0.012454  1.000769
  7H   1s        -0.044099  0.000000  0.010174 -0.047312 -0.008740 -0.036571
  7H   2s        -1.189068  0.000027  0.085280 -1.391816 -0.978464 -0.227995
  8H   1s        -0.040243  0.000005 -0.040999  0.044876  0.032374  0.007197
  8H   2s        -0.916343  0.000084 -1.228012  0.777459  1.212029 -0.245579
  9H   1s         0.044267  0.000004  0.010198 -0.047171  0.009694 -0.036378
  9H   2s         1.190167  0.000013  0.084618 -1.372731  1.005770 -0.225760
 10H   1s         0.040429 -0.000004 -0.040895  0.044278 -0.033372  0.007111
 10H   2s         0.919253 -0.000085 -1.224013  0.753968 -1.229175 -0.249168
                     30        31        32        33        34        35   
                   0.29790   0.32387   0.32436   0.45783   0.46295   0.51906
                   0.00000   0.00000   0.00000   0.00000   0.00000   0.00000
                  --------  --------  --------  --------  --------  --------
  0C   1s        -0.000034 -0.063877  0.013313  0.083231 -0.000375 -0.000000
  0C   2s         0.000225  0.024826 -0.005230  0.073601 -0.000029 -0.000000
  0C   1pz        0.000707 -0.000288 -0.000988  0.000134 -0.000307  0.465069
  0C   1px        0.141854 -0.000627 -0.208734 -0.074940 -0.056485 -0.000954
  0C   1py        0.120506 -0.084801 -0.158926  0.087694 -0.048471 -0.001567
  0C   3s         0.003158  2.545953 -0.528320 -3.790091  0.018276 -0.000037
  0C   2pz        0.007012 -0.001652 -0.003234  0.003447  0.009014 -0.363573
  0C   2px        1.407484  0.332977 -0.789225 -1.734160  1.821120  0.000940
  0C   2py        1.192108 -0.687165 -0.467765  2.069199  1.523334  0.001404
  0C   1dz2      -0.000027  0.001609 -0.000385 -0.005118 -0.000040 -0.000041
  0C   1dxz      -0.000071 -0.000169  0.000010 -0.000016 -0.000059  0.012225
  0C   1dyz       0.000175 -0.000061  0.000075  0.000018  0.000148 -0.014516
  0C   1dx2y2    -0.046186 -0.010186 -0.014242 -0.001718 -0.039065 -0.000080
  0C   1dxy       0.007660 -0.041737  0.011471 -0.009064  0.006726 -0.000010
  1C   1s         0.074408 -0.004202  0.018484 -0.109188  0.002351  0.000001
  1C   2s        -0.070433 -0.026393 -0.039930  0.232867 -0.016165  0.000012
  1C   1pz        0.000826  0.000450  0.000363 -0.000742  0.000133  0.443340
  1C   1px        0.161403  0.206597 -0.083817  0.077167  0.359958 -0.000888
  1C   1py        0.147205  0.003537  0.159412 -0.264688 -0.172485 -0.001506
  1C   3s        -2.350739  0.396948 -0.086507  3.421939  0.015731 -0.000024
  1C   2pz        0.004609  0.003014  0.001433 -0.010691  0.001335 -0.286506
  1C   2px        0.640083  1.523423 -1.261255 -1.104702  1.564592  0.000769
  1C   2py        0.959416 -0.046725  1.191887 -2.459895 -0.572233  0.000873
  1C   1dz2      -0.002100  0.005378 -0.001937 -0.008297  0.003046 -0.000143
  1C   1dxz      -0.000034  0.000088 -0.000135  0.000013 -0.000125 -0.006476
  1C   1dyz      -0.000065  0.000083  0.000115  0.000028 -0.000041 -0.019837
  1C   1dx2y2     0.011019 -0.010307 -0.040845  0.002070 -0.009734 -0.000053
  1C   1dxy      -0.018991  0.038043 -0.016851 -0.006333 -0.027549  0.000060
  2C   1s        -0.018354 -0.000875 -0.085685  0.061957  0.017520 -0.000000
  2C   2s         0.022829 -0.027775  0.106274  0.278209 -0.090617  0.000014
  2C   1pz       -0.000068 -0.000852 -0.000401 -0.000470  0.000654  0.477244
  2C   1px       -0.165777  0.062441 -0.210378  0.037283  0.013111 -0.000993
  2C   1py        0.078695 -0.285685  0.011641 -0.161538  0.194585 -0.001616
  2C   3s         0.207912 -0.132601  2.263903 -3.033627 -0.077851 -0.000057
  2C   2pz        0.000782 -0.005430 -0.002022  0.003669 -0.007405 -0.439363
  2C   2px       -1.058558 -0.060209 -0.931353  1.937491  0.391379  0.000932
  2C   2py        0.878041 -1.557679 -0.022081 -0.109162 -2.420415  0.001258
  2C   1dz2       0.000513  0.003619  0.011612 -0.026581 -0.010724  0.000028
  2C   1dxz      -0.000001 -0.000048  0.000040 -0.000068 -0.000112 -0.008823
  2C   1dyz       0.000107 -0.000053 -0.000163  0.000050  0.000059  0.010136
  2C   1dx2y2    -0.023623  0.002362  0.030903  0.001332 -0.018881  0.000052
  2C   1dxy       0.014350 -0.011529  0.005135 -0.048714 -0.032621  0.000008
  3C   1s        -0.074548 -0.010857 -0.015402 -0.109186 -0.001116 -0.000003
  3C   2s         0.070842 -0.007996  0.047566  0.232736  0.014019 -0.000010
  3C   1pz        0.000801 -0.000757  0.000235  0.000112  0.001055  0.444418
  3C   1px        0.171521  0.020937  0.146571  0.247107 -0.114001 -0.000910
  3C   1py        0.134511 -0.229612 -0.018466 -0.115514  0.386264 -0.001496
  3C   3s         2.356397  0.385896 -0.076669  3.421713 -0.052917  0.000075
  3C   2pz        0.003794 -0.006264 -0.000434  0.007834  0.004882 -0.288040
  3C   2px        1.054979  0.192163  0.969779  2.604785 -0.333056  0.000556
  3C   2py        0.465777 -1.957872 -0.721258  0.702572  1.631071  0.001202
  3C   1dz2       0.002092  0.005631 -0.000334 -0.008347 -0.003046  0.000096
  3C   1dxz       0.000077  0.000136 -0.000034  0.000004  0.000108  0.020639
  3C   1dyz      -0.000040  0.000028  0.000164  0.000053  0.000080  0.003162
  3C   1dx2y2     0.016768  0.006987 -0.039144 -0.004044 -0.000235 -0.000032
  3C   1dxy       0.014400  0.041443  0.013686 -0.004963  0.029031 -0.000075
  4C   1s         0.018279  0.033161  0.078949  0.061755 -0.018269  0.000003
  4C   2s        -0.022529 -0.067286 -0.086630  0.279282  0.087377 -0.000010
  4C   1pz       -0.000480 -0.000106 -0.000782  0.000094  0.000284  0.476564
  4C   1px        0.051936  0.239703 -0.129327  0.155503  0.191284 -0.000988
  4C   1py       -0.176919 -0.182151 -0.148592 -0.063741 -0.017499 -0.001624
  4C   3s        -0.210267 -1.023271 -2.022505 -3.031978  0.111190  0.000020
  4C   2pz       -0.002607  0.000947 -0.004214 -0.007034 -0.002044 -0.438180
[...]
    XC-Potential eval.      ....       1.081 sec  ( 26.4% of XC)
Diagonalization             ....       0.014 sec  (  0.1%)
Density matrix formation    ....       0.002 sec  (  0.0%)
Population analysis         ....       0.042 sec  (  0.2%)
Initial guess               ....       0.301 sec  (  1.3%)
Orbital Transformation      ....       0.000 sec  (  0.0%)
Orbital Orthonormalization  ....       0.000 sec  (  0.0%)
DIIS solution               ....       0.006 sec  (  0.0%)
SOSCF solution              ....       0.008 sec  (  0.0%)
Grid generation             ....       1.707 sec  (  7.3%)
------------------------------------------------------------------------------
                        ORCA TD-DFT/TDA CALCULATION
------------------------------------------------------------------------------

Input orbitals are from        ... /Users/lailaal-madhagi/Desktop/Testing_XAS_Analysis_code/Pyridine//Results_dir_Pyridine_geom_element_N_2019-11-27_20-35-22//GTE1_Pyridine_geom_2019-11-27_20-35-35//TDDFT_N-edge.gbw
CI-vector output               ... /Users/lailaal-madhagi/Desktop/Testing_XAS_Analysis_code/Pyridine//Results_dir_Pyridine_geom_element_N_2019-11-27_20-35-22//GTE1_Pyridine_geom_2019-11-27_20-35-35//TDDFT_N-edge.cis
Tamm-Dancoff approximation     ... operative
CIS-Integral strategy          ... AO-integrals
Integral handling              ... AO integral Direct
Max. core memory used          ... 512 MB
Reference state                ... RHF
Generation of triplets         ... off
Follow IRoot                   ... off
Number of operators            ... 1
Orbital ranges used for CIS calculation:
 Operator 0:  Orbitals   0...  0  to  21... 93
XAS localization array:
 Operator 0:  Orbitals  -1... -1
-------------------
XC-INTEGRATION GRID
-------------------

General Integration Accuracy     IntAcc      ...  3.670
Radial Grid Type                 RadialGrid  ... Gauss-Chebyshev
Angular Grid (max. acc.)         AngularGrid ... Lebedev-50
Angular grid pruning method      GridPruning ... 3 (G Style)
Weight generation scheme         WeightScheme... Becke
Basis function cutoff            BFCut       ...    1.0000e-11
Integration weight cutoff        WCut        ...    1.0000e-14
Grids for H and He will be reduced by one unit

# of grid points (after initial pruning)     ...   6416 (   0.0 sec)
# of grid points (after weights+screening)   ...   6082 (   0.0 sec)
nearest neighbour list constructed           ...    0.0 sec
Grid point re-assignment to atoms done       ...    0.0 sec
Grid point division into batches done        ...    0.0 sec
Reduced shell lists constructed in    0.0 sec

Total number of grid points                  ...     6082
Total number of batches                      ...       98
Average number of points per batch           ...       62
Average number of grid points per atom       ...      553
Average number of shells per batch           ...    38.53 (83.75%)
Average number of basis functions per batch  ...    81.35 (86.55%)
Average number of large shells per batch     ...    32.40 (84.11%)
Average number of large basis fcns per batch ...    68.93 (84.73%)
Maximum spatial batch extension              ...  18.22, 18.42, 30.56 au
Average spatial batch extension              ...   4.79,  4.94,  6.64 au


---------------
TD-DFT XC SETUP
---------------

DFT calculation                         ... on
Name of the grid file                   ... /Users/lailaal-madhagi/Desktop/Testing_XAS_Analysis_code/Pyridine//Results_dir_Pyridine_geom_element_N_2019-11-27_20-35-22//GTE1_Pyridine_geom_2019-11-27_20-35-35//TDDFT_N-edge.grid_cis.tmp
Exchange functional (SCF)               ... B88
Exchange functional (TD-DFT)            ... B88
   X-Alpha parameter    XAlpha (SCF)    ...  0.666667
   X-Alpha parameter    XAlpha (TD-DFT) ...  0.666667
   Becke's b parameter  XBeta (SCF)     ...  0.004200
   Becke's b parameter  XBeta (TD-DFT)  ...  0.004200
Correlation functional (SCF)            ... LYP
Correlation functional (TD-DFT)         ... LYP
 LDA part of GGA corr.  LDAOpt (SCF)    ... VWN-5
 LDA part of GGA corr.  LDAOpt (TD-DFT) ... VWN-5
Hybrid DFT                              ... on
   Exchange mixing (SCF)                ...  0.200
   Exchange mixing (TD-DFT)             ...  0.200
   GGA exch. scaling(SCF)               ...  0.720
   GGA exch. scaling (TD-DFT)           ...  0.720
   GGA corr. scaling (SCF)              ...  0.810
   GGA corr. scaling (TD-DFT)           ...  0.810

Building densities             ... done
Calculating rho(r) on the grid ... done
Building xc-kernel on the grid ... done
                    *** TD-DFT CALCULATION INITIALIZED ***


------------------------
DAVIDSON-DIAGONALIZATION
------------------------

Dimension of the eigenvalue problem            ...     73
Number of roots to be determined               ...     20
Maximum size of the expansion space            ...     73
Maximum number of iterations                   ...    100
Convergence tolerance for the residual         ...    2.500e-07
Convergence tolerance for the energies         ...    2.500e-07
Orthogonality tolerance                        ...    1.000e-14
Level Shift                                    ...    0.000e+00
Constructing the preconditioner                ... o.k.
Building the initial guess                     ... o.k.
Number of trial vectors determined             ...     73


                       ****Iteration    0****

   Memory handling for direct AO based CIS:
   Memory per vector needed      ...     1 MB
   Memory needed                 ...    16 MB
   Memory available              ...   512 MB
   Number of vectors per batch   ...   512
   Number of batches             ...     1
   Time for densities:     0.008
   Using LibInt in JK Direct
   Time for J+K (Direct):    70.774
   Time for XC-Integration:     2.545
   Time for Sigma-Completion:     0.088
   Size of expansion space: 60
   Lowest Energy          :    14.221988594183
   Maximum Energy change  :    14.873785660893 (vector 19)
   Maximum residual norm  :     0.000085209459
   Rebuilding the expansion space

                       ****Iteration    1****
   Time for densities:     0.006
   Using LibInt in JK Direct
   Time for J+K (Direct):    41.262
   Time for XC-Integration:     1.722
   Time for Sigma-Completion:     0.047
   Size of expansion space: 40
   Lowest Energy          :    14.221981408231
   Maximum Energy change  :     0.000041673353 (vector 16)
   Maximum residual norm  :     0.000000011145

      *** CONVERGENCE OF RESIDUAL NORM REACHED ***

Storing the converged CI vectors               ... /Users/lailaal-madhagi/Desktop/Testing_XAS_Analysis_code/Pyridine//Results_dir_Pyridine_geom_element_N_2019-11-27_20-35-22//GTE1_Pyridine_geom_2019-11-27_20-35-35//TDDFT_N-edge.cis1

                 *** DAVIDSON DONE ***

Total time for solving the CIS problem:   116.708sec

------------------------------------
TD-DFT/TDA EXCITED STATES (SINGLETS)
------------------------------------

the weight of the individual excitations are printed if larger than 1.0e-02

STATE  1:  E=  14.221981 au    387.000 eV  3121364.1 cm**-1
     0a ->  21a  :     0.969252 (c=  0.98450586)
     0a ->  25a  :     0.029471 (c=  0.17167134)

STATE  2:  E=  14.259221 au    388.013 eV  3129537.3 cm**-1
     0a ->  22a  :     0.999713 (c= -0.99985645)

STATE  3:  E=  14.381463 au    391.339 eV  3156366.2 cm**-1
     0a ->  23a  :     0.981665 (c=  0.99079019)
     0a ->  26a  :     0.015049 (c= -0.12267413)

STATE  4:  E=  14.410146 au    392.120 eV  3162661.5 cm**-1
     0a ->  21a  :     0.029834 (c=  0.17272507)
     0a ->  25a  :     0.969248 (c= -0.98450377)

STATE  5:  E=  14.422874 au    392.466 eV  3165455.0 cm**-1
     0a ->  24a  :     0.974907 (c= -0.98737379)
     0a ->  28a  :     0.022126 (c=  0.14874716)

STATE  6:  E=  14.435667 au    392.814 eV  3168262.7 cm**-1
     0a ->  23a  :     0.015312 (c=  0.12374270)
     0a ->  26a  :     0.943570 (c=  0.97137540)
     0a ->  27a  :     0.033871 (c= -0.18404020)

STATE  7:  E=  14.459981 au    393.476 eV  3173599.0 cm**-1
     0a ->  24a  :     0.020443 (c=  0.14297982)
     0a ->  28a  :     0.968030 (c=  0.98388531)

STATE  8:  E=  14.469833 au    393.744 eV  3175761.3 cm**-1
     0a ->  26a  :     0.033047 (c=  0.18178785)
     0a ->  27a  :     0.960682 (c=  0.98014412)

STATE  9:  E=  14.513553 au    394.934 eV  3185356.7 cm**-1
     0a ->  29a  :     0.982392 (c= -0.99115681)

STATE 10:  E=  14.567854 au    396.411 eV  3197274.4 cm**-1
     0a ->  30a  :     0.372949 (c=  0.61069535)
     0a ->  31a  :     0.025590 (c= -0.15996872)
     0a ->  32a  :     0.573118 (c= -0.75704560)
     0a ->  36a  :     0.013751 (c=  0.11726570)

STATE 11:  E=  14.576677 au    396.652 eV  3199210.8 cm**-1
     0a ->  30a  :     0.619830 (c=  0.78729283)
     0a ->  31a  :     0.015885 (c=  0.12603423)
     0a ->  32a  :     0.351475 (c=  0.59285304)

STATE 12:  E=  14.597587 au    397.221 eV  3203799.9 cm**-1
     0a ->  31a  :     0.948220 (c= -0.97376594)
     0a ->  32a  :     0.042499 (c=  0.20615267)

STATE 13:  E=  14.722774 au    400.627 eV  3231275.5 cm**-1
     0a ->  33a  :     0.990067 (c=  0.99502120)

STATE 14:  E=  14.731327 au    400.860 eV  3233152.6 cm**-1
     0a ->  34a  :     0.986754 (c= -0.99335517)

STATE 15:  E=  14.787639 au    402.392 eV  3245511.7 cm**-1
     0a ->  35a  :     0.971221 (c=  0.98550536)
     0a ->  40a  :     0.025809 (c=  0.16065286)

STATE 16:  E=  14.798520 au    402.688 eV  3247899.7 cm**-1
     0a ->  32a  :     0.018897 (c= -0.13746462)
     0a ->  36a  :     0.950307 (c= -0.97483700)
     0a ->  42a  :     0.019866 (c= -0.14094756)

STATE 17:  E=  14.845166 au    403.958 eV  3258137.3 cm**-1
     0a ->  38a  :     0.603159 (c= -0.77663332)
     0a ->  39a  :     0.015503 (c= -0.12450996)
     0a ->  41a  :     0.057039 (c= -0.23882889)
     0a ->  43a  :     0.317855 (c= -0.56378674)

STATE 18:  E=  14.858398 au    404.318 eV  3261041.4 cm**-1
     0a ->  38a  :     0.015738 (c=  0.12544979)
     0a ->  39a  :     0.814920 (c=  0.90272935)
     0a ->  41a  :     0.108295 (c= -0.32908246)
     0a ->  43a  :     0.054394 (c= -0.23322586)

STATE 19:  E=  14.860374 au    404.371 eV  3261475.0 cm**-1
     0a ->  37a  :     0.974033 (c= -0.98693132)
     0a ->  44a  :     0.025868 (c= -0.16083553)

STATE 20:  E=  14.873785 au    404.736 eV  3264418.5 cm**-1
     0a ->  35a  :     0.027472 (c= -0.16574669)
     0a ->  40a  :     0.959862 (c=  0.97972552)
     0a ->  46a  :     0.010254 (c=  0.10126156)


-----------------------------
TD-DFT/TDA-EXCITATION SPECTRA
-----------------------------

Center of mass = ( -1.6417, -0.7528, -0.0103)
Calculating the Dipole integrals                  ... done
Transforming integrals                            ... done
Calculating the Linear Momentum integrals         ... done
Transforming integrals                            ... done
Calculating angular momentum integrals            ... done
Transforming integrals                            ... done

-----------------------------------------------------------------------------
         ABSORPTION SPECTRUM VIA TRANSITION ELECTRIC DIPOLE MOMENTS
-----------------------------------------------------------------------------
State   Energy    Wavelength  fosc         T2        TX        TY        TZ  
        (cm-1)      (nm)                 (au**2)    (au)      (au)      (au) 
-----------------------------------------------------------------------------
   1 3121364.1      3.2   0.038006751   0.00401   0.00013   0.00022  -0.06331
   2 3129537.3      3.2   0.000000000   0.00000  -0.00000   0.00000   0.00001
   3 3156366.2      3.2   0.001205709   0.00013  -0.00724   0.00856   0.00001
   4 3162661.5      3.2   0.013044909   0.00136  -0.00008  -0.00013   0.03685
   5 3165455.0      3.2   0.000352664   0.00004   0.00462   0.00392   0.00002
   6 3168262.7      3.2   0.001595763   0.00017  -0.00830   0.00984   0.00002
   7 3173599.0      3.2   0.004312377   0.00045  -0.01616  -0.01365  -0.00008
   8 3175761.3      3.1   0.000140855   0.00001   0.00248  -0.00291  -0.00001
   9 3185356.7      3.1   0.006759847   0.00070  -0.01707   0.02018   0.00003
  10 3197274.4      3.1   0.030952605   0.00319  -0.04312  -0.03644  -0.00021
  11 3199210.8      3.1   0.001912976   0.00020   0.01073   0.00904   0.00005
  12 3203799.9      3.1   0.001293550   0.00013  -0.00735   0.00889   0.00002
  13 3231275.5      3.1   0.000263639   0.00003   0.00341  -0.00390  -0.00001
  14 3233152.6      3.1   0.004117155   0.00042  -0.01560  -0.01326  -0.00008
  15 3245511.7      3.1   0.003729396   0.00038   0.00005   0.00007  -0.01945
  16 3247899.7      3.1   0.022382440   0.00227   0.03645   0.03066   0.00018
  17 3258137.3      3.1   0.053158672   0.00537  -0.04723   0.05604   0.00010
  18 3261041.4      3.1   0.000077163   0.00001  -0.00183   0.00211   0.00000
  19 3261475.0      3.1   0.000000086   0.00000  -0.00001   0.00001   0.00009
  20 3264418.6      3.1   0.004125111   0.00042   0.00005   0.00008  -0.02040

-----------------------------------------------------------------------------
         ABSORPTION SPECTRUM VIA TRANSITION VELOCITY DIPOLE MOMENTS
-----------------------------------------------------------------------------
State   Energy    Wavelength   fosc        P2         PX        PY        PZ  
        (cm-1)      (nm)                 (au**2)     (au)      (au)      (au) 
-----------------------------------------------------------------------------
   1 3121364.1      3.2   0.036899242   0.78717  -0.00185  -0.00303   0.88722
   2 3129537.3      3.2   0.000000000   0.00000   0.00000  -0.00000  -0.00009
   3 3156366.2      3.2   0.001039664   0.02243   0.09669  -0.11436  -0.00019
   4 3162661.5      3.2   0.012779878   0.27624   0.00109   0.00178  -0.52558
   5 3165455.0      3.2   0.000351673   0.00761  -0.06653  -0.05640  -0.00032
   6 3168262.7      3.2   0.001757516   0.03806   0.12584  -0.14906  -0.00025
   7 3173599.0      3.2   0.003812398   0.08269   0.21968   0.18556   0.00108
   8 3175761.3      3.1   0.000132255   0.00287  -0.03471   0.04081   0.00007
   9 3185356.7      3.1   0.006263248   0.13635   0.23844  -0.28195  -0.00046
  10 3197274.4      3.1   0.030846027   0.67404   0.62699   0.53001   0.00312
  11 3199210.8      3.1   0.001831569   0.04005  -0.15307  -0.12890  -0.00077
  12 3203799.9      3.1   0.001062687   0.02327   0.09708  -0.11766  -0.00021
  13 3231275.5      3.1   0.000349594   0.00772  -0.05773   0.06624   0.00010
  14 3233152.6      3.1   0.004703958   0.10394   0.24568   0.20877   0.00124
  15 3245511.7      3.1   0.004016470   0.08909  -0.00070  -0.00104   0.29848
  16 3247899.7      3.1   0.021548939   0.47834  -0.52924  -0.44524  -0.00265
  17 3258137.3      3.1   0.051128563   1.13852   0.68768  -0.81585  -0.00138
  18 3261041.4      3.1   0.000052438   0.00117   0.02246  -0.02577  -0.00005
  19 3261475.0      3.1   0.000000085   0.00000   0.00010  -0.00011  -0.00137
  20 3264418.6      3.1   0.004043330   0.09021  -0.00071  -0.00115   0.30035

-------------------------------------------------------------------
                             CD SPECTRUM
-------------------------------------------------------------------
State  Energy     Wavelength     R         MX        MY        MZ   
       (cm-1)       (nm)     (1e40*cgs)   (au)      (au)      (au)  
-------------------------------------------------------------------
   1 3121364.1      3.2      0.00000   0.89113   0.75450   0.00443
   2 3129537.3      3.2     -0.00000  -0.00006  -0.00011  -0.00000
   3 3156366.2      3.2     -0.00000   0.00000   0.00000   0.00014
   4 3162661.5      3.2     -0.00001  -0.52796  -0.44701  -0.00261
   5 3165455.0      3.2     -0.00000  -0.00023  -0.00038   0.11429
   6 3168262.7      3.2     -0.00000  -0.00000  -0.00000   0.00037
   7 3173599.0      3.2      0.00000   0.00078   0.00129  -0.37913
   8 3175761.3      3.1     -0.00000   0.00000   0.00000   0.00016
   9 3185356.7      3.1     -0.00000   0.00001   0.00000   0.00028
  10 3197274.4      3.1     -0.00001   0.00226   0.00369  -1.07985
  11 3199210.8      3.1      0.00000  -0.00056  -0.00091   0.26307
  12 3203799.9      3.1     -0.00000  -0.00001  -0.00001   0.00255
  13 3231275.5      3.1     -0.00000  -0.00001  -0.00001   0.00166
  14 3233152.6      3.1     -0.00000   0.00090   0.00146  -0.42505
  15 3245511.7      3.1      0.00001   0.29974   0.25378   0.00158
  16 3247899.7      3.1     -0.00002  -0.00193  -0.00313   0.91108
  17 3258137.3      3.1      0.00000  -0.00004  -0.00004   0.00311
  18 3261041.4      3.1     -0.00000  -0.00001  -0.00000  -0.00065
  19 3261475.0      3.1     -0.00000  -0.00133  -0.00122  -0.00001
  20 3264418.6      3.1      0.00005   0.30209   0.25578   0.00169

Total run time:      117.053 sec

           *** ORCA-CIS/TD-DFT FINISHED WITHOUT ERROR ***

-----------------------
CIS/TD-DFT TOTAL ENERGY
-----------------------

    E(SCF)  =   -248.124792069 Eh
    DE(CIS) =     14.221981408 Eh (Root  1)
    ----------------------------- ---------
    E(tot)  =   -233.902810661 Eh


-------------------------   --------------------
FINAL SINGLE POINT ENERGY      -233.902810660985
-------------------------   --------------------


                            ***************************************
                            *     ORCA property calculations      *
                            ***************************************

                                    ---------------------
                                    Active property flags
                                    ---------------------
   (+) Dipole Moment


------------------------------------------------------------------------------
                       ORCA ELECTRIC PROPERTIES CALCULATION
------------------------------------------------------------------------------

Dipole Moment Calculation                       ... on
Quadrupole Moment Calculation                   ... off
Polarizability Calculation                      ... off
GBWName                                         ... /Users/lailaal-madhagi/Desktop/Testing_XAS_Analysis_code/Pyridine//Results_dir_Pyridine_geom_element_N_2019-11-27_20-35-22//GTE1_Pyridine_geom_2019-11-27_20-35-35//TDDFT_N-edge.gbw
Electron density file                           ... /Users/lailaal-madhagi/Desktop/Testing_XAS_Analysis_code/Pyridine//Results_dir_Pyridine_geom_element_N_2019-11-27_20-35-22//GTE1_Pyridine_geom_2019-11-27_20-35-35//TDDFT_N-edge.scfp.tmp
The origin for moment calculation is the CENTER OF MASS  = (-1.641706, -0.752804 -0.010271)

-------------
DIPOLE MOMENT
-------------
                                X             Y             Z
Electronic contribution:      0.87150      -1.02885      -0.00169
Nuclear contribution   :     -1.42646       1.68481       0.00277
                        -----------------------------------------
Total Dipole Moment    :     -0.55496       0.65596       0.00108
                        -----------------------------------------
Magnitude (a.u.)       :      0.85923
Magnitude (Debye)      :      2.18399



--------------------
Rotational spectrum 
--------------------
 
Rotational constants in cm-1:     0.200995     0.193366     0.098553 
Rotational constants in MHz :  6025.687848  5796.966170  2954.557289 

 Dipole components along the rotational axes: 
x,y,z [a.u.] :    -0.859229     0.000742     0.000003 
x,y,z [Debye]:    -2.183986     0.001887     0.000007 

 

Timings for individual modules:

Sum of individual times         ...      143.034 sec (=   2.384 min)
GTO integral calculation        ...        1.108 sec (=   0.018 min)   0.8 %
SCF iterations                  ...       24.136 sec (=   0.402 min)  16.9 %
CIS module                      ...      117.790 sec (=   1.963 min)  82.4 %
                             ****ORCA TERMINATED NORMALLY****
TOTAL RUN TIME: 0 days 0 hours 2 minutes 23 seconds 791 msec
