
                                 *****************
                                 * O   R   C   A *
                                 *****************

           --- An Ab Initio, DFT and Semiempirical electronic structure package ---

                  #######################################################
                  #                        -***-                        #
                  #          Department of theory and spectroscopy      #
                  #               Directorship: Frank Neese             #
                  #        Max Planck Institute fuer Kohlenforschung    #
                  #                Kaiser Wilhelm Platz 1               #
                  #                 D-45470 Muelheim/Ruhr               #
                  #                      Germany                        #
                  #                                                     #
                  #                  All rights reserved                #
                  #                        -***-                        #
                  #######################################################


                         Program Version 4.1.0  - RELEASE  -


 With contributions from (in alphabetic order):
   Daniel Aravena         : Magnetic Properties
   Michael Atanasov       : Ab Initio Ligand Field Theory
   Alexander A. Auer      : GIAO ZORA
   Ute Becker             : Parallelization
   Giovanni Bistoni       : ED, Open-shell LED
   Martin Brehm           : Molecular dynamics
   Dmytro Bykov           : SCF Hessian
   Vijay G. Chilkuri      : MRCI spin determinant printing
   Dipayan Datta          : RHF DLPNO-CCSD density
   Achintya Kumar Dutta   : EOM-CC, STEOM-CC
   Dmitry Ganyushin       : Spin-Orbit,Spin-Spin,Magnetic field MRCI
   Miquel Garcia          : C-PCM Hessian
   Yang Guo               : DLPNO-NEVPT2, CIM, IAO-localization
   Andreas Hansen         : Spin unrestricted coupled pair/coupled cluster methods
   Benjamin Helmich-Paris : CASSCF linear response (MC-RPA)
   Lee Huntington         : MR-EOM, pCC
   Robert Izsak           : Overlap fitted RIJCOSX, COSX-SCS-MP3, EOM
   Christian Kollmar      : KDIIS, OOCD, Brueckner-CCSD(T), CCSD density
   Simone Kossmann        : Meta GGA functionals, TD-DFT gradient, OOMP2, MP2 Hessian
   Martin Krupicka        : AUTO-CI
   Lucas Lang             : DCDCAS
   Dagmar Lenk            : GEPOL surface, SMD
   Dimitrios Liakos       : Extrapolation schemes; parallel MDCI
   Dimitrios Manganas     : ROCIS; embedding schemes
   Dimitrios Pantazis     : SARC Basis sets
   Taras Petrenko         : DFT Hessian,TD-DFT gradient, ASA, ECA, R-Raman, ABS, FL, XAS/XES, NRVS
   Peter Pinski           : DLPNO-MP2, DLPNO-MP2 Gradient
   Christoph Reimann      : Effective Core Potentials
   Marius Retegan         : Local ZFS, SOC
   Christoph Riplinger    : Optimizer, TS searches, QM/MM, DLPNO-CCSD(T), (RO)-DLPNO pert. Triples
   Tobias Risthaus        : Range-separated hybrids, TD-DFT gradient, RPA, STAB
   Michael Roemelt        : Restricted open shell CIS
   Masaaki Saitow         : Open-shell DLPNO
   Barbara Sandhoefer     : DKH picture change effects
   Avijit Sen             : IP-ROCIS
   Kantharuban Sivalingam : CASSCF convergence, NEVPT2, FIC-MRCI
   Bernardo de Souza      : ESD, SOC TD-DFT
   Georgi Stoychev        : AutoAux, RI-MP2 NMR
   Willem Van den Heuvel  : Paramagnetic NMR
   Boris Wezisla          : Elementary symmetry handling
   Frank Wennmohs         : Technical directorship


 We gratefully acknowledge several colleagues who have allowed us to
 interface, adapt or use parts of their codes:
   Stefan Grimme, W. Hujo, H. Kruse,             : VdW corrections, initial TS optimization,
                  C. Bannwarth                     DFT functionals, gCP, sTDA/sTD-DF
   Ed Valeev                                     : LibInt (2-el integral package), F12 methods
   Garnet Chan, S. Sharma, J. Yang, R. Olivares  : DMRG
   Ulf Ekstrom                                   : XCFun DFT Library
   Mihaly Kallay                                 : mrcc  (arbitrary order and MRCC methods)
   Andreas Klamt, Michael Diedenhofen            : otool_cosmo (COSMO solvation model)
   Jiri Pittner, Ondrej Demel                    : Mk-CCSD
   Frank Weinhold                                : gennbo (NPA and NBO analysis)
   Christopher J. Cramer and Donald G. Truhlar   : smd solvation model
   Lars Goerigk                                  : TD-DFT with DH, B97 family of functionals
   V. Asgeirsson, H. Jonsson                     : NEB implementation
   FAccTs GmbH                                   : IRC, NEB, NEB-TS, Multilevel


 Your calculation uses the libint2 library for the computation of 2-el integrals
 For citations please refer to: http://libint.valeyev.net

 This ORCA versions uses:
   CBLAS   interface :  Fast vector & matrix operations
   LAPACKE interface :  Fast linear algebra routines
   SCALAPACK package :  Parallel linear algebra routines




***************************************
The coordinates will be read from file: /Users/lailaal-madhagi/Desktop/Testing_XAS_Analysis_code/AceticAcid/AceticAcid_geom.xyz
***************************************


----- Orbital basis set information -----
Your calculation utilizes the basis: 6-31G*
   H-He, Li-Ne : W. J. Hehre, R. Ditchfield and J.A. Pople, J. Chem. Phys. 56, 2257 (1972).
                 Note: He and Ne are unpublished basis sets taken from the Gaussian program.
                 Note: Li and B from J. D. Dill and J. A. Pople, J. Chem. Phys. 62, 2921 (1975).
   Na - Ar     : M. M. Francl, W. J. Pietro, W. J. Hehre, J. S. Binkley, M. S. Gordon, 
                 D. J. DeFrees and J. A. Pople, J. Chem. Phys. 77, 3654 (1982).
   K - Zn      : V. A. Rassolov, J. A. Pople, M. A. Ratner, and T. L. Windus, J. Chem. Phys. 109, 1223 (1998).

================================================================================
                                        WARNINGS
                       Please study these warnings very carefully!
================================================================================


WARNING: Geometry Optimization
  ===> : Switching off AutoStart
         For restart on a previous wavefunction, please use MOREAD

INFO   : the flag for use of LIBINT has been found!

================================================================================
                                       INPUT FILE
================================================================================
NAME = /Users/lailaal-madhagi/Desktop/Testing_XAS_Analysis_code/AceticAcid//Results_dir_AceticAcid_geom_element_O_2019-11-03_20-05-49//GTE1_AceticAcid_geom_2019-11-03_20-06-00//opt.inp
|  1> ! B3LYP 6-31G* TIGHTSCF Grid3 FinalGrid5 Opt 
|  2> !NormalPrint 
|  3> %output 
|  4> Print[P_Basis] 2 
|  5> Print[P_MOS] 1 
|  6> end 
|  7> *xyzfile 0 1 /Users/lailaal-madhagi/Desktop/Testing_XAS_Analysis_code/AceticAcid/AceticAcid_geom.xyz                           ****END OF INPUT****
================================================================================

                       *****************************
                       * Geometry Optimization Run *
                       *****************************

Geometry optimization settings:
Update method            Update   .... BFGS
Choice of coordinates    CoordSys .... Z-matrix Internals
Initial Hessian          InHess   .... Almoef's Model

Convergence Tolerances:
Energy Change            TolE     ....  5.0000e-06 Eh
Max. Gradient            TolMAXG  ....  3.0000e-04 Eh/bohr
RMS Gradient             TolRMSG  ....  1.0000e-04 Eh/bohr
Max. Displacement        TolMAXD  ....  4.0000e-03 bohr
RMS Displacement         TolRMSD  ....  2.0000e-03 bohr

------------------------------------------------------------------------------
                        ORCA OPTIMIZATION COORDINATE SETUP
------------------------------------------------------------------------------

The optimization will be done in new redundant internal coordinates
Making redundant internal coordinates   ...  (new redundants) done
Evaluating the initial hessian          ...  (Almloef) done
Evaluating the coordinates              ...  done
Calculating the B-matrix                .... done
Calculating the G-matrix                .... done
Diagonalizing the G-matrix              .... done
The first mode is                       ....    7
The number of degrees of freedom        ....   18

    -----------------------------------------------------------------
                    Redundant Internal Coordinates


    -----------------------------------------------------------------
         Definition                    Initial Value    Approx d2E/dq
    -----------------------------------------------------------------
      1. B(C   1,C   0)                  1.4991         0.418500   
      2. B(H   2,C   0)                  1.1102         0.334396   
      3. B(H   3,C   0)                  1.1101         0.334461   
      4. B(H   4,C   0)                  1.1102         0.334403   
      5. B(O   5,C   1)                  1.2203         1.043755   
      6. B(O   6,C   1)                  1.3501         0.647847   
      7. B(H   7,O   6)                  0.9673         0.506105   
      8. A(C   1,C   0,H   2)          109.6092         0.326432   
      9. A(C   1,C   0,H   4)          109.6092         0.326433   
     10. A(H   2,C   0,H   4)          109.1939         0.284186   
     11. A(C   1,C   0,H   3)          110.9106         0.326443   
     12. A(H   3,C   0,H   4)          108.7436         0.284195   
     13. A(H   2,C   0,H   3)          108.7438         0.284194   
     14. A(C   0,C   1,O   5)          119.5325         0.441272   
     15. A(O   5,C   1,O   6)          119.4016         0.474694   
     16. A(C   0,C   1,O   6)          121.0659         0.405226   
     17. A(C   1,O   6,H   7)          121.9182         0.371196   
     18. D(O   5,C   1,C   0,H   2)    -59.9151         0.012954   
     19. D(O   6,C   1,C   0,H   2)    120.0857         0.012954   
     20. D(O   5,C   1,C   0,H   3)    179.9995         0.012954   
     21. D(O   6,C   1,C   0,H   3)      0.0003         0.012954   
     22. D(O   6,C   1,C   0,H   4)   -120.0849         0.012954   
     23. D(O   5,C   1,C   0,H   4)     59.9143         0.012954   
     24. D(H   7,O   6,C   1,C   0)     -0.0005         0.031001   
     25. D(H   7,O   6,C   1,O   5)   -179.9997         0.031001   
    -----------------------------------------------------------------

Number of atoms                         .... 8
Number of degrees of freedom            .... 25

         *************************************************************
         *                GEOMETRY OPTIMIZATION CYCLE   1            *
         *************************************************************
---------------------------------
CARTESIAN COORDINATES (ANGSTROEM)
---------------------------------
  C     -3.811470   -0.066460   -0.001360
  C     -2.341310    0.226590   -0.005310
  H     -4.301300    0.496100    0.820860
  H     -3.998990   -1.150510    0.146990
  H     -4.255670    0.243050   -0.970550
  O     -1.957250    1.374820   -0.157730
  O     -1.433840   -0.759810    0.157130
  H     -1.697690   -1.682240    0.280710

----------------------------
CARTESIAN COORDINATES (A.U.)
----------------------------
  NO LB      ZA    FRAG     MASS         X           Y           Z
   0 C     6.0000    0    12.011   -7.202634   -0.125591   -0.002570
   1 C     6.0000    0    12.011   -4.424435    0.428193   -0.010034
   2 H     1.0000    0     1.008   -8.128279    0.937493    1.551201
   3 H     1.0000    0     1.008   -7.556996   -2.174149    0.277771
   4 H     1.0000    0     1.008   -8.042051    0.459298   -1.834074
   5 O     8.0000    0    15.999   -3.698666    2.598033   -0.298067
   6 O     8.0000    0    15.999   -2.709565   -1.435833    0.296933
   7 H     1.0000    0     1.008   -3.208169   -3.178973    0.530465

--------------------------------
INTERNAL COORDINATES (ANGSTROEM)
--------------------------------
 C      0   0   0     0.000000000000     0.00000000     0.00000000
 C      1   0   0     1.499087832850     0.00000000     0.00000000
 H      1   2   0     1.110158957492   109.60916883     0.00000000
 H      1   2   3     1.110106245095   110.91057207   239.91456196
 H      1   2   3     1.110152843621   109.60916547   119.82939844
 O      2   1   3     1.220313923915   119.53245155   300.08489672
 O      2   1   3     1.350138331616   121.06591769   120.08570969
 H      7   2   1     0.967349959322   121.91824939     0.00000000

---------------------------
INTERNAL COORDINATES (A.U.)
---------------------------
 C      0   0   0     0.000000000000     0.00000000     0.00000000
 C      1   0   0     2.832865454781     0.00000000     0.00000000
 H      1   2   0     2.097896394780   109.60916883     0.00000000
 H      1   2   3     2.097796782786   110.91057207   239.91456196
 H      1   2   3     2.097884841238   109.60916547   119.82939844
 O      2   1   3     2.306059113610   119.53245155   300.08489672
 O      2   1   3     2.551391689664   121.06591769   120.08570969
 H      7   2   1     1.828026498778   121.91824939     0.00000000

---------------------
BASIS SET INFORMATION
---------------------
There are 3 groups of distinct atoms

 Group   1 Type C   : 10s4p1d contracted to 3s2p1d pattern {631/31/1}
 Group   2 Type H   : 4s contracted to 2s pattern {31}
 Group   3 Type O   : 10s4p1d contracted to 3s2p1d pattern {631/31/1}

Atom   0C    basis set group =>   1
Atom   1C    basis set group =>   1
Atom   2H    basis set group =>   2
Atom   3H    basis set group =>   2
Atom   4H    basis set group =>   2
Atom   5O    basis set group =>   3
Atom   6O    basis set group =>   3
Atom   7H    basis set group =>   2

-------------------------
BASIS SET IN INPUT FORMAT
-------------------------

 # Basis set for element : H 
 NewGTO H 
 S 3 
   1      18.7311370000      0.0334945995
   2       2.8253937000      0.2347269467
   3       0.6401217000      0.8137573184
 S 1 
   1       0.1612778000      1.0000000000
  end;

 # Basis set for element : C 
 NewGTO C 
 S 6 
   1    3047.5249000000      0.0018347002
   2     457.3695100000      0.0140373012
   3     103.9486900000      0.0688426061
   4      29.2101550000      0.2321844206
   5       9.2866630000      0.4679413416
   6       3.1639270000      0.3623120322
 S 3 
   1       7.8682724000     -0.1193324086
   2       1.8812885000     -0.1608542116
   3       0.5442493000      1.1434564826
 P 3 
   1       7.8682724000      0.0689990956
   2       1.8812885000      0.3164239798
   3       0.5442493000      0.7443082524
 S 1 
   1       0.1687144000      1.0000000000
 P 1 
   1       0.1687144000      1.0000000000
 D 1 
   1       0.8000000000      1.0000000000
  end;

 # Basis set for element : O 
 NewGTO O 
 S 6 
   1    5484.6717000000      0.0018310998
   2     825.2349500000      0.0139500985
   3     188.0469600000      0.0684450927
   4      52.9645000000      0.2327142753
   5      16.8975700000      0.4701929501
   6       5.7996353000      0.3585208619
 S 3 
   1      15.5396160000     -0.1107775038
   2       3.5999336000     -0.1480263051
   3       1.0137618000      1.1307670390
 P 3 
   1      15.5396160000      0.0708742995
   2       3.5999336000      0.3397527978
   3       1.0137618000      0.7271585953
 S 1 
   1       0.2700058000      1.0000000000
 P 1 
   1       0.2700058000      1.0000000000
 D 1 
   1       0.8000000000      1.0000000000
  end;

------------------------------------------------------------------------------
                           ORCA GTO INTEGRAL CALCULATION
------------------------------------------------------------------------------

                         BASIS SET STATISTICS AND STARTUP INFO

 # of primitive gaussian shells          ...   76
 # of primitive gaussian functions       ...  124
 # of contracted shells                  ...   32
 # of contracted basis functions         ...   64
 Highest angular momentum                ...    2
 Maximum contraction depth               ...    6
 Integral package used                   ... LIBINT
 Integral threshhold            Thresh   ...  2.500e-11
 Primitive cut-off              TCut     ...  2.500e-12


------------------------------ INTEGRAL EVALUATION ----------------------------


 * One electron integrals 
 Pre-screening matrix                    ... done
 Shell pair data                         ... done (   0.001 sec)

-------------------------------------------------------------------------------
                                 ORCA SCF
-------------------------------------------------------------------------------

------------
SCF SETTINGS
------------
Hamiltonian:
 Density Functional     Method          .... DFT(GTOs)
 Exchange Functional    Exchange        .... B88
   X-Alpha parameter    XAlpha          ....  0.666667
   Becke's b parameter  XBeta           ....  0.004200
 Correlation Functional Correlation     .... LYP
 LDA part of GGA corr.  LDAOpt          .... VWN-5
 Gradients option       PostSCFGGA      .... off
 Hybrid DFT is turned on
   Fraction HF Exchange ScalHFX         ....  0.200000
   Scaling of DF-GGA-X  ScalDFX         ....  0.720000
   Scaling of DF-GGA-C  ScalDFC         ....  0.810000
   Scaling of DF-LDA-C  ScalLDAC        ....  1.000000
   Perturbative correction              ....  0.000000
   Density functional embedding theory  .... OFF
   NL short-range parameter             ....  4.800000


General Settings:
 Integral files         IntName         .... /Users/lailaal-madhagi/Desktop/Testing_XAS_Analysis_code/AceticAcid//Results_dir_AceticAcid_geom_element_O_2019-11-03_20-05-49//GTE1_AceticAcid_geom_2019-11-03_20-06-00//opt
 Hartree-Fock type      HFTyp           .... RHF
 Total Charge           Charge          ....    0
 Multiplicity           Mult            ....    1
 Number of Electrons    NEL             ....   32
 Basis Dimension        Dim             ....   64
 Nuclear Repulsion      ENuc            ....    120.2531702727 Eh

Convergence Acceleration:
 DIIS                   CNVDIIS         .... on
   Start iteration      DIISMaxIt       ....    12
   Startup error        DIISStart       ....  0.200000
   # of expansion vecs  DIISMaxEq       ....     5
   Bias factor          DIISBfac        ....   1.050
   Max. coefficient     DIISMaxC        ....  10.000
 Newton-Raphson         CNVNR           .... off
 SOSCF                  CNVSOSCF        .... on
   Start iteration      SOSCFMaxIt      ....   150
   Startup grad/error   SOSCFStart      ....  0.003300
 Level Shifting         CNVShift        .... on
   Level shift para.    LevelShift      ....    0.2500
   Turn off err/grad.   ShiftErr        ....    0.0010
 Zerner damping         CNVZerner       .... off
 Static damping         CNVDamp         .... on
   Fraction old density DampFac         ....    0.7000
   Max. Damping (<1)    DampMax         ....    0.9800
   Min. Damping (>=0)   DampMin         ....    0.0000
   Turn off err/grad.   DampErr         ....    0.1000
 Fernandez-Rico         CNVRico         .... off

SCF Procedure:
 Maximum # iterations   MaxIter         ....   125
 SCF integral mode      SCFMode         .... Direct
   Integral package                     .... LIBINT
 Reset frequency        DirectResetFreq ....    20
 Integral Threshold     Thresh          ....  2.500e-11 Eh
 Primitive CutOff       TCut            ....  2.500e-12 Eh

Convergence Tolerance:
 Convergence Check Mode ConvCheckMode   .... Total+1el-Energy
 Convergence forced     ConvForced      .... 0
 Energy Change          TolE            ....  1.000e-08 Eh
 1-El. energy change                    ....  1.000e-05 Eh
 Orbital Gradient       TolG            ....  1.000e-05
 Orbital Rotation angle TolX            ....  1.000e-05
 DIIS Error             TolErr          ....  5.000e-07


Diagonalization of the overlap matrix:
Smallest eigenvalue                        ... 6.293e-03
Time for diagonalization                   ...    0.001 sec
Threshold for overlap eigenvalues          ... 1.000e-08
Number of eigenvalues below threshold      ... 0
Time for construction of square roots      ...    0.001 sec
Total time needed                          ...    0.001 sec

-------------------
DFT GRID GENERATION
-------------------

General Integration Accuracy     IntAcc      ...  4.340
Radial Grid Type                 RadialGrid  ... Gauss-Chebyshev
Angular Grid (max. acc.)         AngularGrid ... Lebedev-194
Angular grid pruning method      GridPruning ... 3 (G Style)
Weight generation scheme         WeightScheme... Becke
Basis function cutoff            BFCut       ...    1.0000e-11
Integration weight cutoff        WCut        ...    1.0000e-14
Grids for H and He will be reduced by one unit

# of grid points (after initial pruning)     ...  19384 (   0.0 sec)
# of grid points (after weights+screening)   ...  18595 (   0.0 sec)
nearest neighbour list constructed           ...    0.0 sec
Grid point re-assignment to atoms done       ...    0.0 sec
Grid point division into batches done        ...    0.0 sec
Reduced shell lists constructed in    0.1 sec

Total number of grid points                  ...    18595
Total number of batches                      ...      295
Average number of points per batch           ...       63
Average number of grid points per atom       ...     2324
Average number of shells per batch           ...    25.16 (78.62%)
Average number of basis functions per batch  ...    52.16 (81.50%)
Average number of large shells per batch     ...    21.41 (85.08%)
Average number of large basis fcns per batch ...    44.34 (85.02%)
Maximum spatial batch extension              ...  17.65, 18.83, 21.22 au
Average spatial batch extension              ...   3.47,  3.40,  3.56 au

Time for grid setup =    0.114 sec

------------------------------
INITIAL GUESS: MODEL POTENTIAL
------------------------------
Loading Hartree-Fock densities                     ... done
Calculating cut-offs                               ... done
Setting up the integral package                    ... done
Initializing the effective Hamiltonian             ... done
Starting the Coulomb interaction                   ... done (   0.0 sec)
Reading the grid                                   ... done
Mapping shells                                     ... done
Starting the XC term evaluation                    ... done (   0.1 sec)
  promolecular density results
     # of electrons  =     31.998346161
     EX              =    -27.842442273
     EC              =     -1.095288005
     EX+EC           =    -28.937730278
Transforming the Hamiltonian                       ... done (   0.0 sec)
Diagonalizing the Hamiltonian                      ... done (   0.0 sec)
Back transforming the eigenvectors                 ... done (   0.0 sec)
Now organizing SCF variables                       ... done
                      ------------------
                      INITIAL GUESS DONE (   0.3 sec)
                      ------------------
--------------
SCF ITERATIONS
--------------
               ***  Starting incremental Fock matrix formation  ***

                         ----------------------------
                         !        ITERATION     0   !
                         ----------------------------
   Total Energy        :    -228.747237837777 Eh
   Energy Change       :    -228.747237837777 Eh
   MAX-DP              :       0.112115488350
   RMS-DP              :       0.005447428314
   Actual Damping      :       0.7000
   Actual Level Shift  :       0.2500 Eh
   Int. Num. El.       :    32.00008581 (UP=   16.00004291 DN=   16.00004291)
   Exchange            :   -22.90466958
   Correlation         :    -1.31222443


                         ----------------------------
                         !        ITERATION     1   !
                         ----------------------------
   Total Energy        :    -228.843237877863 Eh
   Energy Change       :      -0.096000040087 Eh
   MAX-DP              :       0.064838426353
   RMS-DP              :       0.003319758963
   Actual Damping      :       0.7000
   Actual Level Shift  :       0.2500 Eh
   Int. Num. El.       :    32.00009775 (UP=   16.00004887 DN=   16.00004887)
   Exchange            :   -22.65912998
   Correlation         :    -1.30455501

                               ***Turning on DIIS***

                         ----------------------------
                         !        ITERATION     2   !
                         ----------------------------
   Total Energy        :    -228.874669676569 Eh
   Energy Change       :      -0.031431798705 Eh
   MAX-DP              :       0.067678508398
   RMS-DP              :       0.004388371138
   Actual Damping      :       0.0000
   Actual Level Shift  :       0.2500 Eh
   Int. Num. El.       :    32.00010589 (UP=   16.00005295 DN=   16.00005295)
   Exchange            :   -22.52029000
   Correlation         :    -1.29973928
   DIIS-Error          :       0.042168550509


                         ----------------------------
                         !        ITERATION     3   !
                         ----------------------------
   Total Energy        :    -228.930792933468 Eh
   Energy Change       :      -0.056123256900 Eh
   MAX-DP              :       0.041969028832
   RMS-DP              :       0.002335058504
   Actual Damping      :       0.0000
   Actual Level Shift  :       0.2500 Eh
   Int. Num. El.       :    32.00012200 (UP=   16.00006100 DN=   16.00006100)
   Exchange            :   -22.35991203
   Correlation         :    -1.29318758
   DIIS-Error          :       0.055861023344
   DIIS coefficients:
      0.62760   0.37240


                         ----------------------------
                         !        ITERATION     4   !
                         ----------------------------
   Total Energy        :    -228.940866715918 Eh
   Energy Change       :      -0.010073782450 Eh
   MAX-DP              :       0.011492415434
   RMS-DP              :       0.000719341967
   Actual Damping      :       0.0000
   Actual Level Shift  :       0.2500 Eh
   Int. Num. El.       :    32.00011879 (UP=   16.00005939 DN=   16.00005939)
   Exchange            :   -22.44663757
   Correlation         :    -1.29625426
   DIIS-Error          :       0.016373443758
   DIIS coefficients:
      0.34408   0.12705   0.52886

                      *** Initiating the SOSCF procedure ***
                           *** Shutting down DIIS ***
                      *** Re-Reading the Fockian *** 
                      *** Removing any level shift *** 

                         ----------------------------
                         !        ITERATION     5   !
                         ----------------------------
   Total Energy        :    -228.941961235649 Eh
   Energy Change       :      -0.001094519731 Eh
   MAX-DP              :       0.003845791474
   RMS-DP              :       0.000205915880
   Orbital gradient    :       0.000937924329
   Orbital Rotation    :       0.000937924329
   Actual Damping      :       0.0000
   Int. Num. El.       :    32.00011662 (UP=   16.00005831 DN=   16.00005831)
   Exchange            :   -22.45716563
   Correlation         :    -1.29695674

               *** Restarting incremental Fock matrix formation ***

                         ----------------------------
                         !        ITERATION     6   !
                         ----------------------------
   Total Energy        :    -228.941987808236 Eh
   Energy Change       :      -0.000026572587 Eh
   MAX-DP              :       0.002701756551
   RMS-DP              :       0.000137916012
   Orbital gradient    :       0.000732833410
   Orbital Rotation    :       0.002330692805
   Actual Damping      :       0.0000
   Int. Num. El.       :    32.00011620 (UP=   16.00005810 DN=   16.00005810)
   Exchange            :   -22.45992967
   Correlation         :    -1.29710453


                         ----------------------------
                         !        ITERATION     7   !
                         ----------------------------
   Total Energy        :    -228.941979369069 Eh
   Energy Change       :       0.000008439167 Eh
   MAX-DP              :       0.001691505580
   RMS-DP              :       0.000081082383
   Orbital gradient    :       0.001530220685
   Orbital Rotation    :       0.001553580475
   Actual Damping      :       0.0000
   Int. Num. El.       :    32.00011614 (UP=   16.00005807 DN=   16.00005807)
   Exchange            :   -22.46021568
   Correlation         :    -1.29712743


                         ----------------------------
                         !        ITERATION     8   !
                         ----------------------------
   Total Energy        :    -228.941993068223 Eh
   Energy Change       :      -0.000013699153 Eh
   MAX-DP              :       0.000473404367
   RMS-DP              :       0.000023238524
   Orbital gradient    :       0.000140376885
   Orbital Rotation    :       0.000286946577
   Actual Damping      :       0.0000
   Int. Num. El.       :    32.00011623 (UP=   16.00005811 DN=   16.00005811)
   Exchange            :   -22.46027063
   Correlation         :    -1.29712149


                         ----------------------------
                         !        ITERATION     9   !
                         ----------------------------
   Total Energy        :    -228.941992810572 Eh
   Energy Change       :       0.000000257651 Eh
   MAX-DP              :       0.000261972716
   RMS-DP              :       0.000013336469
   Orbital gradient    :       0.000210782849
   Orbital Rotation    :       0.000171582948
   Actual Damping      :       0.0000
   Int. Num. El.       :    32.00011622 (UP=   16.00005811 DN=   16.00005811)
   Exchange            :   -22.45973004
   Correlation         :    -1.29710774


                         ----------------------------
                         !        ITERATION    10   !
                         ----------------------------
   Total Energy        :    -228.941993275081 Eh
   Energy Change       :      -0.000000464509 Eh
   MAX-DP              :       0.000056640965
   RMS-DP              :       0.000003158026
   Orbital gradient    :       0.000015727250
   Orbital Rotation    :       0.000017409683
   Actual Damping      :       0.0000
   Int. Num. El.       :    32.00011623 (UP=   16.00005812 DN=   16.00005812)
   Exchange            :   -22.46011933
   Correlation         :    -1.29711732


                         ----------------------------
                         !        ITERATION    11   !
                         ----------------------------
   Total Energy        :    -228.941993273632 Eh
   Energy Change       :       0.000000001449 Eh
   MAX-DP              :       0.000033650129
   RMS-DP              :       0.000001706921
   Orbital gradient    :       0.000014898389
   Orbital Rotation    :       0.000009984155
   Actual Damping      :       0.0000
   Int. Num. El.       :    32.00011622 (UP=   16.00005811 DN=   16.00005811)
   Exchange            :   -22.46007017
   Correlation         :    -1.29711649

                  ***Gradient check signals convergence***
              ***Rediagonalizing the Fockian in SOSCF/NRSCF***

               *****************************************************
               *                     SUCCESS                       *
               *           SCF CONVERGED AFTER  12 CYCLES          *
               *****************************************************

Setting up the final grid:

General Integration Accuracy     IntAcc      ...  5.010
Radial Grid Type                 RadialGrid  ... Gauss-Chebyshev
Angular Grid (max. acc.)         AngularGrid ... Lebedev-434
Angular grid pruning method      GridPruning ... 3 (G Style)
Weight generation scheme         WeightScheme... Becke
Basis function cutoff            BFCut       ...    1.0000e-11
Integration weight cutoff        WCut        ...    1.0000e-14
Grids for H and He will be reduced by one unit

# of grid points (after initial pruning)     ...  69848 (   0.0 sec)
# of grid points (after weights+screening)   ...  66556 (   0.0 sec)
nearest neighbour list constructed           ...    0.0 sec
Grid point re-assignment to atoms done       ...    0.0 sec
Grid point division into batches done        ...    0.4 sec
Reduced shell lists constructed in    0.6 sec

Total number of grid points                  ...    66556
Total number of batches                      ...     1044
Average number of points per batch           ...       63
Average number of grid points per atom       ...     8320
Average number of shells per batch           ...    23.63 (73.85%)
Average number of basis functions per batch  ...    48.84 (76.32%)
Average number of large shells per batch     ...    19.67 (83.23%)
Average number of large basis fcns per batch ...    40.60 (83.12%)
Maximum spatial batch extension              ...  17.98, 18.53, 21.48 au
Average spatial batch extension              ...   2.41,  2.27,  2.38 au

Final grid set up in    0.6 sec
Final integration                            ... done (   0.3 sec)
Change in XC energy                          ...    -0.000084843
Integrated number of electrons               ...    32.000000221
Previous integrated no of electrons          ...    32.000116226

----------------
TOTAL SCF ENERGY
----------------

Total Energy       :         -228.94207812 Eh           -6229.83066 eV

Components:
Nuclear Repulsion  :          120.25317027 Eh            3272.25512 eV
Electronic Energy  :         -349.19524839 Eh           -9502.08579 eV
One Electron Energy:         -550.46467030 Eh          -14978.90519 eV
Two Electron Energy:          201.26942190 Eh            5476.81941 eV

Virial components:
Potential Energy   :         -456.48322860 Eh          -12421.54015 eV
Kinetic Energy     :          227.54115048 Eh            6191.70949 eV
Virial Ratio       :            2.00615681


DFT components:
N(Alpha)           :       16.000000110379 electrons
N(Beta)            :       16.000000110379 electrons
N(Total)           :       32.000000220758 electrons
E(X)               :      -22.460181000479 Eh       
E(C)               :       -1.297107839271 Eh       
E(XC)              :      -23.757288839750 Eh       
DFET-embed. en.    :        0.000000000000 Eh       

---------------
SCF CONVERGENCE
---------------

  Last Energy change         ...   -5.5939e-09  Tolerance :   1.0000e-08
  Last MAX-Density change    ...    2.5320e-06  Tolerance :   1.0000e-07
  Last RMS-Density change    ...    1.5420e-07  Tolerance :   5.0000e-09
  Last Orbital Gradient      ...    1.1611e-06  Tolerance :   1.0000e-05
  Last Orbital Rotation      ...    1.0356e-06  Tolerance :   1.0000e-05

             **** THE GBW FILE WAS UPDATED (/Users/lailaal-madhagi/Desktop/Testing_XAS_Analysis_code/AceticAcid//Results_dir_AceticAcid_geom_element_O_2019-11-03_20-05-49//GTE1_AceticAcid_geom_2019-11-03_20-06-00//opt.gbw) ****
             **** DENSITY FILE WAS UPDATED (/Users/lailaal-madhagi/Desktop/Testing_XAS_Analysis_code/AceticAcid//Results_dir_AceticAcid_geom_element_O_2019-11-03_20-05-49//GTE1_AceticAcid_geom_2019-11-03_20-06-00//opt.scfp.tmp) ****
             **** ENERGY FILE WAS UPDATED (/Users/lailaal-madhagi/Desktop/Testing_XAS_Analysis_code/AceticAcid//Results_dir_AceticAcid_geom_element_O_2019-11-03_20-05-49//GTE1_AceticAcid_geom_2019-11-03_20-06-00//opt.en.tmp) ****
----------------
ORBITAL ENERGIES
----------------

  NO   OCC          E(Eh)            E(eV) 
   0   2.0000     -19.186591      -522.0937 
   1   2.0000     -19.117557      -520.2152 
   2   2.0000     -10.314840      -280.6811 
   3   2.0000     -10.199820      -277.5512 
   4   2.0000      -1.091663       -29.7057 
   5   2.0000      -1.003240       -27.2996 
   6   2.0000      -0.750050       -20.4099 
   7   2.0000      -0.634004       -17.2521 
   8   2.0000      -0.506656       -13.7868 
   9   2.0000      -0.463144       -12.6028 
  10   2.0000      -0.453082       -12.3290 
  11   2.0000      -0.405821       -11.0430 
  12   2.0000      -0.391327       -10.6486 
  13   2.0000      -0.362364        -9.8604 
  14   2.0000      -0.303835        -8.2678 
  15   2.0000      -0.260499        -7.0885 
  16   0.0000       0.010802         0.2939 
  17   0.0000       0.049306         1.3417 
  18   0.0000       0.116890         3.1807 
  19   0.0000       0.137765         3.7488 
  20   0.0000       0.169417         4.6101 
  21   0.0000       0.215309         5.8589 
  22   0.0000       0.319468         8.6932 
  23   0.0000       0.357832         9.7371 
  24   0.0000       0.519315        14.1313 
  25   0.0000       0.526216        14.3191 
  26   0.0000       0.584508        15.9053 
  27   0.0000       0.603585        16.4244 
  28   0.0000       0.630166        17.1477 
  29   0.0000       0.678086        18.4517 
  30   0.0000       0.745264        20.2797 
  31   0.0000       0.812605        22.1121 
  32   0.0000       0.830188        22.5906 
  33   0.0000       0.841700        22.9038 
  34   0.0000       0.917393        24.9635 
  35   0.0000       0.935431        25.4544 
  36   0.0000       0.939308        25.5599 
  37   0.0000       0.996547        27.1174 
  38   0.0000       1.045900        28.4604 
  39   0.0000       1.105165        30.0731 
  40   0.0000       1.167512        31.7696 
  41   0.0000       1.342633        36.5349 
  42   0.0000       1.388702        37.7885 
  43   0.0000       1.445519        39.3346 
  44   0.0000       1.570753        42.7424 
  45   0.0000       1.642014        44.6815 
  46   0.0000       1.725047        46.9409 
  47   0.0000       1.752266        47.6816 
  48   0.0000       1.819729        49.5173 
  49   0.0000       1.824309        49.6420 
  50   0.0000       1.836092        49.9626 
  51   0.0000       1.908471        51.9321 
  52   0.0000       1.964194        53.4484 
  53   0.0000       2.029518        55.2260 
  54   0.0000       2.186123        59.4874 
  55   0.0000       2.208765        60.1035 
  56   0.0000       2.372660        64.5634 
  57   0.0000       2.438691        66.3602 
  58   0.0000       2.443164        66.4819 
  59   0.0000       2.636739        71.7493 
  60   0.0000       2.674726        72.7830 
  61   0.0000       2.812412        76.5296 
  62   0.0000       2.964634        80.6718 
  63   0.0000       3.089349        84.0655 
------------------
MOLECULAR ORBITALS
------------------
                      0         1         2         3         4         5   
                 -19.18659 -19.11756 -10.31484 -10.19982  -1.09166  -1.00324
                   2.00000   2.00000   2.00000   2.00000   2.00000   2.00000
                  --------  --------  --------  --------  --------  --------
  0C   1s        -0.000011 -0.000066 -0.000660 -0.995284  0.017428  0.012048
  0C   2s        -0.000341 -0.000907  0.001505 -0.037330 -0.035106 -0.024240
  0C   1pz       -0.000005  0.000028  0.000004 -0.000002 -0.000272  0.001876
  0C   1px       -0.000158 -0.000138  0.000852 -0.000380 -0.025455 -0.013404
  0C   1py        0.000005 -0.000224  0.000126 -0.000054 -0.002627 -0.015702
  0C   3s         0.002051  0.004122 -0.010338  0.033011  0.002513 -0.007225
  0C   2pz       -0.000390  0.000270 -0.000004  0.000034 -0.000814  0.001850
  0C   2px        0.000341  0.001704 -0.005641  0.001987  0.003513  0.005797
  0C   2py        0.002824 -0.001607 -0.000986  0.000118  0.006233 -0.012030
  0C   1dz2       0.000082 -0.000149 -0.000522  0.000044  0.002535  0.000555
  0C   1dxz      -0.000074  0.000078 -0.000000  0.000007 -0.000144  0.000468
  0C   1dyz       0.000000 -0.000047 -0.000001 -0.000003  0.000021 -0.000102
  0C   1dx2y2    -0.000225  0.000024  0.000840 -0.000085 -0.004150 -0.000997
  0C   1dxy       0.000455 -0.000498  0.000317 -0.000082 -0.000514 -0.003666
  1C   1s         0.000050  0.000267 -0.995125  0.000706  0.111354  0.067240
  1C   2s         0.000107  0.000560 -0.036387  0.001490 -0.214198 -0.132607
  1C   1pz        0.000066  0.000001 -0.000000 -0.000008 -0.004028  0.031804
  1C   1px        0.000312 -0.000090 -0.001597 -0.000623 -0.088309 -0.009004
  1C   1py       -0.000410 -0.000026 -0.000286 -0.000053  0.012605 -0.226768
  1C   3s         0.006350  0.007714  0.011723 -0.007691 -0.049067 -0.051966
  1C   2pz        0.001222 -0.001315  0.000093 -0.000150  0.000995 -0.002430
  1C   2px        0.006740  0.004749 -0.011679  0.004632  0.040159  0.006191
  1C   2py       -0.007436  0.010168 -0.002764  0.001900  0.000223  0.018360
  1C   1dz2      -0.000142  0.000244  0.001788 -0.000528  0.014753  0.007354
  1C   1dxz      -0.000041  0.000072 -0.000091 -0.000014 -0.001707  0.003445
  1C   1dyz      -0.000012  0.000165  0.000577  0.000020  0.005546  0.003182
  1C   1dx2y2     0.000098  0.000805  0.000861  0.000972  0.011194  0.013803
  1C   1dxy       0.000349 -0.000443  0.000225  0.000436  0.009340 -0.024258
  2H   1s        -0.000120 -0.000052  0.000534  0.000467 -0.005758 -0.005797
  2H   2s        -0.000450 -0.000199 -0.000702 -0.005567 -0.000629  0.000742
  3H   1s         0.000109 -0.000372  0.000541  0.000445 -0.006784 -0.001898
  3H   2s         0.000813 -0.000400 -0.000677 -0.005691 -0.000716  0.002218
  4H   1s        -0.000120 -0.000052  0.000534  0.000468 -0.005762 -0.005799
  4H   2s        -0.000449 -0.000199 -0.000702 -0.005566 -0.000652  0.000748
  5O   1s        -0.000451  0.995150  0.000019  0.000028  0.085012  0.173787
  5O   2s        -0.000504  0.030033 -0.000817  0.000657 -0.184344 -0.381978
  5O   1pz       -0.000011  0.000289  0.000105  0.000010 -0.010964 -0.016931
  5O   1px        0.000176 -0.000682 -0.000480 -0.000146  0.018679  0.051529
  5O   1py        0.000110 -0.002169 -0.000833 -0.000095  0.080975  0.129135
  5O   3s         0.001788 -0.022541  0.006990 -0.001579 -0.167424 -0.344298
  5O   2pz       -0.000097 -0.000856  0.000736 -0.000087 -0.004670 -0.004775
  5O   2px       -0.002086  0.001817  0.000537  0.000041 -0.001699  0.018420
  5O   2py        0.000311  0.006390 -0.005110  0.000622  0.032744  0.037116
  5O   1dz2      -0.000118  0.000106 -0.000975  0.000266  0.002420  0.003001
  5O   1dxz      -0.000034  0.000013 -0.000080 -0.000023  0.000297  0.000978
  5O   1dyz       0.000030  0.000059 -0.000427  0.000069  0.001647  0.001408
  5O   1dx2y2     0.000353  0.000240 -0.001391  0.000001  0.007518  0.005826
  5O   1dxy       0.000337 -0.000085  0.000628  0.000079 -0.001554 -0.006857
  6O   1s         0.995134  0.000427 -0.000135  0.000001  0.177242 -0.110627
  6O   2s         0.029968 -0.000467 -0.001107  0.000262 -0.387434  0.245212
  6O   1pz       -0.000044  0.000018 -0.000035 -0.000016  0.003438  0.005970
  6O   1px       -0.001657  0.000284 -0.000512 -0.000118  0.095367 -0.048952
  6O   1py        0.000011 -0.000077  0.000155  0.000091 -0.007154 -0.051084
  6O   3s        -0.021480  0.001204  0.005241 -0.000000 -0.393782  0.255949
  6O   2pz        0.000533  0.000126 -0.000788  0.000035  0.002312  0.003052
  6O   2px        0.004690 -0.001910 -0.001439 -0.000340  0.047910 -0.028978
  6O   2py       -0.002930 -0.001234  0.005318 -0.000312 -0.007661 -0.026900
  6O   1dz2       0.000358 -0.000259 -0.001073  0.000150  0.011551 -0.005736
  6O   1dxz      -0.000074  0.000000  0.000332  0.000012 -0.000699 -0.000583
  6O   1dyz       0.000123 -0.000003 -0.000371  0.000059  0.004039 -0.001804
  6O   1dx2y2     0.000149  0.000403 -0.000334  0.000165  0.007542 -0.003567
  6O   1dxy       0.000438  0.000151 -0.002068 -0.000105  0.002581  0.005336
  7H   1s         0.000394 -0.000596  0.000654  0.000105 -0.098353  0.081691
  7H   2s         0.001745  0.000398  0.000505  0.000023  0.004856  0.002970
                      6         7         8         9        10        11   
                  -0.75005  -0.63400  -0.50666  -0.46314  -0.45308  -0.40582
                   2.00000   2.00000   2.00000   2.00000   2.00000   2.00000
                  --------  --------  --------  --------  --------  --------
  0C   1s        -0.184498 -0.040152 -0.048753 -0.000003  0.004528 -0.003074
  0C   2s         0.354360  0.075589  0.095633  0.000102 -0.015603  0.003804
  0C   1pz        0.000944 -0.003362  0.001496 -0.312581  0.042941 -0.041110
  0C   1px        0.042775 -0.056874 -0.319098  0.007892  0.060708  0.016526
  0C   1py        0.000774  0.013503 -0.068296 -0.043715 -0.296365  0.293918
  0C   3s         0.334672  0.101518  0.130090 -0.000225 -0.004380  0.033673
  0C   2pz        0.001468 -0.001880  0.001081 -0.158497  0.019928 -0.018388
  0C   2px        0.007912 -0.003396 -0.128181  0.003837  0.056339  0.023972
  0C   2py       -0.007899  0.012781 -0.030825 -0.022025 -0.131721  0.133833
  0C   1dz2       0.000543  0.003067  0.010187  0.003302 -0.012616  0.010090
  0C   1dxz       0.000148 -0.000381  0.000063  0.003323  0.000329  0.001189
  0C   1dyz       0.000092  0.000014  0.000010 -0.012492 -0.004215  0.004197
  0C   1dx2y2    -0.000120 -0.005367 -0.016395  0.001730 -0.007350  0.013370
  0C   1dxy      -0.001265  0.000771 -0.006564  0.000796  0.000403 -0.009230
  1C   1s        -0.064803  0.086833  0.089197 -0.000036  0.023980  0.029946
  1C   2s         0.135150 -0.190925 -0.199594  0.000073 -0.060682 -0.075359
  1C   1pz        0.008057 -0.028865  0.006267 -0.287258  0.030772  0.030826
  1C   1px       -0.176442 -0.160071  0.268853  0.007295 -0.008678 -0.106967
  1C   1py       -0.088886  0.175474  0.004095 -0.040294 -0.222663 -0.236704
  1C   3s         0.079086 -0.143593 -0.141827  0.000275 -0.068223 -0.024892
  1C   2pz        0.002025 -0.005358 -0.002130 -0.129625  0.007564  0.000388
  1C   2px       -0.029183  0.001563  0.093715  0.003205  0.009108  0.002500
  1C   2py       -0.019768  0.038308  0.032111 -0.018207 -0.053251 -0.002023
  1C   1dz2      -0.003218  0.006379 -0.002435 -0.000015 -0.000609 -0.000041
  1C   1dxz       0.000284 -0.003170  0.000844 -0.000856 -0.000974  0.003460
  1C   1dyz       0.001345  0.000500  0.000377 -0.000104 -0.001293  0.000446
  1C   1dx2y2     0.014601 -0.010979  0.007560  0.000047 -0.008945  0.007429
  1C   1dxy       0.001618  0.018446 -0.003841 -0.000121  0.005502 -0.023110
  2H   1s         0.110924  0.042475  0.105543 -0.151388 -0.092977  0.078039
  2H   2s         0.023346  0.018323  0.061840 -0.102082 -0.059256  0.071605
  3H   1s         0.114706  0.031522  0.111208 -0.000247  0.170478 -0.202787
  3H   2s         0.022558  0.022987  0.064128 -0.000123  0.152340 -0.181073
  4H   1s         0.110952  0.042481  0.105566  0.151693 -0.092541  0.078073
  4H   2s         0.023522  0.018348  0.061874  0.102178 -0.058903  0.071579
  5O   1s         0.048775 -0.052565 -0.037980  0.000096 -0.070901 -0.058218
  5O   2s        -0.112066  0.119881  0.091765 -0.000202  0.157577  0.130413
  5O   1pz       -0.002374 -0.010034 -0.004192 -0.193646 -0.031328 -0.053605
  5O   1px       -0.031527 -0.045780  0.153408  0.004748  0.129986  0.050429
  5O   1py        0.011110  0.062784  0.057367 -0.027647  0.242981  0.389246
  5O   3s        -0.110683  0.140356  0.100395 -0.000451  0.288570  0.220159
  5O   2pz        0.000037 -0.005487 -0.003802 -0.105628 -0.015084 -0.030773
  5O   2px       -0.014751 -0.022592  0.082831  0.002640  0.061602  0.019105
  5O   2py       -0.002904  0.034751  0.041847 -0.015046  0.116590  0.221854
  5O   1dz2      -0.001123  0.002084  0.003514 -0.003406  0.008038  0.008387
  5O   1dxz      -0.000474 -0.000182  0.001488  0.005511  0.000965  0.000725
  5O   1dyz       0.000082  0.001471  0.000391  0.014586  0.002582  0.004100
  5O   1dx2y2     0.001772  0.006277 -0.001199 -0.002241  0.005343  0.014924
  5O   1dxy       0.004031  0.001738 -0.011858  0.000401 -0.008383 -0.005161
  6O   1s         0.032290 -0.019569 -0.038495 -0.000051  0.034721 -0.010018
  6O   2s        -0.074867  0.040152  0.094908  0.000097 -0.082272  0.025712
  6O   1pz       -0.006786  0.066060 -0.020334 -0.245215 -0.001382 -0.013504
  6O   1px       -0.045579  0.116629  0.145173  0.006546 -0.239126 -0.104880
  6O   1py        0.039833 -0.446676  0.170177 -0.034583 -0.036159  0.077705
  6O   3s        -0.090584  0.069708  0.122357  0.000271 -0.132726  0.048520
  6O   2pz       -0.003603  0.030951 -0.008800 -0.158312 -0.001511 -0.005674
  6O   2px       -0.022740  0.046301  0.096632  0.004218 -0.157800 -0.070112
  6O   2py        0.021498 -0.210842  0.079671 -0.022361 -0.019519  0.028204
  6O   1dz2      -0.000223 -0.004959  0.006530  0.001055 -0.006394  0.000212
  6O   1dxz       0.000679 -0.003263  0.000399  0.015475 -0.000233  0.000346
  6O   1dyz       0.001032 -0.003152  0.000409 -0.001407  0.000727  0.001558
  6O   1dx2y2     0.008156 -0.017277 -0.007330 -0.000207  0.014955  0.010573
  6O   1dxy      -0.003305  0.021632 -0.006177  0.002219  0.006476 -0.000708
  7H   1s        -0.034124  0.224694 -0.083287 -0.000051  0.032990 -0.041270
  7H   2s        -0.004094  0.093368 -0.044629 -0.000126  0.030842 -0.051147
                     12        13        14        15        16        17   
                  -0.39133  -0.36236  -0.30384  -0.26050   0.01080   0.04931
                   2.00000   2.00000   2.00000   2.00000   0.00000   0.00000
                  --------  --------  --------  --------  --------  --------
  0C   1s        -0.000010  0.015441  0.000002  0.028936 -0.000022  0.060464
  0C   2s        -0.000034 -0.026700  0.000027 -0.059462  0.000179 -0.079547
  0C   1pz        0.310647 -0.021284 -0.067869  0.007871 -0.036048 -0.013445
  0C   1px       -0.007911 -0.227823  0.001741 -0.174353  0.000899  0.042655
  0C   1py        0.044005  0.110015 -0.009626 -0.087043 -0.005161  0.102982
  0C   3s         0.000168 -0.125289 -0.000057 -0.220325 -0.000071 -0.832971
  0C   2pz        0.156524 -0.009859 -0.076391 -0.002665 -0.279417 -0.024104
  0C   2px       -0.003961 -0.139331  0.001960 -0.133855  0.006745  0.232680
  0C   2py        0.022036  0.044837 -0.010781 -0.005899 -0.039573  0.213327
  0C   1dz2      -0.003754  0.009535  0.000334 -0.002818 -0.002696  0.003311
  0C   1dxz      -0.017201  0.000723  0.008119 -0.000669 -0.036562  0.000925
  0C   1dyz       0.011918  0.002112  0.000122 -0.002059  0.004208  0.000475
  0C   1dx2y2    -0.001286 -0.000376 -0.000220 -0.010119  0.000303 -0.000960
  0C   1dxy      -0.002752 -0.008222  0.001145  0.003858 -0.005289 -0.007930
  1C   1s         0.000011 -0.011664 -0.000001  0.016910 -0.000007 -0.018304
  1C   2s        -0.000047  0.027917  0.000017 -0.043590 -0.000010  0.013938
  1C   1pz       -0.183080  0.003013  0.163639 -0.006053 -0.535073  0.008721
  1C   1px        0.004621  0.229839 -0.004176  0.053037  0.013579  0.093720
  1C   1py       -0.025901  0.020050  0.023125  0.052294 -0.075586 -0.047559
  1C   3s         0.000021 -0.029881  0.000047 -0.073530  0.000476  0.158815
  1C   2pz       -0.109743  0.005385  0.103843 -0.009008 -0.466980 -0.007098
  1C   2px        0.002820 -0.031277 -0.002606 -0.123694  0.011613  0.089655
  1C   2py       -0.015504 -0.043823  0.014780  0.041562 -0.065618  0.065615
  1C   1dz2      -0.001735 -0.001048 -0.009653 -0.002184 -0.004301  0.007113
  1C   1dxz      -0.022791 -0.000105 -0.001667  0.004805  0.019690  0.000476
  1C   1dyz       0.002837 -0.003234  0.038327 -0.005888  0.020719  0.002811
  1C   1dx2y2     0.000168 -0.020188 -0.005483 -0.029959 -0.003481  0.007826
  1C   1dxy      -0.003311 -0.002518 -0.001244 -0.038569  0.002259 -0.004204
  2H   1s         0.176007  0.086227 -0.045595 -0.005119  0.108816  0.021708
  2H   2s         0.149396  0.083381 -0.013858  0.014673  0.440006  0.332146
  3H   1s        -0.000080 -0.061603  0.000024  0.074843  0.000048 -0.001006
  3H   2s        -0.000173 -0.034167  0.000063  0.148277 -0.000163  0.616912
  4H   1s        -0.175964  0.086166  0.045580 -0.005139 -0.108818  0.021639
  4H   2s        -0.149345  0.083377  0.013868  0.014530 -0.440433  0.332272
  5O   1s        -0.000013  0.013216  0.000004 -0.000963  0.000005  0.017127
  5O   2s         0.000027 -0.032868  0.000010  0.000281  0.000027 -0.039419
  5O   1pz       -0.170299  0.028691  0.469210 -0.034048  0.368412 -0.011853
  5O   1px        0.004337  0.060393 -0.011970 -0.586012 -0.009329 -0.037023
  5O   1py       -0.023942 -0.192253  0.066273  0.135215  0.052010  0.078500
  5O   3s         0.000049 -0.012257 -0.000123  0.022976 -0.000301 -0.159116
  5O   2pz       -0.097923  0.019683  0.322852 -0.022726  0.386166 -0.016828
  5O   2px        0.002479  0.042138 -0.008230 -0.404331 -0.009713 -0.021500
  5O   2py       -0.013764 -0.131770  0.045659  0.087977  0.054626  0.116357
  5O   1dz2      -0.002828 -0.002617  0.005494 -0.001781 -0.000869  0.002808
  5O   1dxz       0.002334  0.000426 -0.009787 -0.002445  0.001492  0.000789
  5O   1dyz       0.011746 -0.002698 -0.023738  0.001914  0.003772  0.001188
  5O   1dx2y2    -0.001745 -0.013358  0.003665  0.012667 -0.000579  0.004345
  5O   1dxy       0.000020 -0.004543 -0.000756  0.020127  0.000103 -0.005660
  6O   1s        -0.000013  0.053699 -0.000002 -0.025790 -0.000028  0.072354
  6O   2s         0.000015 -0.124688 -0.000028  0.058816  0.000037 -0.139744
  6O   1pz       -0.383661  0.006709 -0.414804 -0.018698  0.243139 -0.030489
  6O   1px        0.009823 -0.474994  0.010558 -0.125771 -0.006246  0.126860
  6O   1py       -0.054147 -0.133561 -0.058591  0.109899  0.034238  0.238853
  6O   3s         0.000090 -0.205854  0.000113  0.188202  0.000442 -0.811699
  6O   2pz       -0.266698 -0.000359 -0.329160 -0.015314  0.243965 -0.052198
  6O   2px        0.006839 -0.325318  0.008345 -0.115874 -0.006326  0.165177
  6O   2py       -0.037700 -0.056295 -0.046541  0.087620  0.034337  0.400115
  6O   1dz2       0.000477 -0.012348 -0.001812  0.001150  0.005131  0.006707
  6O   1dxz       0.018841 -0.001030  0.017088  0.000475  0.009354  0.001234
  6O   1dyz       0.001503 -0.001162  0.010331  0.001071 -0.018877  0.001222
  6O   1dx2y2    -0.000692  0.010906 -0.001918  0.005943  0.002486 -0.001048
  6O   1dxy       0.002628  0.013119  0.002146 -0.002683  0.001821 -0.010977
  7H   1s        -0.000045  0.131095 -0.000021 -0.046752 -0.000015  0.137623
  7H   2s        -0.000105  0.087809 -0.000087 -0.065127 -0.000460  1.254778
                     18        19        20        21        22        23   
                   0.11689   0.13776   0.16942   0.21531   0.31947   0.35783
                   0.00000   0.00000   0.00000   0.00000   0.00000   0.00000
                  --------  --------  --------  --------  --------  --------
  0C   1s         0.127987  0.039322 -0.000037  0.077899  0.033138 -0.018910
  0C   2s        -0.158842 -0.032242 -0.000243 -0.057042  0.046924 -0.070015
  0C   1pz        0.025373 -0.045832  0.429176 -0.020440 -0.000254 -0.025729
  0C   1px        0.147609  0.114011 -0.010953 -0.283163  0.124764 -0.094512
  0C   1py       -0.152646  0.345925  0.060752  0.094834  0.022521  0.162115
  0C   3s        -2.032101 -0.743844  0.000857 -1.351912 -1.285355  0.683767
  0C   2pz        0.082923 -0.146818  1.346254 -0.059628 -0.026733 -0.138525
  0C   2px        0.370959  0.238167 -0.034465 -1.624415 -1.048013  0.655331
  0C   2py       -0.516869  1.076239  0.190872  0.127966  0.000182  1.101740
  0C   1dz2       0.008333 -0.010423  0.003625 -0.018109 -0.011627  0.015876
  0C   1dxz       0.000176 -0.001993 -0.003695  0.000252  0.002964  0.007906
  0C   1dyz       0.002411 -0.004557 -0.015216  0.000478  0.001102  0.002712
  0C   1dx2y2     0.002965 -0.016250  0.002270  0.032835  0.029965  0.002534
  0C   1dxy      -0.003433  0.014578 -0.000112  0.009925 -0.011991 -0.060605
  1C   1s        -0.021864  0.040215  0.000036 -0.147570  0.044705 -0.007686
  1C   2s        -0.038266 -0.070418 -0.000142  0.220158  0.060082  0.014698
  1C   1pz        0.003474 -0.021390 -0.207724  0.019652  0.000051  0.057800
  1C   1px       -0.034363 -0.093985  0.005308 -0.212122 -0.386649  0.367570
  1C   1py       -0.031801  0.135335 -0.029241 -0.175855 -0.070404 -0.344633
  1C   3s         0.621303 -0.531622 -0.000726  2.668504 -1.163718 -0.780666
  1C   2pz       -0.000400 -0.003410 -0.446868  0.028214  0.156011  0.315016
  1C   2px       -0.063123 -0.019925  0.011167 -0.706514 -1.777815  1.050424
  1C   2py       -0.009383  0.022339 -0.064169 -0.328117 -1.424417 -2.039447
  1C   1dz2       0.007443 -0.010223  0.000063  0.017121 -0.027671  0.021966
  1C   1dxz      -0.002649  0.003957 -0.009856 -0.001091  0.000985 -0.005237
  1C   1dyz       0.000116 -0.001291 -0.002032  0.003597 -0.005534  0.003224
  1C   1dx2y2    -0.014617  0.012931  0.000545 -0.004926  0.008823 -0.020679
  1C   1dxy       0.013820 -0.022492 -0.001378  0.001345  0.003475  0.026507
  2H   1s         0.056066 -0.036515 -0.067060 -0.068133  0.009199  0.093183
  2H   2s         1.287235 -0.205675 -1.443731 -0.377038  0.040069 -0.315411
  3H   1s        -0.020917  0.137500 -0.000001 -0.028270 -0.122399 -0.061077
  3H   2s         0.208394  1.850700  0.000339  0.451882  0.034169  0.844698
  4H   1s         0.056169 -0.036760  0.066905 -0.068285  0.009173  0.093368
  4H   2s         1.288003 -0.206680  1.442565 -0.376949  0.039692 -0.315532
  5O   1s         0.004784  0.002376 -0.000034  0.027254 -0.095313 -0.053238
  5O   2s         0.000240 -0.024267  0.000004 -0.053026  0.149608  0.061749
  5O   1pz        0.004236  0.008243  0.156417 -0.015233  0.024638  0.000934
  5O   1px        0.021864  0.131142 -0.003994  0.055836  0.034397 -0.168604
  5O   1py       -0.025720 -0.035225  0.022063  0.117682 -0.167956 -0.036624
  5O   3s        -0.146035  0.092972  0.000941 -0.360671  1.853257  1.303142
  5O   2pz       -0.007014  0.012859  0.182223 -0.028051  0.124552  0.041376
  5O   2px        0.022570  0.105529 -0.004700  0.177930  0.010997 -0.525541
  5O   2py        0.054266 -0.072640  0.025391  0.230793 -0.880121 -0.388101
  5O   1dz2       0.007500 -0.006177 -0.000550  0.012027 -0.027892 -0.006784
  5O   1dxz       0.000044 -0.000020  0.003151 -0.000161 -0.002623 -0.000445
  5O   1dyz       0.002253 -0.000965  0.002705  0.003342 -0.010093 -0.004440
  5O   1dx2y2     0.003009  0.003514 -0.000480  0.002831 -0.025917 -0.019499
  5O   1dxy      -0.002167  0.002764  0.000386 -0.002224  0.022790  0.001844
  6O   1s        -0.012074 -0.048918 -0.000022  0.037470 -0.038450  0.053582
  6O   2s         0.018165  0.112431  0.000099 -0.081767  0.105969 -0.114747
  6O   1pz        0.021953 -0.001546  0.059517  0.026179 -0.028001  0.040637
  6O   1px        0.044076 -0.119142 -0.001556  0.141580  0.028083  0.220528
  6O   1py       -0.147064 -0.010498  0.008421 -0.159731  0.202876 -0.247979
  6O   3s         0.161516  0.487155 -0.000075 -0.428737  0.315241 -0.957819
  6O   2pz        0.040984 -0.002357  0.119846  0.048863 -0.090697  0.095243
  6O   2px        0.056733 -0.189338 -0.002957  0.344702  0.075172  0.476532
  6O   2py       -0.279732 -0.017985  0.016987 -0.283746  0.655804 -0.588583
  6O   1dz2       0.002473 -0.001227  0.002877  0.008780 -0.002065 -0.001608
  6O   1dxz      -0.000844 -0.001752 -0.001023  0.000978  0.002066  0.001531
  6O   1dyz       0.001379  0.000873 -0.011678  0.001689  0.002207  0.000825
  6O   1dx2y2     0.004241  0.005619  0.001707 -0.001725  0.020804  0.010119
  6O   1dxy       0.005942  0.013783  0.000176 -0.010037 -0.010268 -0.008477
  7H   1s        -0.078970 -0.065818 -0.000056 -0.015990 -0.065485 -0.113956
  7H   2s        -0.573935 -0.487357 -0.000171 -0.159592  0.450231 -0.569235
                     24        25        26        27        28        29   
                   0.51932   0.52622   0.58451   0.60359   0.63017   0.67809
                   0.00000   0.00000   0.00000   0.00000   0.00000   0.00000
                  --------  --------  --------  --------  --------  --------
  0C   1s        -0.012884 -0.000204  0.028528  0.008083 -0.000027 -0.002223
  0C   2s         0.251015  0.002867 -0.204885  0.012390 -0.001114  0.036302
  0C   1pz        0.030344 -0.438109  0.043076 -0.098982 -0.689741 -0.041195
  0C   1px        0.620487  0.019517 -0.655518 -0.325590  0.018341 -0.023444
  0C   1py       -0.055140 -0.061199 -0.418844  0.632305 -0.099883  0.283203
  0C   3s        -0.772376 -0.010174 -0.219069 -0.821011  0.002175  0.457722
  0C   2pz       -0.039557  0.802027 -0.071406  0.303711  1.844152  0.159446
  0C   2px       -0.934653 -0.033671  0.808039  0.270135 -0.049092  0.409780
  0C   2py        0.022746  0.109601  0.639027 -2.070949  0.268365 -1.039799
  0C   1dz2      -0.013911  0.017015 -0.042951  0.098664  0.022153  0.017307
  0C   1dxz       0.000458  0.034314  0.000605 -0.006205  0.028640  0.001811
  0C   1dyz      -0.005404 -0.062399 -0.015775  0.027340 -0.085322  0.011377
  0C   1dx2y2    -0.019045  0.007880 -0.035889  0.016823  0.011261  0.051874
  0C   1dxy      -0.005537  0.006535  0.002997  0.015487  0.006293 -0.008383
  1C   1s        -0.019808 -0.000327 -0.033048 -0.033887 -0.000006  0.061584
  1C   2s         0.584202  0.008400  0.370007  0.300165 -0.000848 -0.219655
  1C   1pz        0.074722 -0.785341  0.048780 -0.011719  0.564736  0.117049
  1C   1px        0.584214  0.028568  0.033008  0.315741 -0.014123 -0.280673
  1C   1py       -0.347658 -0.115217 -0.346921  0.161213  0.079750 -0.874963
  1C   3s        -0.502052 -0.006402 -1.574913 -0.221877  0.000516 -0.051860
  1C   2pz       -0.094862  0.767124 -0.076185 -0.254319 -1.357215 -0.284816
  1C   2px       -1.259764 -0.039208 -0.942613 -1.693150  0.035827  0.471476
  1C   2py        0.373841  0.116252  0.383300  1.456543 -0.197991  2.089917
  1C   1dz2      -0.016029  0.000633  0.065884  0.057230  0.001838 -0.081925
  1C   1dxz      -0.004779 -0.018739 -0.006226 -0.002361 -0.003246 -0.011489
  1C   1dyz       0.010839 -0.006324  0.009112  0.017088 -0.008030 -0.034659
  1C   1dx2y2     0.092020  0.002782 -0.053453  0.018981  0.001320 -0.114317
  1C   1dxy       0.056779 -0.001780  0.013419  0.002142 -0.000374  0.086810
  2H   1s        -0.065856 -0.289961 -0.004331  0.201788 -0.256780  0.058854
  2H   2s        -0.037575 -0.161373  0.077107  0.347800 -0.460645  0.158503
  3H   1s         0.094220  0.000734  0.315695 -0.274815  0.001523 -0.128789
  3H   2s         0.035037 -0.001393  0.140585 -0.707368  0.001733 -0.276698
  4H   1s        -0.074104  0.288026 -0.004554  0.202453  0.254562  0.060053
  4H   2s        -0.042613  0.160827  0.076156  0.350033  0.457545  0.159040
  5O   1s        -0.008191 -0.000046 -0.010173  0.016625 -0.000041 -0.016783
  5O   2s        -0.005102 -0.000205 -0.026050  0.018751 -0.000349  0.165849
  5O   1pz       -0.013803 -0.046272  0.015875 -0.014638  0.166823  0.050002
  5O   1px       -0.017152  0.001046  0.260929  0.021419 -0.003616 -0.206047
  5O   1py        0.098124 -0.004857 -0.067066  0.111766  0.023590 -0.389741
  5O   3s         0.272810  0.002514  0.435750 -0.536902  0.003488 -1.100129
  5O   2pz        0.031859 -0.075104  0.048128 -0.004913  0.137321 -0.008917
  5O   2px        0.086024  0.003754  0.089508  0.442433 -0.004649  0.104439
  5O   2py       -0.202818 -0.012970 -0.325782  0.118357  0.018433  0.083216
  5O   1dz2      -0.024967 -0.012109 -0.009131 -0.005787  0.005310  0.085493
  5O   1dxz       0.005148  0.005915 -0.000392 -0.002009 -0.029874  0.010550
  5O   1dyz      -0.015479  0.047812 -0.001153 -0.010331 -0.027029  0.033699
  5O   1dx2y2    -0.052326 -0.007898  0.006095 -0.061296  0.004698  0.101316
  5O   1dxy      -0.038084 -0.000955  0.007113  0.004524 -0.003475 -0.084166
  6O   1s         0.010994  0.000089 -0.017585 -0.031481  0.000080 -0.003217
  6O   2s        -0.068288 -0.000762  0.003136  0.029441 -0.000071 -0.030266
  6O   1pz        0.018994 -0.116336  0.005293  0.005118  0.128825 -0.001544
  6O   1px        0.118600  0.004673  0.184974  0.208439 -0.003632 -0.032849
  6O   1py       -0.102257 -0.017911 -0.005926  0.005186  0.018213  0.006385
  6O   3s         0.598512  0.009855  0.726252  1.189113 -0.002925  0.537173
  6O   2pz       -0.039675 -0.038177 -0.052070 -0.076124  0.141384 -0.002426
  6O   2px       -0.031127  0.000031 -0.199728 -0.389434 -0.002243 -0.208952
  6O   2py        0.278606 -0.000823  0.331644  0.472592  0.019105 -0.019520
  6O   1dz2      -0.073294  0.008606 -0.040240 -0.044798 -0.000062 -0.040879
  6O   1dxz       0.013881  0.013749  0.014638  0.008739 -0.031977  0.007403
  6O   1dyz      -0.032653 -0.036717 -0.008971 -0.015185 -0.005061 -0.004306
  6O   1dx2y2    -0.086464  0.003633  0.023548 -0.018550  0.001490  0.046963
  6O   1dxy      -0.091324  0.001578 -0.086235 -0.051683 -0.004348 -0.031271
  7H   1s         0.275354  0.003874 -0.082753  0.047182 -0.000126  0.017917
  7H   2s         0.016133  0.000315  0.279636  0.133508 -0.000175  0.155195
                     30        31        32        33        34        35   
                   0.74526   0.81261   0.83019   0.84170   0.91739   0.93543
                   0.00000   0.00000   0.00000   0.00000   0.00000   0.00000
                  --------  --------  --------  --------  --------  --------
  0C   1s         0.041375  0.033337 -0.000038 -0.001504  0.051592  0.000093
  0C   2s        -0.135300  0.019434  0.001166 -0.088154 -1.051440 -0.001976
  0C   1pz        0.005702 -0.019008  0.710127 -0.098165 -0.008085  0.311504
  0C   1px       -0.123702  0.112575 -0.018044 -0.119086  0.398423 -0.007040
  0C   1py       -0.063409  0.158605  0.099007  0.684121  0.128838  0.043992
  0C   3s         1.193753  0.129782 -0.003055  0.108232  1.694817  0.002829
  0C   2pz       -0.022738  0.055359 -1.080258  0.123625 -0.005233 -0.428405
  0C   2px        1.256793  0.255767  0.026584  0.104650 -0.914950  0.008525
  0C   2py        0.393247 -0.349996 -0.150700 -0.875860 -0.129333 -0.060953
  0C   1dz2      -0.026968  0.004782  0.032719 -0.115491  0.021267  0.023551
  0C   1dxz       0.000349 -0.006021  0.158935 -0.008391  0.004362  0.041860
  0C   1dyz       0.003458 -0.000784 -0.101575 -0.043313 -0.009781 -0.086232
  0C   1dx2y2     0.068462 -0.019860  0.010856 -0.114109 -0.095730  0.011204
  0C   1dxy       0.019008  0.038583  0.024987  0.077457 -0.054653  0.008151
  1C   1s        -0.021054 -0.002244  0.000008 -0.006608  0.002091 -0.000066
  1C   2s         0.899944  0.789195 -0.000407 -0.335388 -0.264923 -0.001734
  1C   1pz       -0.009391 -0.002634  0.036265  0.020033 -0.009867  0.118161
  1C   1px       -0.589170 -0.020120 -0.000575 -0.016380  0.097437 -0.002905
  1C   1py       -0.038130  0.016268  0.005701 -0.144920  0.085697  0.016608
  1C   3s        -2.745802 -0.634809  0.002427 -0.053095  1.408005  0.002228
  1C   2pz        0.071135 -0.031482  0.071281  0.091107 -0.006961 -0.374289
  1C   2px        1.669863  0.260916 -0.002816  0.012943 -0.181951  0.007939
  1C   2py       -0.207141  0.268216  0.010115 -0.638221  0.021111 -0.052604
  1C   1dz2       0.021526 -0.037661 -0.000555  0.029255 -0.007902 -0.005239
  1C   1dxz       0.004468  0.009981 -0.094227  0.014664 -0.005305 -0.019404
  1C   1dyz       0.011539 -0.018778 -0.014848  0.013405 -0.012815  0.018440
  1C   1dx2y2     0.048386 -0.052466  0.004459  0.061301 -0.079802 -0.002129
  1C   1dxy      -0.030336 -0.068444 -0.012674 -0.102996  0.025999 -0.003247
  2H   1s         0.291019  0.245003 -0.662814 -0.382363  0.417120 -0.278279
  2H   2s         0.079902  0.091314  1.255755  0.642480 -0.883341  0.603604
  3H   1s         0.165446  0.365992 -0.001590  0.718001  0.591287  0.000774
  3H   2s         0.285180 -0.447450  0.003114 -1.377278 -0.985942 -0.001871
  4H   1s         0.292176  0.246298  0.663271 -0.380578  0.416646  0.280067
  4H   2s         0.079291  0.089276 -1.257094  0.637981 -0.882761 -0.607464
  5O   1s        -0.011174  0.010606  0.000072 -0.047967  0.019825 -0.000032
  5O   2s        -0.007836  0.023500 -0.000264  0.190101 -0.057526  0.000103
  5O   1pz       -0.038894 -0.009274 -0.074435 -0.031993  0.044386  0.345261
  5O   1px       -0.168266 -0.092648  0.002112  0.076493 -0.003111 -0.008588
  5O   1py        0.246629  0.049658 -0.011027  0.238968 -0.319368  0.049254
  5O   3s         0.523084 -0.193426 -0.000740  0.514586 -0.384232 -0.000068
  5O   2pz        0.048886 -0.020820  0.085868  0.089760 -0.080651 -0.307551
  5O   2px       -0.179447  0.154297 -0.001972 -0.312860  0.140566  0.007717
  5O   2py       -0.378961  0.174883  0.013458 -0.691282  0.600498 -0.044476
  5O   1dz2      -0.049637 -0.018419 -0.004309 -0.008759  0.034784  0.005393
  5O   1dxz      -0.004507 -0.002483 -0.023676 -0.001717 -0.002570  0.017886
  5O   1dyz      -0.012761 -0.006919  0.013146 -0.004504  0.012133 -0.018068
  5O   1dx2y2    -0.010887 -0.019742 -0.001306 -0.018310  0.021690  0.002185
  5O   1dxy       0.045415  0.019644 -0.003722  0.011454  0.010860  0.003003
  6O   1s         0.020268 -0.001429 -0.000038  0.026403  0.005032 -0.000049
  6O   2s        -0.099157  0.045640  0.000098 -0.151668 -0.045783  0.000425
  6O   1pz       -0.009060  0.022528  0.372123 -0.016252 -0.032112 -0.787496
  6O   1px        0.097975 -0.549113 -0.008954 -0.058062  0.211114  0.020546
  6O   1py        0.083408 -0.256348  0.052702  0.109821  0.272127 -0.111556
  6O   3s         0.010710 -0.114451  0.000197 -0.151538 -0.078327 -0.000320
  6O   2pz       -0.017132  0.026004 -0.386759  0.033035  0.046202  1.025054
  6O   2px       -0.213926  0.570652  0.009149  0.256234 -0.150069 -0.026853
  6O   2py        0.082120 -0.082920 -0.054595 -0.193990 -0.363083  0.145572
  6O   1dz2      -0.068793  0.036908  0.000862  0.005426  0.018948  0.014396
  6O   1dxz      -0.005455  0.013680  0.019218 -0.004119 -0.001948  0.018787
  6O   1dyz      -0.025009  0.016688  0.000247 -0.000559  0.007314 -0.053956
  6O   1dx2y2    -0.063133  0.069581 -0.000518 -0.018050  0.015395  0.007353
  6O   1dxy       0.049201 -0.095908  0.002748  0.024549  0.010381  0.004100
  7H   1s         0.598226 -0.656537 -0.000058  0.152265  0.096554 -0.000246
  7H   2s        -0.507679  0.680928 -0.000192 -0.218118 -0.206063  0.000856
                     36        37        38        39        40        41   
                   0.93931   0.99655   1.04590   1.10516   1.16751   1.34263
                   0.00000   0.00000   0.00000   0.00000   0.00000   0.00000
                  --------  --------  --------  --------  --------  --------
  0C   1s         0.017934  0.000028  0.000010  0.003050  0.075569  0.000046
  0C   2s        -0.640742 -0.140802  0.000359 -0.053357  1.766597  0.000590
  0C   1pz        0.038126 -0.013028 -0.031404 -0.025132  0.009030 -0.115177
  0C   1px        0.205738  0.153814  0.000647  0.055797  0.103935  0.002847
  0C   1py       -0.234208  0.118549 -0.004431  0.187351 -0.049120 -0.016250
  0C   3s         0.805243  0.841592 -0.001113  1.386377 -4.262063 -0.002869
  0C   2pz       -0.012769  0.052197  0.533966  0.072602 -0.021579  0.003177
  0C   2px       -0.654150 -0.016356 -0.013460  0.656959 -0.448919 -0.000939
  0C   2py       -0.026851 -0.369440  0.075548 -0.393420  0.080748  0.000300
  0C   1dz2       0.130921 -0.080501  0.013949 -0.018828  0.026409 -0.065938
  0C   1dxz      -0.009441  0.004463 -0.041100 -0.003813 -0.000559  0.303172
  0C   1dyz       0.032492 -0.021912 -0.063176  0.005750  0.004581  0.318856
  0C   1dx2y2    -0.006872 -0.011356  0.010134  0.064533 -0.011949 -0.053534
  0C   1dxy       0.023761 -0.008027 -0.004149  0.043954 -0.006489  0.034387
  1C   1s        -0.035581 -0.010564 -0.000004  0.010637 -0.022362 -0.000023
  1C   2s        -0.698465 -0.051042  0.000068  0.351686 -0.271730 -0.000440
  1C   1pz        0.028631 -0.005132  0.208773 -0.006933 -0.000080  0.059602
  1C   1px        0.057478 -0.187676 -0.005352 -0.258889 -0.073114 -0.001443
  1C   1py       -0.193829  0.002505  0.029530  0.003047 -0.013154  0.008465
  1C   3s         0.351573 -1.337330  0.000337 -1.420792  2.611026  0.001947
  1C   2pz       -0.040144 -0.112731 -1.057609  0.030068 -0.006309 -0.099461
  1C   2px       -0.798198 -0.020810  0.026808  1.682955  0.066148  0.000676
  1C   2py        0.145122  0.794052 -0.149822  0.089094  0.055383 -0.014306
  1C   1dz2       0.115600  0.066095  0.009677 -0.018953  0.047826 -0.075767
  1C   1dxz       0.008014 -0.015893  0.001447 -0.012963 -0.000741 -0.537826
  1C   1dyz       0.036055  0.024980 -0.038603  0.013857  0.018174  0.206578
  1C   1dx2y2     0.065066  0.040841  0.005511  0.107615  0.044294 -0.016388
  1C   1dxy      -0.081971  0.098447  0.001214  0.117047 -0.002447 -0.081456
  2H   1s         0.355318 -0.029032 -0.085865  0.070455  0.349516  0.119509
  2H   2s        -0.750992  0.027162 -0.134278  0.103892  0.541726 -0.101658
  3H   1s        -0.213142  0.251847 -0.000022 -0.023950  0.314755  0.000242
  3H   2s        -0.032025 -0.744304  0.000393 -0.335919  0.780317  0.000133
  4H   1s         0.354769 -0.029257  0.085878  0.070296  0.349223 -0.119224
  4H   2s        -0.750049  0.027926  0.134732  0.104415  0.543300  0.101959
  5O   1s        -0.039899  0.007963 -0.000014  0.002923 -0.012550 -0.000012
  5O   2s         0.182829 -0.134966  0.000170 -0.045722  0.317399  0.000264
  5O   1pz       -0.068885 -0.023107 -0.851427  0.050326 -0.006914 -0.037813
  5O   1px        0.217364 -0.171862  0.021653  0.774862  0.088547  0.000965
  5O   1py        0.522988  0.128884 -0.120227 -0.216573  0.065243 -0.005467
  5O   3s         0.144189  0.092081 -0.000026  0.039320 -0.957256 -0.000303
  5O   2pz        0.146592  0.039350  1.296222 -0.088002 -0.022689  0.052843
  5O   2px       -0.213781  0.123717 -0.032962 -1.429935 -0.109220 -0.001059
  5O   2py       -1.072952 -0.251762  0.183078  0.365496  0.141089  0.007701
  5O   1dz2       0.016321 -0.009734 -0.008644 -0.025751  0.143080 -0.017425
  5O   1dxz      -0.000353  0.004574  0.022581  0.014527 -0.011099 -0.180482
  5O   1dyz       0.005468 -0.003380  0.038645 -0.019771  0.030078  0.037339
  5O   1dx2y2     0.009634 -0.001350 -0.006147 -0.072767 -0.044248 -0.000923
  5O   1dxy      -0.001104 -0.029622  0.002183 -0.107199  0.024918 -0.026532
  6O   1s        -0.005530 -0.054688  0.000017  0.005910 -0.010630  0.000002
  6O   2s         0.004830  0.351922 -0.000057 -0.111244  0.190166  0.000084
  6O   1pz        0.010454  0.098183 -0.311280  0.021040 -0.041993 -0.007118
  6O   1px       -0.143262  0.484318  0.007696 -0.029156  0.221449  0.000024
  6O   1py       -0.091707 -0.603014 -0.043924 -0.154502  0.336959 -0.001286
  6O   3s         0.214748  0.087877 -0.000168 -0.123874 -0.549019 -0.000138
  6O   2pz       -0.026854 -0.187960  0.597144 -0.028747  0.133892  0.176231
  6O   2px        0.117328 -1.079073 -0.014740 -0.166902 -0.224090 -0.004044
  6O   2py        0.200586  1.130457  0.084329  0.173972 -0.987940  0.025999
  6O   1dz2       0.010057  0.045270  0.005714  0.026930  0.160147  0.099130
  6O   1dxz       0.000515 -0.000882  0.039937 -0.005275  0.003233  0.175124
  6O   1dyz      -0.000160  0.014977 -0.015831  0.010373  0.033540 -0.365414
  6O   1dx2y2    -0.017276  0.025902  0.001291  0.019348 -0.030151  0.048300
  6O   1dxy      -0.009979 -0.003940  0.006087  0.032074 -0.079501  0.034565
  7H   1s        -0.071457 -0.445769  0.000216 -0.000003 -0.251419  0.000448
  7H   2s         0.167920  1.144691 -0.000212  0.087465 -0.254553  0.000327
                     42        43        44        45        46        47   
                   1.38870   1.44552   1.57075   1.64201   1.72505   1.75227
                   0.00000   0.00000   0.00000   0.00000   0.00000   0.00000
                  --------  --------  --------  --------  --------  --------
  0C   1s         0.075845 -0.000039 -0.013963  0.033652  0.000035  0.072735
  0C   2s         0.951393 -0.000553 -0.422433  0.576154  0.000184  0.205463
  0C   1pz        0.001492 -0.040071 -0.010516 -0.011022 -0.087515 -0.000568
  0C   1px       -0.100395  0.001042 -0.089460  0.037217  0.002074 -0.336182
  0C   1py       -0.029166 -0.005608  0.058963  0.084374 -0.012395 -0.056263
  0C   3s        -4.775746  0.002412  1.364828 -2.052963 -0.001506 -2.867209
  0C   2pz       -0.017621 -0.142865 -0.034403  0.035809  0.279612 -0.022651
  0C   2px       -1.573084  0.004407  0.337270 -0.512307 -0.007481 -0.817029
  0C   2py       -0.158115 -0.020242  0.302965 -0.345017  0.039503  0.011939
  0C   1dz2       0.076143 -0.021410 -0.149868 -0.237655 -0.036688 -0.102325
  0C   1dxz       0.004490  0.244104  0.063187  0.057729  0.292998 -0.000171
  0C   1dyz       0.009662  0.129664 -0.036476 -0.068394  0.199599  0.014939
  0C   1dx2y2    -0.051419 -0.024755  0.076788 -0.001477 -0.035966  0.266757
  0C   1dxy      -0.065501  0.031139 -0.385340 -0.332510  0.036183  0.080306
  1C   1s        -0.041248  0.000019  0.003002 -0.025972 -0.000008 -0.017861
  1C   2s        -0.739094  0.000355  0.012144 -0.173179 -0.000258 -0.688871
  1C   1pz       -0.004369  0.070126 -0.007829 -0.005790  0.018658  0.004068
  1C   1px        0.158026 -0.001853 -0.075579  0.067127 -0.000439  0.133033
  1C   1py        0.058604  0.009909  0.041989  0.053032  0.002605 -0.004961
  1C   3s         3.251388 -0.001792  0.819497 -0.703089  0.000704  1.611891
  1C   2pz       -0.028833 -0.121066  0.145997  0.068361 -0.193553  0.077493
  1C   2px       -3.272599  0.004424  1.469732 -1.583599  0.003786 -2.378264
  1C   2py       -0.384122 -0.016846 -0.768696 -0.769542 -0.027631 -0.976547
  1C   1dz2       0.107536  0.128257  0.028291 -0.011485 -0.000084 -0.170844
  1C   1dxz      -0.026705 -0.215414 -0.007376 -0.005602  0.001237  0.008344
  1C   1dyz       0.016497 -0.552589  0.008592  0.003682  0.000444  0.029066
  1C   1dx2y2    -0.094732  0.085013  0.002723  0.036214  0.000110  0.483248
  1C   1dxy       0.139442 -0.015879  0.043593  0.049590  0.000225  0.080819
  2H   1s         0.255969  0.097350 -0.104077  0.161449  0.017225  0.253842
  2H   2s         0.155762  0.056488 -0.133608  0.240098 -0.132548  0.050767
  3H   1s         0.381756 -0.000187  0.029055  0.087402  0.000151  0.319053
  3H   2s         0.277818 -0.000257 -0.076128 -0.026042  0.000119  0.140435
  4H   1s         0.255933 -0.097639 -0.104009  0.161394 -0.016997  0.253871
  4H   2s         0.155887 -0.056612 -0.133858  0.240294  0.132676  0.050597
  5O   1s        -0.019302  0.000010  0.000571  0.038850 -0.000007 -0.009012
  5O   2s         0.398628 -0.000212  0.099114 -1.311440 -0.000043 -0.283738
  5O   1pz        0.021052  0.104698  0.000568 -0.033590  0.029460  0.010678
  5O   1px       -0.058792 -0.002646  0.075294  0.068095 -0.000856 -0.214717
  5O   1py       -0.158531  0.014880  0.009432  0.249950  0.004089 -0.114411
  5O   3s        -0.433942  0.000279 -0.260064  2.623198  0.000363  1.179601
  5O   2pz       -0.025240  0.158292 -0.039680  0.139011  0.015028  0.058985
  5O   2px        0.605965 -0.004268 -0.361732 -0.101137 -0.000150  0.428895
  5O   2py        0.287045  0.022190  0.215970 -1.002149  0.002021 -0.340299
  5O   1dz2       0.053030 -0.089689  0.145157  0.181224 -0.014990 -0.280245
  5O   1dxz      -0.004706  0.127906 -0.005114 -0.001696  0.128850  0.059318
  5O   1dyz       0.003664  0.381788  0.019542  0.055474  0.082919 -0.062203
  5O   1dx2y2    -0.068419 -0.058147 -0.110882  0.076854 -0.015158  0.111903
  5O   1dxy       0.005266  0.007959 -0.029674 -0.031680  0.015907 -0.309473
  6O   1s        -0.000151  0.000006 -0.041409 -0.000844 -0.000005 -0.005476
  6O   2s         0.134327 -0.000255  1.404694 -0.322287 -0.000015 -0.066849
  6O   1pz        0.055329 -0.060255 -0.026277 -0.008474 -0.025520 -0.001210
  6O   1px       -0.255764  0.001631 -0.221585 -0.065666  0.000585 -0.154148
  6O   1py       -0.437110 -0.008349  0.146536  0.048213 -0.003648 -0.019202
  6O   3s        -0.115695  0.000440 -2.835189  0.950976  0.000204  0.320699
  6O   2pz       -0.229469  0.018283  0.100678 -0.031639  0.111697 -0.021378
  6O   2px        0.710740 -0.000818  0.693767  0.070254 -0.002713  0.381617
[...]
 1 C  pz              0.0       0.0       6.5       0.0       0.0       0.0
 1 C  px              2.0       0.4       0.0       4.4       5.5       6.8
 1 C  py              0.5       0.9       0.1       0.0       0.3       0.7
 1 C  dz2             1.5       0.0       0.0       0.6       2.2       4.2
 1 C  dxz             0.0       0.0       0.4       0.0       0.0       0.0
 1 C  dyz             0.1       0.0       0.0       0.0       0.2       0.2
 1 C  dx2y2           0.0       0.3       0.0       1.1       0.1       0.7
 1 C  dxy             0.9       0.1       0.0       0.8       0.0       0.6
 2 H  s              16.5       0.0       0.1       0.3       1.9       1.4
 3 H  s               0.5       3.1       0.0       0.4       1.0       3.0
 4 H  s              16.4       0.0       0.1       0.3       1.9       1.5
 5 O  s               0.9       0.3       0.0       0.1       2.1       2.9
 5 O  pz              0.3       0.1      75.9       0.3       0.0       0.0
 5 O  px              4.5       2.8       0.0      62.3       3.6       0.3
 5 O  py             18.1       3.2       1.5       5.9       0.8       1.1
 5 O  dz2             1.0       0.0       0.1       0.2       3.2       0.4
 5 O  dxz             0.0       0.0       0.4       0.1       0.0       0.0
 5 O  dyz             0.2       0.0       1.5       0.2       0.1       0.0
 5 O  dx2y2           1.7       0.1       0.0       2.4       0.4       0.2
 5 O  dxy             0.1       0.3       0.0       5.3       0.0       1.6
 6 O  s               0.1       9.2       0.0       0.3       1.4       0.1
 6 O  pz              0.0       0.8       9.6       0.1       0.2       0.4
 6 O  px              0.4      24.3       0.0       0.7      12.0       5.2
 6 O  py              0.4      27.2       0.2       7.1      15.3      21.1
 6 O  dz2             0.0       2.6       0.0       0.2       4.8       1.0
 6 O  dxz             0.0       0.0       0.5       0.0       0.0       0.1
 6 O  dyz             0.0       0.2       0.2       0.0       0.1       0.0
 6 O  dx2y2           0.0       0.0       0.0       0.0       1.4       5.0
 6 O  dxy             0.0       0.1       0.0       1.2       2.6       6.9
 7 H  s               0.0      19.0       0.0       0.3       0.5       2.2

                     42        43        44        45        46        47   
                   1.34505   1.44143   1.59161   1.63515   1.72021   1.74015
                   0.00000   0.00000   0.00000   0.00000   0.00000   0.00000
                  --------  --------  --------  --------  --------  --------
 0 C  s               0.0       0.0       0.9       4.7       0.0       6.4
 0 C  pz              0.5       0.4       0.0       0.0       0.6       0.0
 0 C  px              0.0       0.0       0.1       0.7       0.0       2.1
 0 C  py              0.0       0.0       0.1       1.3       0.0       0.1
 0 C  dz2             0.5       0.1       4.1       3.8       0.1       5.3
 0 C  dxz            10.2       5.9       0.6       0.3       7.5       0.0
 0 C  dyz            12.8       2.6       0.3       0.4       3.6       0.0
 0 C  dx2y2           0.4       0.1       0.4       0.3       0.1      11.2
 0 C  dxy             0.1       0.1      21.0      12.2       0.1       0.0
 1 C  s               0.0       0.0       0.3       1.6       0.0       4.1
 1 C  pz              0.3       0.4       0.0       0.0       0.3       0.0
 1 C  px              0.0       0.0       0.5       0.8       0.0       6.5
 1 C  py              0.0       0.0       0.6       1.9       0.0       1.2
 1 C  dz2             0.6       2.2       2.3       0.2       0.0       3.4
 1 C  dxz            37.8       3.4       0.1       0.0       0.0       0.0
 1 C  dyz             4.2      38.9       0.1       0.1       0.0       0.0
 1 C  dx2y2           0.0       0.9       0.2       2.1       0.0      17.7
 1 C  dxy             0.8       0.0       1.7       0.4       0.0       2.4
 2 H  s               0.4       0.2       0.1       0.1       0.0       1.4
 3 H  s               0.0       0.0       0.1       0.1       0.0       1.5
 4 H  s               0.4       0.2       0.1       0.1       0.0       1.4
 5 O  s               0.0       0.0       0.1      32.6       0.0       6.6
 5 O  pz              0.2       1.6       0.0       0.1       0.1       0.0
 5 O  px              0.0       0.0       0.4       0.8       0.0       1.5
 5 O  py              0.0       0.0       0.1       3.4       0.0       0.1
 5 O  dz2             0.1       1.2       5.1       3.0       0.0       3.8
 5 O  dxz             4.5       3.6       0.0       0.0       2.3       0.4
 5 O  dyz             0.6      22.6       0.1       0.6       0.5       0.1
 5 O  dx2y2           0.0       0.5       3.1       5.9       0.0       2.7
 5 O  dxy             0.1       0.0       0.0       0.2       0.0      11.1
 6 O  s               0.0       0.0      35.9       8.8       0.0       0.2
 6 O  pz              1.1       0.2       0.0       0.0       0.2       0.0
 6 O  px              0.0       0.0       3.5       0.1       0.0       0.9
 6 O  py              0.0       0.0       0.7       0.1       0.0       0.4
 6 O  dz2             1.3       0.2      14.9       0.5       1.4       0.0
 6 O  dxz             3.9      13.1       0.1       0.0      45.5       0.0
 6 O  dyz            18.5       1.1       1.2       0.1      35.6       0.2
 6 O  dx2y2           0.3       0.0       0.8      11.8       1.1       6.3
 6 O  dxy             0.2       0.3       0.3       0.8       0.6       0.2
 7 H  s               0.0       0.0       0.0       0.0       0.0       0.8

                     48        49        50        51        52        53   
                   1.80786   1.81934   1.85299   1.89471   1.97300   2.02663
                   0.00000   0.00000   0.00000   0.00000   0.00000   0.00000
                  --------  --------  --------  --------  --------  --------
 0 C  s               0.0       2.3       0.3       0.0       0.0       0.2
 0 C  pz              0.3       0.0       0.0       0.0       1.9       0.0
 0 C  px              0.0       0.4       0.1       0.2       0.0       0.7
 0 C  py              0.0       0.8       0.7       0.2       0.0       0.2
 0 C  dz2             0.1       0.0       1.7       5.9       1.1      11.1
 0 C  dxz             6.5       0.0       0.5       0.2      11.0       0.0
 0 C  dyz             3.6       0.0       0.1       0.2      22.7       0.4
 0 C  dx2y2           0.1       1.4       0.5       3.2       0.6       0.7
 0 C  dxy             0.1       2.5      20.4       3.7       0.1       4.9
 1 C  s               0.0       3.0       1.1       2.6       0.0       2.8
 1 C  pz              0.1       0.0       0.1       0.1       4.3       0.0
 1 C  px              0.0       1.3       1.5       0.5       0.0       0.7
 1 C  py              0.0       1.0       2.2       7.7       0.1       0.6
 1 C  dz2             0.0       1.1       1.7       8.3       0.1      18.5
 1 C  dxz             1.2       0.3       0.0       0.1       7.4       0.3
 1 C  dyz             0.2       0.3       0.1       0.8       2.5       1.0
 1 C  dx2y2           0.0       1.7       0.0       3.1       0.1       0.7
 1 C  dxy             0.0      14.3       0.2       6.0       0.1       3.9
 2 H  s               0.0       0.0       0.1       0.1       0.6       1.2
 3 H  s               0.0       0.1       0.0       0.1       0.0       0.6
 4 H  s               0.0       0.0       0.1       0.1       0.6       1.2
 5 O  s               0.0       0.3       2.2      20.9       0.0       0.8
 5 O  pz              0.1       0.0       0.0       0.1       1.1       0.0
 5 O  px              0.0       2.5       0.0       0.1       0.0       0.3
 5 O  py              0.0       0.9       0.4       4.7       0.0       0.2
 5 O  dz2             1.5      21.9       0.7      15.3       0.2      19.1
 5 O  dxz            63.7       0.0       0.2       0.0      11.5       0.6
 5 O  dyz            12.7       0.2       0.1       1.4       5.9       1.0
 5 O  dx2y2           0.1      22.5       0.4       2.2       0.2       1.6
 5 O  dxy             1.5       2.5       8.9       0.3       0.2      15.2
 6 O  s               0.0       4.6       5.5       2.2       0.0       1.7
 6 O  pz              0.2       0.0       0.0       0.0       1.2       0.0
 6 O  px              0.0       0.6       1.4       0.6       0.0       0.6
 6 O  py              0.0       1.9       1.8       0.9       0.0       1.9
 6 O  dz2             0.4       3.1      23.1       0.2       0.7       3.9
 6 O  dxz             0.3       0.1       0.2       0.0      18.7       0.0
 6 O  dyz             7.1       0.6       0.3       0.1       6.5       0.5
 6 O  dx2y2           0.1       4.1      22.6       7.5       0.1       2.1
 6 O  dxy             0.0       3.4       0.3       0.4       0.5       0.2
 7 H  s               0.0       0.2       0.3       0.1       0.0       0.6

                     54        55        56        57        58        59   
                   2.19478   2.20511   2.35086   2.41604   2.49107   2.65049
                   0.00000   0.00000   0.00000   0.00000   0.00000   0.00000
                  --------  --------  --------  --------  --------  --------
 0 C  s               0.3       0.0       2.1       0.0       1.0       0.0
 0 C  pz              0.1       2.6       0.0       0.0       0.0       0.1
 0 C  px              0.1       0.0       2.6       0.0       0.6       0.0
 0 C  py              3.5       0.1       0.1       0.0       0.0       0.0
 0 C  dz2            18.9       2.8      17.8       0.0       4.2       0.2
 0 C  dxz             0.0      31.1       0.0      10.3       0.0       3.2
 0 C  dyz             4.0      31.6       0.3       0.2       0.2       1.5
 0 C  dx2y2          39.6       0.5      11.3       0.0       0.1       0.0
 0 C  dxy             0.0       0.9       5.7       0.2       4.6       0.1
 1 C  s               0.5       0.0       1.9       0.0       2.4       0.0
 1 C  pz              0.0       0.8       0.0       0.8       0.0       0.9
 1 C  px              2.0       0.0       4.2       0.0       2.4       0.0
 1 C  py              0.4       0.0       0.1       0.0       0.5       0.0
 1 C  dz2             0.9       0.0       5.9       0.5      16.6       2.4
 1 C  dxz             0.0       0.8       0.0      41.7       0.1       1.2
 1 C  dyz             0.1       0.2       0.3       2.6       1.1      40.1
 1 C  dx2y2           1.1       0.0       0.0       0.0       0.0       0.9
 1 C  dxy             0.7       0.0       1.3       0.9       1.8       0.0
 2 H  s               1.5       8.4       0.8       0.2       0.2       0.4
 3 H  s              11.2       0.0       0.2       0.0       0.5       0.0
 4 H  s               1.4       8.4       0.8       0.2       0.2       0.4
 5 O  s               1.0       0.0       0.1       0.0       0.6       0.0
 5 O  pz              0.0       0.4       0.0       0.2       0.0       2.0
 5 O  px              0.7       0.0       0.0       0.0       0.4       0.0
 5 O  py              0.5       0.0       0.3       0.0       0.6       0.0
 5 O  dz2             0.6       0.4       0.1       0.5       1.6       1.7
 5 O  dxz             0.1       1.5       0.0       4.5       0.0       5.4
 5 O  dyz             0.2       7.7       0.0       5.7       0.0      32.0
 5 O  dx2y2           2.7       0.2       3.7       0.1       5.5       0.8
 5 O  dxy             7.1       0.0       0.1       0.1       4.0       0.0
 6 O  s               0.2       0.0       6.8       0.0       1.6       0.0
 6 O  pz              0.0       0.1       0.0       1.4       0.1       0.2
 6 O  px              0.1       0.0       1.3       0.0       0.7       0.0
 6 O  py              0.0       0.0       0.2       0.0       3.9       0.0
 6 O  dz2             0.4       0.1       9.6       1.5      10.1       0.1
 6 O  dxz             0.0       0.8       0.1       8.6       0.3       5.3
 6 O  dyz             0.0       0.8       1.3      19.2       0.8       1.1
 6 O  dx2y2           0.0       0.0       8.9       0.3       1.7       0.0
 6 O  dxy             0.0       0.0       4.6       0.3      20.4       0.1
 7 H  s               0.1       0.0       7.8       0.0      10.9       0.0

                     60        61        62        63   
                   2.68437   2.80188   2.98112   3.05898
                   0.00000   0.00000   0.00000   0.00000
                  --------  --------  --------  --------
 0 C  s               0.1       0.3       0.1       0.3
 0 C  px              0.2       0.2       0.1       1.0
 0 C  py              0.0       0.1       0.0       0.1
 0 C  dz2             0.0       1.1       0.0       0.8
 0 C  dxz             0.1       0.1       0.0       0.0
 0 C  dx2y2           5.2       0.0       1.0       5.1
 0 C  dxy             4.2       7.2       0.3       0.2
 1 C  s               3.5       6.0       9.4       1.1
 1 C  pz              0.1       0.0       0.2       0.0
 1 C  px              1.4       1.3       0.5       1.1
 1 C  py              2.3       1.1      10.3       0.0
 1 C  dz2             9.0       1.5       0.8       0.0
 1 C  dxz             0.1       0.4       0.1       0.2
 1 C  dyz             0.9       0.1       0.1       0.8
 1 C  dx2y2           3.0      21.2       1.2      26.6
 1 C  dxy             9.9      11.9       6.0      19.3
 2 H  s               0.1       0.2       0.0       0.0
 3 H  s               0.5       0.1       0.1       0.2
 4 H  s               0.1       0.2       0.0       0.0
 5 O  s               6.6       6.1      14.9       0.1
 5 O  pz              0.0       0.0       0.1       0.0
 5 O  px              0.9       0.2       0.4       1.9
 5 O  py              2.5       1.7       6.6       0.1
 5 O  dz2             0.3       1.4      10.1       0.2
 5 O  dxz             0.1       0.0       0.2       0.3
 5 O  dyz             0.0       0.2       2.0       0.1
 5 O  dx2y2           0.6       1.2      24.7       3.9
 5 O  dxy             4.0       0.1       8.5      17.4
 6 O  s              17.5       3.3       0.3       0.4
 6 O  px              2.7       0.3       0.0       1.0
 6 O  py              1.8       4.7       0.7       0.6
 6 O  dz2            10.0       1.2       0.2       0.4
 6 O  dxz             0.4       0.3       0.0       0.3
 6 O  dyz             0.5       0.7       0.0       0.0
 6 O  dx2y2           0.9      10.0       0.5       5.5
 6 O  dxy            10.0      15.0       0.6      10.0
 7 H  s               0.2       0.5       0.0       1.0


                      *****************************
                      * MAYER POPULATION ANALYSIS *
                      *****************************

  NA   - Mulliken gross atomic population
  ZA   - Total nuclear charge
  QA   - Mulliken gross atomic charge
  VA   - Mayer's total valence
  BVA  - Mayer's bonded valence
  FA   - Mayer's free valence

  ATOM       NA         ZA         QA         VA         BVA        FA
  0 C      6.5525     6.0000    -0.5525     3.7916     3.7916    -0.0000
  1 C      5.4436     6.0000     0.5564     4.0116     4.0116    -0.0000
  2 H      0.7997     1.0000     0.2003     0.9252     0.9252    -0.0000
  3 H      0.8566     1.0000     0.1434     0.9358     0.9358    -0.0000
  4 H      0.7998     1.0000     0.2002     0.9253     0.9253     0.0000
  5 O      8.3965     8.0000    -0.3965     2.1224     2.1224    -0.0000
  6 O      8.5619     8.0000    -0.5619     1.9207     1.9207     0.0000
  7 H      0.5895     1.0000     0.4105     0.8061     0.8061     0.0000

  Mayer bond orders larger than 0.1
B(  0-C ,  1-C ) :   0.9710 B(  0-C ,  2-H ) :   0.9305 B(  0-C ,  3-H ) :   0.9357 
B(  0-C ,  4-H ) :   0.9306 B(  1-C ,  5-O ) :   1.9839 B(  1-C ,  6-O ) :   1.0545 
B(  6-O ,  7-H ) :   0.7657 

-------
TIMINGS
-------

Total SCF time: 0 days 0 hours 0 min 4 sec 

Total time                  ....       4.583 sec
Sum of individual times     ....       4.321 sec  ( 94.3%)

Fock matrix formation       ....       3.534 sec  ( 77.1%)
  XC integration            ....       0.900 sec  ( 25.5% of F)
    Basis function eval.    ....       0.342 sec  ( 38.0% of XC)
    Density eval.           ....       0.220 sec  ( 24.4% of XC)
    XC-Functional eval.     ....       0.114 sec  ( 12.6% of XC)
    XC-Potential eval.      ....       0.166 sec  ( 18.4% of XC)
Diagonalization             ....       0.001 sec  (  0.0%)
Density matrix formation    ....       0.000 sec  (  0.0%)
Population analysis         ....       0.015 sec  (  0.3%)
Initial guess               ....       0.001 sec  (  0.0%)
Orbital Transformation      ....       0.000 sec  (  0.0%)
Orbital Orthonormalization  ....       0.000 sec  (  0.0%)
DIIS solution               ....       0.000 sec  (  0.0%)
SOSCF solution              ....       0.004 sec  (  0.1%)
Grid generation             ....       0.766 sec  ( 16.7%)

-------------------------   --------------------
FINAL SINGLE POINT ENERGY      -228.947750482161
-------------------------   --------------------

                                *** OPTIMIZATION RUN DONE ***

                            ***************************************
                            *     ORCA property calculations      *
                            ***************************************

                                    ---------------------
                                    Active property flags
                                    ---------------------
   (+) Dipole Moment


------------------------------------------------------------------------------
                       ORCA ELECTRIC PROPERTIES CALCULATION
------------------------------------------------------------------------------

Dipole Moment Calculation                       ... on
Quadrupole Moment Calculation                   ... off
Polarizability Calculation                      ... off
GBWName                                         ... /Users/lailaal-madhagi/Desktop/Testing_XAS_Analysis_code/AceticAcid//Results_dir_AceticAcid_geom_element_O_2019-11-03_20-05-49//GTE1_AceticAcid_geom_2019-11-03_20-06-00//opt.gbw
Electron density file                           ... /Users/lailaal-madhagi/Desktop/Testing_XAS_Analysis_code/AceticAcid//Results_dir_AceticAcid_geom_element_O_2019-11-03_20-05-49//GTE1_AceticAcid_geom_2019-11-03_20-06-00//opt.scfp.tmp
The origin for moment calculation is the CENTER OF MASS  = (-4.435795,  0.316047  0.005376)

-------------
DIPOLE MOMENT
-------------
                                X             Y             Z
Electronic contribution:      3.58595       1.33614      -0.09808
Nuclear contribution   :     -4.65644      -2.61034       0.25077
                        -----------------------------------------
Total Dipole Moment    :     -1.07050      -1.27419       0.15269
                        -----------------------------------------
Magnitude (a.u.)       :      1.67118
Magnitude (Debye)      :      4.24780



--------------------
Rotational spectrum 
--------------------
 
Rotational constants in cm-1:     0.366116     0.314873     0.174782 
Rotational constants in MHz : 10975.885985  9439.640372  5239.830197 

 Dipole components along the rotational axes: 
x,y,z [a.u.] :    -1.110238    -1.249086    -0.000151 
x,y,z [Debye]:    -2.822000    -3.174924    -0.000383 

 

Timings for individual modules:

Sum of individual times         ...       55.327 sec (=   0.922 min)
GTO integral calculation        ...        2.863 sec (=   0.048 min)   5.2 %
SCF iterations                  ...       37.137 sec (=   0.619 min)  67.1 %
SCF Gradient evaluation         ...       14.462 sec (=   0.241 min)  26.1 %
Geometry relaxation             ...        0.865 sec (=   0.014 min)   1.6 %
                             ****ORCA TERMINATED NORMALLY****
TOTAL RUN TIME: 0 days 0 hours 0 minutes 56 seconds 264 msec
