
                                 *****************
                                 * O   R   C   A *
                                 *****************

           --- An Ab Initio, DFT and Semiempirical electronic structure package ---

                  #######################################################
                  #                        -***-                        #
                  #          Department of theory and spectroscopy      #
                  #               Directorship: Frank Neese             #
                  #        Max Planck Institute fuer Kohlenforschung    #
                  #                Kaiser Wilhelm Platz 1               #
                  #                 D-45470 Muelheim/Ruhr               #
                  #                      Germany                        #
                  #                                                     #
                  #                  All rights reserved                #
                  #                        -***-                        #
                  #######################################################


                         Program Version 4.1.0  - RELEASE  -


 With contributions from (in alphabetic order):
   Daniel Aravena         : Magnetic Properties
   Michael Atanasov       : Ab Initio Ligand Field Theory
   Alexander A. Auer      : GIAO ZORA
   Ute Becker             : Parallelization
   Giovanni Bistoni       : ED, Open-shell LED
   Martin Brehm           : Molecular dynamics
   Dmytro Bykov           : SCF Hessian
   Vijay G. Chilkuri      : MRCI spin determinant printing
   Dipayan Datta          : RHF DLPNO-CCSD density
   Achintya Kumar Dutta   : EOM-CC, STEOM-CC
   Dmitry Ganyushin       : Spin-Orbit,Spin-Spin,Magnetic field MRCI
   Miquel Garcia          : C-PCM Hessian
   Yang Guo               : DLPNO-NEVPT2, CIM, IAO-localization
   Andreas Hansen         : Spin unrestricted coupled pair/coupled cluster methods
   Benjamin Helmich-Paris : CASSCF linear response (MC-RPA)
   Lee Huntington         : MR-EOM, pCC
   Robert Izsak           : Overlap fitted RIJCOSX, COSX-SCS-MP3, EOM
   Christian Kollmar      : KDIIS, OOCD, Brueckner-CCSD(T), CCSD density
   Simone Kossmann        : Meta GGA functionals, TD-DFT gradient, OOMP2, MP2 Hessian
   Martin Krupicka        : AUTO-CI
   Lucas Lang             : DCDCAS
   Dagmar Lenk            : GEPOL surface, SMD
   Dimitrios Liakos       : Extrapolation schemes; parallel MDCI
   Dimitrios Manganas     : ROCIS; embedding schemes
   Dimitrios Pantazis     : SARC Basis sets
   Taras Petrenko         : DFT Hessian,TD-DFT gradient, ASA, ECA, R-Raman, ABS, FL, XAS/XES, NRVS
   Peter Pinski           : DLPNO-MP2, DLPNO-MP2 Gradient
   Christoph Reimann      : Effective Core Potentials
   Marius Retegan         : Local ZFS, SOC
   Christoph Riplinger    : Optimizer, TS searches, QM/MM, DLPNO-CCSD(T), (RO)-DLPNO pert. Triples
   Tobias Risthaus        : Range-separated hybrids, TD-DFT gradient, RPA, STAB
   Michael Roemelt        : Restricted open shell CIS
   Masaaki Saitow         : Open-shell DLPNO
   Barbara Sandhoefer     : DKH picture change effects
   Avijit Sen             : IP-ROCIS
   Kantharuban Sivalingam : CASSCF convergence, NEVPT2, FIC-MRCI
   Bernardo de Souza      : ESD, SOC TD-DFT
   Georgi Stoychev        : AutoAux, RI-MP2 NMR
   Willem Van den Heuvel  : Paramagnetic NMR
   Boris Wezisla          : Elementary symmetry handling
   Frank Wennmohs         : Technical directorship


 We gratefully acknowledge several colleagues who have allowed us to
 interface, adapt or use parts of their codes:
   Stefan Grimme, W. Hujo, H. Kruse,             : VdW corrections, initial TS optimization,
                  C. Bannwarth                     DFT functionals, gCP, sTDA/sTD-DF
   Ed Valeev                                     : LibInt (2-el integral package), F12 methods
   Garnet Chan, S. Sharma, J. Yang, R. Olivares  : DMRG
   Ulf Ekstrom                                   : XCFun DFT Library
   Mihaly Kallay                                 : mrcc  (arbitrary order and MRCC methods)
   Andreas Klamt, Michael Diedenhofen            : otool_cosmo (COSMO solvation model)
   Jiri Pittner, Ondrej Demel                    : Mk-CCSD
   Frank Weinhold                                : gennbo (NPA and NBO analysis)
   Christopher J. Cramer and Donald G. Truhlar   : smd solvation model
   Lars Goerigk                                  : TD-DFT with DH, B97 family of functionals
   V. Asgeirsson, H. Jonsson                     : NEB implementation
   FAccTs GmbH                                   : IRC, NEB, NEB-TS, Multilevel


 Your calculation uses the libint2 library for the computation of 2-el integrals
 For citations please refer to: http://libint.valeyev.net

 This ORCA versions uses:
   CBLAS   interface :  Fast vector & matrix operations
   LAPACKE interface :  Fast linear algebra routines
   SCALAPACK package :  Parallel linear algebra routines




***************************************
The coordinates will be read from file: /Users/lailaal-madhagi/Desktop/Testing_XAS_Analysis_code/Biuret//Results_dir_Biuret_geom_element_N_2019-11-07_23-08-54//GTE1_Biuret_geom_2019-11-07_23-09-30//opt.xyz
***************************************


----- Orbital basis set information -----
Your calculation utilizes the basis: 6-31G*
   H-He, Li-Ne : W. J. Hehre, R. Ditchfield and J.A. Pople, J. Chem. Phys. 56, 2257 (1972).
                 Note: He and Ne are unpublished basis sets taken from the Gaussian program.
                 Note: Li and B from J. D. Dill and J. A. Pople, J. Chem. Phys. 62, 2921 (1975).
   Na - Ar     : M. M. Francl, W. J. Pietro, W. J. Hehre, J. S. Binkley, M. S. Gordon, 
                 D. J. DeFrees and J. A. Pople, J. Chem. Phys. 77, 3654 (1982).
   K - Zn      : V. A. Rassolov, J. A. Pople, M. A. Ratner, and T. L. Windus, J. Chem. Phys. 109, 1223 (1998).

================================================================================
                                        WARNINGS
                       Please study these warnings very carefully!
================================================================================

INFO   : Checking CIS options ...

WARNING: CIS/ROCIS methods need fully converged wavefunctions
  ===> : Setting SCFConvForced true
         You can overwrite this default with %scf ConvForced false 


INFO   : the flag for use of LIBINT has been found!

================================================================================
                                       INPUT FILE
================================================================================
NAME = /Users/lailaal-madhagi/Desktop/Testing_XAS_Analysis_code/Biuret//Results_dir_Biuret_geom_element_N_2019-11-07_23-08-54//GTE1_Biuret_geom_2019-11-07_23-09-30//TDDFT_N-edge.inp
|  1> #This is N K-edge calculation 
|  2> ! B3LYP 6-31G* TIGHTSCF Grid3 FinalGrid5 
|  3> !NormalPrint 
|  4> %output 
|  5> Print[P_Basis] 2 
|  6> Print[P_MOS] 1 
|  7> end 
|  8> 
|  9> %tddft 
| 10> orbwin[0]=2,4,-1,-1 
| 11> nroots=20 
| 12> maxdim=200 
| 13> end 
| 14> *xyzfile 0 1 /Users/lailaal-madhagi/Desktop/Testing_XAS_Analysis_code/Biuret//Results_dir_Biuret_geom_element_N_2019-11-07_23-08-54//GTE1_Biuret_geom_2019-11-07_23-09-30//opt.xyz                           ****END OF INPUT****
================================================================================

                       ****************************
                       * Single Point Calculation *
                       ****************************

---------------------------------
CARTESIAN COORDINATES (ANGSTROEM)
---------------------------------
  N     -3.414427   -0.064879   -0.318938
  C     -2.371526    0.822461   -0.149808
  N     -1.124465    0.168719   -0.074851
  C      0.125638    0.797377    0.098853
  N      1.164518   -0.110132    0.127021
  O     -2.537014    2.020999   -0.078012
  O      0.296600    1.991767    0.213956
  H     -1.126665   -0.838918   -0.153653
  H     -3.322051   -1.067061   -0.377226
  H     -4.336972    0.337130   -0.378799
  H      1.067921   -1.108436    0.025478
  H      2.089323    0.273934    0.243409

----------------------------
CARTESIAN COORDINATES (A.U.)
----------------------------
  NO LB      ZA    FRAG     MASS         X           Y           Z
   0 N     7.0000    0    14.007   -6.452332   -0.122604   -0.602705
   1 C     6.0000    0    12.011   -4.481535    1.554227   -0.283096
   2 N     7.0000    0    14.007   -2.124932    0.318833   -0.141448
   3 C     6.0000    0    12.011    0.237421    1.506824    0.186804
   4 N     7.0000    0    14.007    2.200621   -0.208119    0.240035
   5 O     8.0000    0    15.999   -4.794262    3.819134   -0.147420
   6 O     8.0000    0    15.999    0.560492    3.763895    0.404319
   7 H     1.0000    0     1.008   -2.129087   -1.585326   -0.290362
   8 H     1.0000    0     1.008   -6.277766   -2.016454   -0.712854
   9 H     1.0000    0     1.008   -8.195689    0.637083   -0.715826
  10 H     1.0000    0     1.008    2.018079   -2.094641    0.048146
  11 H     1.0000    0     1.008    3.948248    0.517660    0.459977

--------------------------------
INTERNAL COORDINATES (ANGSTROEM)
--------------------------------
 N      0   0   0     0.000000000000     0.00000000     0.00000000
 C      1   0   0     1.379717250734     0.00000000     0.00000000
 N      2   1   0     1.410020594139   112.13904227     0.00000000
 C      3   2   1     1.410014543388   125.72937944   180.16185813
 N      4   3   2     1.379724078663   112.13721120   180.28546241
 O      2   1   3     1.212036381955   122.68534238   179.95651398
 O      4   3   2     1.212041829923   125.17768066     0.35930737
 H      3   2   1     1.010716558256   117.13951074     0.23967570
 H      1   2   3     1.008117241867   125.25177339     0.48023931
 H      1   2   3     1.008109152999   116.26591979   179.89634946
 H      5   4   3     1.008094360788   125.25051869     0.75623156
 H      5   4   3     1.008124895808   116.26389193   179.65216061

---------------------------
INTERNAL COORDINATES (A.U.)
---------------------------
 N      0   0   0     0.000000000000     0.00000000     0.00000000
 C      1   0   0     2.607287746134     0.00000000     0.00000000
 N      2   1   0     2.664552766111   112.13904227     0.00000000
 C      3   2   1     2.664541331848   125.72937944   180.16185813
 N      4   3   2     2.607300649050   112.13721120   180.28546241
 O      2   1   3     2.290416826244   122.68534238   179.95651398
 O      4   3   2     2.290427121411   125.17768066     0.35930737
 H      3   2   1     1.909977494123   117.13951074     0.23967570
 H      1   2   3     1.905065498013   125.25177339     0.48023931
 H      1   2   3     1.905050212267   116.26591979   179.89634946
 H      5   4   3     1.905022259041   125.25051869     0.75623156
 H      5   4   3     1.905079961865   116.26389193   179.65216061

---------------------
BASIS SET INFORMATION
---------------------
There are 4 groups of distinct atoms

 Group   1 Type N   : 10s4p1d contracted to 3s2p1d pattern {631/31/1}
 Group   2 Type C   : 10s4p1d contracted to 3s2p1d pattern {631/31/1}
 Group   3 Type O   : 10s4p1d contracted to 3s2p1d pattern {631/31/1}
 Group   4 Type H   : 4s contracted to 2s pattern {31}

Atom   0N    basis set group =>   1
Atom   1C    basis set group =>   2
Atom   2N    basis set group =>   1
Atom   3C    basis set group =>   2
Atom   4N    basis set group =>   1
Atom   5O    basis set group =>   3
Atom   6O    basis set group =>   3
Atom   7H    basis set group =>   4
Atom   8H    basis set group =>   4
Atom   9H    basis set group =>   4
Atom  10H    basis set group =>   4
Atom  11H    basis set group =>   4

-------------------------
BASIS SET IN INPUT FORMAT
-------------------------

 # Basis set for element : H 
 NewGTO H 
 S 3 
   1      18.7311370000      0.0334945995
   2       2.8253937000      0.2347269467
   3       0.6401217000      0.8137573184
 S 1 
   1       0.1612778000      1.0000000000
  end;

 # Basis set for element : C 
 NewGTO C 
 S 6 
   1    3047.5249000000      0.0018347002
   2     457.3695100000      0.0140373012
   3     103.9486900000      0.0688426061
   4      29.2101550000      0.2321844206
   5       9.2866630000      0.4679413416
   6       3.1639270000      0.3623120322
 S 3 
   1       7.8682724000     -0.1193324086
   2       1.8812885000     -0.1608542116
   3       0.5442493000      1.1434564826
 P 3 
   1       7.8682724000      0.0689990956
   2       1.8812885000      0.3164239798
   3       0.5442493000      0.7443082524
 S 1 
   1       0.1687144000      1.0000000000
 P 1 
   1       0.1687144000      1.0000000000
 D 1 
   1       0.8000000000      1.0000000000
  end;

 # Basis set for element : N 
 NewGTO N 
 S 6 
   1    4173.5110000000      0.0018347994
   2     627.4579000000      0.0139949958
   3     142.9021000000      0.0685869792
   4      40.2343300000      0.2322409295
   5      12.8202100000      0.4690698576
   6       4.3904370000      0.3604548906
 S 3 
   1      11.6263580000     -0.1149610229
   2       2.7162800000     -0.1691180337
   3       0.7722180000      1.1458522281
 P 3 
   1      11.6263580000      0.0675800232
   2       2.7162800000      0.3239071114
   3       0.7722180000      0.7408952549
 S 1 
   1       0.2120313000      1.0000000000
 P 1 
   1       0.2120313000      1.0000000000
 D 1 
   1       0.8000000000      1.0000000000
  end;

 # Basis set for element : O 
 NewGTO O 
 S 6 
   1    5484.6717000000      0.0018310998
   2     825.2349500000      0.0139500985
   3     188.0469600000      0.0684450927
   4      52.9645000000      0.2327142753
   5      16.8975700000      0.4701929501
   6       5.7996353000      0.3585208619
 S 3 
   1      15.5396160000     -0.1107775038
   2       3.5999336000     -0.1480263051
   3       1.0137618000      1.1307670390
 P 3 
   1      15.5396160000      0.0708742995
   2       3.5999336000      0.3397527978
   3       1.0137618000      0.7271585953
 S 1 
   1       0.2700058000      1.0000000000
 P 1 
   1       0.2700058000      1.0000000000
 D 1 
   1       0.8000000000      1.0000000000
  end;

------------------------------------------------------------------------------
                           ORCA GTO INTEGRAL CALCULATION
------------------------------------------------------------------------------

                         BASIS SET STATISTICS AND STARTUP INFO

 # of primitive gaussian shells          ...  125
 # of primitive gaussian functions       ...  209
 # of contracted shells                  ...   52
 # of contracted basis functions         ...  108
 Highest angular momentum                ...    2
 Maximum contraction depth               ...    6
 Integral package used                   ... LIBINT
 Integral threshhold            Thresh   ...  2.500e-11
 Primitive cut-off              TCut     ...  2.500e-12


------------------------------ INTEGRAL EVALUATION ----------------------------


 * One electron integrals 
 Pre-screening matrix                    ... done
 Shell pair data                         ... done (   0.001 sec)

-------------------------------------------------------------------------------
                                 ORCA SCF
-------------------------------------------------------------------------------

------------
SCF SETTINGS
------------
Hamiltonian:
 Density Functional     Method          .... DFT(GTOs)
 Exchange Functional    Exchange        .... B88
   X-Alpha parameter    XAlpha          ....  0.666667
   Becke's b parameter  XBeta           ....  0.004200
 Correlation Functional Correlation     .... LYP
 LDA part of GGA corr.  LDAOpt          .... VWN-5
 Gradients option       PostSCFGGA      .... off
 Hybrid DFT is turned on
   Fraction HF Exchange ScalHFX         ....  0.200000
   Scaling of DF-GGA-X  ScalDFX         ....  0.720000
   Scaling of DF-GGA-C  ScalDFC         ....  0.810000
   Scaling of DF-LDA-C  ScalLDAC        ....  1.000000
   Perturbative correction              ....  0.000000
   Density functional embedding theory  .... OFF
   NL short-range parameter             ....  4.800000


General Settings:
 Integral files         IntName         .... /Users/lailaal-madhagi/Desktop/Testing_XAS_Analysis_code/Biuret//Results_dir_Biuret_geom_element_N_2019-11-07_23-08-54//GTE1_Biuret_geom_2019-11-07_23-09-30//TDDFT_N-edge
 Hartree-Fock type      HFTyp           .... RHF
 Total Charge           Charge          ....    0
 Multiplicity           Mult            ....    1
 Number of Electrons    NEL             ....   54
 Basis Dimension        Dim             ....  108
 Nuclear Repulsion      ENuc            ....    303.6781298448 Eh

Convergence Acceleration:
 DIIS                   CNVDIIS         .... on
   Start iteration      DIISMaxIt       ....    12
   Startup error        DIISStart       ....  0.200000
   # of expansion vecs  DIISMaxEq       ....     5
   Bias factor          DIISBfac        ....   1.050
   Max. coefficient     DIISMaxC        ....  10.000
 Newton-Raphson         CNVNR           .... off
 SOSCF                  CNVSOSCF        .... on
   Start iteration      SOSCFMaxIt      ....   150
   Startup grad/error   SOSCFStart      ....  0.003300
 Level Shifting         CNVShift        .... on
   Level shift para.    LevelShift      ....    0.2500
   Turn off err/grad.   ShiftErr        ....    0.0010
 Zerner damping         CNVZerner       .... off
 Static damping         CNVDamp         .... on
   Fraction old density DampFac         ....    0.7000
   Max. Damping (<1)    DampMax         ....    0.9800
   Min. Damping (>=0)   DampMin         ....    0.0000
   Turn off err/grad.   DampErr         ....    0.1000
 Fernandez-Rico         CNVRico         .... off

SCF Procedure:
 Maximum # iterations   MaxIter         ....   125
 SCF integral mode      SCFMode         .... Direct
   Integral package                     .... LIBINT
 Reset frequency        DirectResetFreq ....    20
 Integral Threshold     Thresh          ....  2.500e-11 Eh
 Primitive CutOff       TCut            ....  2.500e-12 Eh

Convergence Tolerance:
 Convergence Check Mode ConvCheckMode   .... Total+1el-Energy
 Convergence forced     ConvForced      .... 1
 Energy Change          TolE            ....  1.000e-08 Eh
 1-El. energy change                    ....  1.000e-05 Eh
 Orbital Gradient       TolG            ....  1.000e-05
 Orbital Rotation angle TolX            ....  1.000e-05
 DIIS Error             TolErr          ....  5.000e-07


Diagonalization of the overlap matrix:
Smallest eigenvalue                        ... 4.227e-03
Time for diagonalization                   ...    0.002 sec
Threshold for overlap eigenvalues          ... 1.000e-08
Number of eigenvalues below threshold      ... 0
Time for construction of square roots      ...    0.002 sec
Total time needed                          ...    0.004 sec

-------------------
DFT GRID GENERATION
-------------------

General Integration Accuracy     IntAcc      ...  4.340
Radial Grid Type                 RadialGrid  ... Gauss-Chebyshev
Angular Grid (max. acc.)         AngularGrid ... Lebedev-194
Angular grid pruning method      GridPruning ... 3 (G Style)
Weight generation scheme         WeightScheme... Becke
Basis function cutoff            BFCut       ...    1.0000e-11
Integration weight cutoff        WCut        ...    1.0000e-14
Grids for H and He will be reduced by one unit

# of grid points (after initial pruning)     ...  30916 (   0.0 sec)
# of grid points (after weights+screening)   ...  29211 (   0.0 sec)
nearest neighbour list constructed           ...    0.0 sec
Grid point re-assignment to atoms done       ...    0.0 sec
Grid point division into batches done        ...    0.0 sec
Reduced shell lists constructed in    0.2 sec

Total number of grid points                  ...    29211
Total number of batches                      ...      464
Average number of points per batch           ...       62
Average number of grid points per atom       ...     2434
Average number of shells per batch           ...    35.86 (68.96%)
Average number of basis functions per batch  ...    76.98 (71.28%)
Average number of large shells per batch     ...    27.96 (77.98%)
Average number of large basis fcns per batch ...    60.36 (78.41%)
Maximum spatial batch extension              ...  15.76, 18.14, 21.65 au
Average spatial batch extension              ...   2.89,  3.08,  3.79 au

Time for grid setup =    0.207 sec

------------------------------
INITIAL GUESS: MODEL POTENTIAL
------------------------------
Loading Hartree-Fock densities                     ... done
Calculating cut-offs                               ... done
Setting up the integral package                    ... done
Initializing the effective Hamiltonian             ... done
Starting the Coulomb interaction                   ... done (   0.0 sec)
Reading the grid                                   ... done
Mapping shells                                     ... done
Starting the XC term evaluation                    ... done (   0.2 sec)
  promolecular density results
     # of electrons  =     53.998586520
     EX              =    -47.913871161
     EC              =     -1.885931987
     EX+EC           =    -49.799803148
Transforming the Hamiltonian                       ... done (   0.0 sec)
Diagonalizing the Hamiltonian                      ... done (   0.0 sec)
Back transforming the eigenvectors                 ... done (   0.0 sec)
Now organizing SCF variables                       ... done
                      ------------------
                      INITIAL GUESS DONE (   0.5 sec)
                      ------------------
--------------
SCF ITERATIONS
--------------
               ***  Starting incremental Fock matrix formation  ***

                         ----------------------------
                         !        ITERATION     0   !
                         ----------------------------
   Total Energy        :    -393.372694154706 Eh
   Energy Change       :    -393.372694154706 Eh
   MAX-DP              :       0.118913987542
   RMS-DP              :       0.005114686291
   Actual Damping      :       0.7000
   Actual Level Shift  :       0.2500 Eh
   Int. Num. El.       :    54.00100466 (UP=   27.00050233 DN=   27.00050233)
   Exchange            :   -39.40892895
   Correlation         :    -2.25102910


                         ----------------------------
                         !        ITERATION     1   !
                         ----------------------------
   Total Energy        :    -393.555640040438 Eh
   Energy Change       :      -0.182945885732 Eh
   MAX-DP              :       0.064540888449
   RMS-DP              :       0.003075617733
   Actual Damping      :       0.7000
   Actual Level Shift  :       0.2500 Eh
   Int. Num. El.       :    54.00115795 (UP=   27.00057898 DN=   27.00057898)
   Exchange            :   -38.96292808
   Correlation         :    -2.23773980

                               ***Turning on DIIS***

                         ----------------------------
                         !        ITERATION     2   !
                         ----------------------------
   Total Energy        :    -393.615665857162 Eh
   Energy Change       :      -0.060025816724 Eh
   MAX-DP              :       0.071380692750
   RMS-DP              :       0.003681998333
   Actual Damping      :       0.0000
   Actual Level Shift  :       0.2500 Eh
   Int. Num. El.       :    54.00125956 (UP=   27.00062978 DN=   27.00062978)
   Exchange            :   -38.71045336
   Correlation         :    -2.22947011
   DIIS-Error          :       0.047815374606


                         ----------------------------
                         !        ITERATION     3   !
                         ----------------------------
   Total Energy        :    -393.723175099888 Eh
   Energy Change       :      -0.107509242726 Eh
   MAX-DP              :       0.054563779591
   RMS-DP              :       0.002180161250
   Actual Damping      :       0.0000
   Actual Level Shift  :       0.2500 Eh
   Int. Num. El.       :    54.00141648 (UP=   27.00070824 DN=   27.00070824)
   Exchange            :   -38.42074695
   Correlation         :    -2.21840290
   DIIS-Error          :       0.062885265361
   DIIS coefficients:
      0.62498   0.37502


                         ----------------------------
                         !        ITERATION     4   !
                         ----------------------------
   Total Energy        :    -393.742190362526 Eh
   Energy Change       :      -0.019015262638 Eh
   MAX-DP              :       0.013066451025
   RMS-DP              :       0.000563805734
   Actual Damping      :       0.0000
   Actual Level Shift  :       0.2500 Eh
   Int. Num. El.       :    54.00135249 (UP=   27.00067624 DN=   27.00067624)
   Exchange            :   -38.58000787
   Correlation         :    -2.22364576
   DIIS-Error          :       0.022501548883
   DIIS coefficients:
      0.36121   0.13317   0.50563

                      *** Initiating the SOSCF procedure ***
                           *** Shutting down DIIS ***
                      *** Re-Reading the Fockian *** 
                      *** Removing any level shift *** 

                         ----------------------------
                         !        ITERATION     5   !
                         ----------------------------
   Total Energy        :    -393.744198132480 Eh
   Energy Change       :      -0.002007769955 Eh
   MAX-DP              :       0.003259082448
   RMS-DP              :       0.000184239119
   Orbital gradient    :       0.001571952294
   Orbital Rotation    :       0.001571952294
   Actual Damping      :       0.0000
   Int. Num. El.       :    54.00132997 (UP=   27.00066498 DN=   27.00066498)
   Exchange            :   -38.59941938
   Correlation         :    -2.22470356

               *** Restarting incremental Fock matrix formation ***

                         ----------------------------
                         !        ITERATION     6   !
                         ----------------------------
   Total Energy        :    -393.744260275840 Eh
   Energy Change       :      -0.000062143360 Eh
   MAX-DP              :       0.002884577122
   RMS-DP              :       0.000126541606
   Orbital gradient    :       0.000813154999
   Orbital Rotation    :       0.002682810755
   Actual Damping      :       0.0000
   Int. Num. El.       :    54.00132704 (UP=   27.00066352 DN=   27.00066352)
   Exchange            :   -38.60658556
   Correlation         :    -2.22502149


                         ----------------------------
                         !        ITERATION     7   !
                         ----------------------------
   Total Energy        :    -393.744245562186 Eh
   Energy Change       :       0.000014713654 Eh
   MAX-DP              :       0.001717236141
   RMS-DP              :       0.000079757756
   Orbital gradient    :       0.001470525591
   Orbital Rotation    :       0.001546295028
   Actual Damping      :       0.0000
   Int. Num. El.       :    54.00132572 (UP=   27.00066286 DN=   27.00066286)
   Exchange            :   -38.60507064
   Correlation         :    -2.22500486


                         ----------------------------
                         !        ITERATION     8   !
                         ----------------------------
   Total Energy        :    -393.744271534468 Eh
   Energy Change       :      -0.000025972282 Eh
   MAX-DP              :       0.000615065557
   RMS-DP              :       0.000023017787
   Orbital gradient    :       0.000252129575
   Orbital Rotation    :       0.000537417893
   Actual Damping      :       0.0000
   Int. Num. El.       :    54.00132702 (UP=   27.00066351 DN=   27.00066351)
   Exchange            :   -38.60632392
   Correlation         :    -2.22501749


                         ----------------------------
                         !        ITERATION     9   !
                         ----------------------------
   Total Energy        :    -393.744271099112 Eh
   Energy Change       :       0.000000435356 Eh
   MAX-DP              :       0.000325550155
   RMS-DP              :       0.000012052514
   Orbital gradient    :       0.000298775370
   Orbital Rotation    :       0.000292734556
   Actual Damping      :       0.0000
   Int. Num. El.       :    54.00132727 (UP=   27.00066364 DN=   27.00066364)
   Exchange            :   -38.60568508
   Correlation         :    -2.22500823


                         ----------------------------
                         !        ITERATION    10   !
                         ----------------------------
   Total Energy        :    -393.744272171606 Eh
   Energy Change       :      -0.000001072494 Eh
   MAX-DP              :       0.000046245078
   RMS-DP              :       0.000001890257
   Orbital gradient    :       0.000016695734
   Orbital Rotation    :       0.000016068585
   Actual Damping      :       0.0000
   Int. Num. El.       :    54.00132706 (UP=   27.00066353 DN=   27.00066353)
   Exchange            :   -38.60620138
   Correlation         :    -2.22501896


                         ----------------------------
                         !        ITERATION    11   !
                         ----------------------------
   Total Energy        :    -393.744272171064 Eh
   Energy Change       :       0.000000000542 Eh
   MAX-DP              :       0.000026070784
   RMS-DP              :       0.000000935421
   Orbital gradient    :       0.000016664162
   Orbital Rotation    :       0.000013770266
   Actual Damping      :       0.0000
   Int. Num. El.       :    54.00132712 (UP=   27.00066356 DN=   27.00066356)
   Exchange            :   -38.60604840
   Correlation         :    -2.22501310


                         ----------------------------
                         !        ITERATION    12   !
                         ----------------------------
   Total Energy        :    -393.744272176336 Eh
   Energy Change       :      -0.000000005272 Eh
   MAX-DP              :       0.000014092261
   RMS-DP              :       0.000000382487
   Orbital gradient    :       0.000003854738
   Orbital Rotation    :       0.000006776385
   Actual Damping      :       0.0000
   Int. Num. El.       :    54.00132709 (UP=   27.00066354 DN=   27.00066354)
   Exchange            :   -38.60610904
   Correlation         :    -2.22501564


                         ----------------------------
                         !        ITERATION    13   !
                         ----------------------------
   Total Energy        :    -393.744272176328 Eh
   Energy Change       :       0.000000000008 Eh
   MAX-DP              :       0.000007289111
   RMS-DP              :       0.000000211187
   Orbital gradient    :       0.000004551630
   Orbital Rotation    :       0.000003222516
   Actual Damping      :       0.0000
   Int. Num. El.       :    54.00132708 (UP=   27.00066354 DN=   27.00066354)
   Exchange            :   -38.60613505
   Correlation         :    -2.22501654

                  ***Gradient check signals convergence***
              ***Rediagonalizing the Fockian in SOSCF/NRSCF***

               *****************************************************
               *                     SUCCESS                       *
               *           SCF CONVERGED AFTER  14 CYCLES          *
               *****************************************************

Setting up the final grid:

General Integration Accuracy     IntAcc      ...  5.010
Radial Grid Type                 RadialGrid  ... Gauss-Chebyshev
Angular Grid (max. acc.)         AngularGrid ... Lebedev-434
Angular grid pruning method      GridPruning ... 3 (G Style)
Weight generation scheme         WeightScheme... Becke
Basis function cutoff            BFCut       ...    1.0000e-11
Integration weight cutoff        WCut        ...    1.0000e-14
Grids for H and He will be reduced by one unit

# of grid points (after initial pruning)     ... 108310 (   0.0 sec)
# of grid points (after weights+screening)   ... 101568 (   0.1 sec)
nearest neighbour list constructed           ...    0.0 sec
Grid point re-assignment to atoms done       ...    0.0 sec
Grid point division into batches done        ...    0.6 sec
Reduced shell lists constructed in    1.0 sec

Total number of grid points                  ...   101568
Total number of batches                      ...     1593
Average number of points per batch           ...       63
Average number of grid points per atom       ...     8464
Average number of shells per batch           ...    33.02 (63.49%)
Average number of basis functions per batch  ...    70.66 (65.43%)
Average number of large shells per batch     ...    25.17 (76.23%)
Average number of large basis fcns per batch ...    54.17 (76.67%)
Maximum spatial batch extension              ...  19.09, 21.46, 27.11 au
Average spatial batch extension              ...   2.02,  2.12,  2.38 au

Final grid set up in    1.2 sec
Final integration                            ... done (   0.7 sec)
Change in XC energy                          ...     0.000096744
Integrated number of electrons               ...    53.999996656
Previous integrated no of electrons          ...    54.001327089

----------------
TOTAL SCF ENERGY
----------------

Total Energy       :         -393.74417543 Eh          -10714.32372 eV

Components:
Nuclear Repulsion  :          303.67812984 Eh            8263.50202 eV
Electronic Energy  :         -697.42230528 Eh          -18977.82574 eV
One Electron Energy:        -1139.50404829 Eh          -31007.48154 eV
Two Electron Energy:          442.08174302 Eh           12029.65580 eV

Virial components:
Potential Energy   :         -785.09304230 Eh          -21363.46778 eV
Kinetic Energy     :          391.34886686 Eh           10649.14406 eV
Virial Ratio       :            2.00612065


DFT components:
N(Alpha)           :       26.999998327893 electrons
N(Beta)            :       26.999998327893 electrons
N(Total)           :       53.999996655785 electrons
E(X)               :      -38.606059258817 Eh       
E(C)               :       -2.224978062307 Eh       
E(XC)              :      -40.831037321124 Eh       
DFET-embed. en.    :        0.000000000000 Eh       

---------------
SCF CONVERGENCE
---------------

  Last Energy change         ...   -4.1894e-11  Tolerance :   1.0000e-08
  Last MAX-Density change    ...    7.3136e-07  Tolerance :   1.0000e-07
  Last RMS-Density change    ...    4.1956e-08  Tolerance :   5.0000e-09
  Last Orbital Gradient      ...    1.9500e-07  Tolerance :   1.0000e-05
  Last Orbital Rotation      ...    4.4890e-07  Tolerance :   1.0000e-05

             **** THE GBW FILE WAS UPDATED (/Users/lailaal-madhagi/Desktop/Testing_XAS_Analysis_code/Biuret//Results_dir_Biuret_geom_element_N_2019-11-07_23-08-54//GTE1_Biuret_geom_2019-11-07_23-09-30//TDDFT_N-edge.gbw) ****
             **** DENSITY FILE WAS UPDATED (/Users/lailaal-madhagi/Desktop/Testing_XAS_Analysis_code/Biuret//Results_dir_Biuret_geom_element_N_2019-11-07_23-08-54//GTE1_Biuret_geom_2019-11-07_23-09-30//TDDFT_N-edge.scfp.tmp) ****
             **** ENERGY FILE WAS UPDATED (/Users/lailaal-madhagi/Desktop/Testing_XAS_Analysis_code/Biuret//Results_dir_Biuret_geom_element_N_2019-11-07_23-08-54//GTE1_Biuret_geom_2019-11-07_23-09-30//TDDFT_N-edge.en.tmp) ****
----------------
ORBITAL ENERGIES
----------------

  NO   OCC          E(Eh)            E(eV) 
   0   2.0000     -19.099182      -519.7152 
   1   2.0000     -19.099166      -519.7147 
   2   2.0000     -14.368376      -390.9834 
   3   2.0000     -14.348698      -390.4479 
   4   2.0000     -14.348678      -390.4474 
   5   2.0000     -10.314098      -280.6609 
   6   2.0000     -10.314087      -280.6606 
   7   2.0000      -1.052207       -28.6320 
   8   2.0000      -1.026305       -27.9272 
   9   2.0000      -0.935847       -25.4657 
  10   2.0000      -0.904763       -24.6199 
  11   2.0000      -0.878705       -23.9108 
  12   2.0000      -0.665347       -18.1050 
  13   2.0000      -0.583948       -15.8900 
  14   2.0000      -0.567603       -15.4453 
  15   2.0000      -0.557134       -15.1604 
  16   2.0000      -0.525397       -14.2968 
  17   2.0000      -0.475820       -12.9477 
  18   2.0000      -0.446003       -12.1364 
  19   2.0000      -0.409051       -11.1308 
  20   2.0000      -0.403454       -10.9786 
  21   2.0000      -0.394120       -10.7245 
  22   2.0000      -0.272709        -7.4208 
  23   2.0000      -0.272314        -7.4100 
  24   2.0000      -0.265712        -7.2304 
  25   2.0000      -0.262099        -7.1321 
  26   2.0000      -0.240572        -6.5463 
  27   0.0000       0.034217         0.9311 
  28   0.0000       0.036007         0.9798 
  29   0.0000       0.074335         2.0228 
  30   0.0000       0.101913         2.7732 
  31   0.0000       0.106685         2.9031 
  32   0.0000       0.135251         3.6804 
  33   0.0000       0.149394         4.0652 
  34   0.0000       0.232200         6.3185 
  35   0.0000       0.244520         6.6537 
  36   0.0000       0.299564         8.1516 
  37   0.0000       0.362559         9.8657 
  38   0.0000       0.411526        11.1982 
  39   0.0000       0.415093        11.2953 
  40   0.0000       0.529296        14.4029 
  41   0.0000       0.536908        14.6100 
  42   0.0000       0.577249        15.7077 
  43   0.0000       0.597744        16.2654 
  44   0.0000       0.599927        16.3249 
  45   0.0000       0.641698        17.4615 
  46   0.0000       0.643792        17.5185 
  47   0.0000       0.691805        18.8250 
  48   0.0000       0.699308        19.0291 
  49   0.0000       0.702548        19.1173 
  50   0.0000       0.756461        20.5843 
  51   0.0000       0.779908        21.2224 
  52   0.0000       0.837603        22.7923 
  53   0.0000       0.853813        23.2334 
  54   0.0000       0.859132        23.3782 
  55   0.0000       0.868438        23.6314 
  56   0.0000       0.881779        23.9944 
  57   0.0000       0.883382        24.0381 
  58   0.0000       0.916176        24.9304 
  59   0.0000       0.973667        26.4948 
  60   0.0000       1.001562        27.2539 
  61   0.0000       1.049001        28.5448 
  62   0.0000       1.059594        28.8330 
  63   0.0000       1.077427        29.3183 
  64   0.0000       1.196703        32.5640 
  65   0.0000       1.229976        33.4693 
  66   0.0000       1.286470        35.0066 
  67   0.0000       1.292033        35.1580 
  68   0.0000       1.318202        35.8701 
  69   0.0000       1.323672        36.0189 
  70   0.0000       1.354049        36.8456 
  71   0.0000       1.400645        38.1135 
  72   0.0000       1.481902        40.3246 
  73   0.0000       1.483592        40.3706 
  74   0.0000       1.568801        42.6892 
  75   0.0000       1.647594        44.8333 
  76   0.0000       1.660435        45.1827 
  77   0.0000       1.694961        46.1222 
  78   0.0000       1.772435        48.2304 
  79   0.0000       1.824112        49.6366 
  80   0.0000       1.826644        49.7055 
  81   0.0000       1.828471        49.7552 
  82   0.0000       1.862994        50.6946 
  83   0.0000       1.897213        51.6258 
  84   0.0000       1.967548        53.5397 
  85   0.0000       1.976934        53.7951 
  86   0.0000       2.002288        54.4850 
  87   0.0000       2.042226        55.5718 
  88   0.0000       2.082542        56.6688 
  89   0.0000       2.168924        59.0194 
  90   0.0000       2.196562        59.7715 
  91   0.0000       2.217949        60.3535 
  92   0.0000       2.273433        61.8632 
  93   0.0000       2.342721        63.7487 
  94   0.0000       2.389595        65.0242 
  95   0.0000       2.414686        65.7069 
  96   0.0000       2.425871        66.0113 
  97   0.0000       2.521814        68.6220 
  98   0.0000       2.623684        71.3941 
  99   0.0000       2.632171        71.6250 
 100   0.0000       2.667928        72.5980 
 101   0.0000       2.742653        74.6314 
 102   0.0000       2.861821        77.8741 
 103   0.0000       2.871230        78.1301 
 104   0.0000       2.988610        81.3242 
 105   0.0000       3.018755        82.1445 
 106   0.0000       3.139988        85.4434 
 107   0.0000       3.284282        89.3699 
------------------
MOLECULAR ORBITALS
------------------
                      0         1         2         3         4         5   
                 -19.09918 -19.09917 -14.36838 -14.34870 -14.34868 -10.31410
                   2.00000   2.00000   2.00000   2.00000   2.00000   2.00000
                  --------  --------  --------  --------  --------  --------
  0N   1s        -0.000014  0.000048 -0.000914  0.858786  0.502970  0.000033
  0N   2s        -0.000158  0.000652 -0.000484  0.028282  0.016078  0.000562
  0N   1pz        0.000003  0.000018 -0.000033  0.000060  0.000032  0.000029
  0N   1px        0.000002  0.000178 -0.000148  0.000317  0.000148  0.000128
  0N   1py        0.000031  0.000007 -0.000251  0.000249  0.000136  0.000224
  0N   3s         0.001679 -0.004693  0.001719 -0.024683 -0.011102 -0.004703
  0N   2pz        0.000067 -0.000234  0.000095 -0.000663 -0.000169 -0.000203
  0N   2px        0.001006 -0.003854 -0.000846 -0.003746 -0.000783 -0.000946
  0N   2py       -0.000462  0.002069  0.002430 -0.003750 -0.001069 -0.001514
  0N   1dz2       0.000014  0.000101 -0.000115  0.000081 -0.000050 -0.000185
  0N   1dxz       0.000006 -0.000053 -0.000011 -0.000030  0.000009  0.000064
  0N   1dyz      -0.000007  0.000030  0.000013 -0.000022  0.000012  0.000045
  0N   1dx2y2     0.000074 -0.000409 -0.000178 -0.000050 -0.000026  0.000101
  0N   1dxy       0.000014  0.000094 -0.000168 -0.000143  0.000046  0.000284
  1C   1s         0.000028 -0.000338  0.000035  0.000056 -0.000002 -0.250121
  1C   2s        -0.000139 -0.001122 -0.000761 -0.000692 -0.000907 -0.008862
  1C   1pz       -0.000024  0.000011  0.000008  0.000072  0.000015 -0.000006
  1C   1px       -0.000300  0.000080 -0.000031  0.000539  0.000061  0.000010
  1C   1py        0.000079  0.000035  0.000155  0.000232  0.000131 -0.000108
  1C   3s        -0.001555 -0.006021  0.008518  0.008348  0.004108 -0.000490
  1C   2pz        0.000225 -0.001008  0.000726 -0.001377 -0.000290 -0.000981
  1C   2px       -0.001410  0.002247  0.009413 -0.008646 -0.001980 -0.005839
  1C   2py        0.004982 -0.016684 -0.002825 -0.007044 -0.001332 -0.005341
  1C   1dz2       0.000062 -0.000430  0.000232  0.000256  0.000121  0.000685
  1C   1dxz       0.000007 -0.000036  0.000002 -0.000095 -0.000076 -0.000064
  1C   1dyz      -0.000013  0.000096  0.000081 -0.000112 -0.000070 -0.000083
  1C   1dx2y2     0.000146 -0.000912 -0.000277  0.000053 -0.000083  0.000330
  1C   1dxy       0.000048 -0.000270  0.000924 -0.000731 -0.000606  0.000301
  2N   1s         0.000022  0.000032  0.995340  0.000316  0.001208 -0.000160
  2N   2s         0.000291  0.000422  0.033928 -0.000139 -0.000532 -0.000430
  2N   1pz        0.000041 -0.000039  0.000039  0.000024 -0.000016  0.000054
  2N   1px        0.000472 -0.000326  0.000001  0.000257 -0.000068  0.000497
  2N   1py       -0.000064 -0.000083  0.000528 -0.000034 -0.000121  0.000056
  2N   3s        -0.002865 -0.004153 -0.034001  0.000209  0.000803  0.002216
  2N   2pz       -0.000443  0.000693 -0.000491  0.000047  0.000108  0.000418
  2N   2px       -0.006470  0.004474 -0.000015  0.000326 -0.000082 -0.000430
  2N   2py        0.002353  0.003275 -0.006388  0.000371  0.001430  0.005939
  2N   1dz2       0.000057  0.000073  0.000172 -0.000053 -0.000194 -0.001213
  2N   1dxz      -0.000007 -0.000059 -0.000029 -0.000007  0.000005  0.000392
  2N   1dyz       0.000041 -0.000005 -0.000024 -0.000000  0.000055  0.000141
  2N   1dx2y2    -0.000231 -0.000342  0.000021 -0.000084 -0.000317  0.001214
  2N   1dxy       0.000289 -0.000192  0.000002 -0.000099  0.000027  0.000696
  3C   1s        -0.000326 -0.000094  0.000035 -0.000050  0.000025 -0.963064
  3C   2s        -0.000999 -0.000528 -0.000761  0.000160 -0.001130 -0.034445
  3C   1pz       -0.000017  0.000032  0.000015  0.000033 -0.000013 -0.000040
  3C   1px       -0.000181  0.000252  0.000032  0.000440 -0.000316  0.000215
  3C   1py        0.000009  0.000081  0.000154 -0.000147  0.000234 -0.000713
  3C   3s        -0.005076 -0.003591  0.008518 -0.005272  0.007666  0.004663
  3C   2pz       -0.001683 -0.000057 -0.001143 -0.000186  0.000190 -0.000614
  3C   2px       -0.002680  0.000515 -0.009426 -0.006548  0.005936 -0.000661
  3C   2py       -0.017302 -0.001277 -0.002636  0.005619 -0.004721 -0.006713
  3C   1dz2      -0.000415 -0.000093  0.000208 -0.000173  0.000254  0.001865
  3C   1dxz       0.000007  0.000002 -0.000140 -0.000008  0.000027 -0.000257
  3C   1dyz       0.000161  0.000033 -0.000094 -0.000003  0.000055 -0.000362
  3C   1dx2y2    -0.000896 -0.000186 -0.000299 -0.000096 -0.000025  0.000857
  3C   1dxy       0.000280  0.000053 -0.000910 -0.000343  0.000893 -0.000217
  4N   1s         0.000049  0.000004 -0.000914 -0.503045  0.858743 -0.000062
  4N   2s         0.000666  0.000084 -0.000484 -0.016804  0.027857  0.000236
  4N   1pz       -0.000017 -0.000004 -0.000006  0.000018 -0.000029 -0.000035
  4N   1px       -0.000165 -0.000064  0.000146  0.000203 -0.000282 -0.000818
  4N   1py       -0.000001  0.000033 -0.000254 -0.000156  0.000248  0.000565
  4N   3s        -0.004983 -0.000097  0.001719  0.016099 -0.021756 -0.000891
  4N   2pz        0.000562  0.000068  0.000282 -0.000068  0.000049  0.000204
  4N   2px        0.003969  0.000430  0.000857 -0.002871  0.002501  0.000374
  4N   2py        0.002017  0.000294  0.002411  0.002806 -0.002819  0.002019
  4N   1dz2       0.000087  0.000047 -0.000111 -0.000099 -0.000003 -0.000915
  4N   1dxz      -0.000065 -0.000020  0.000014  0.000007 -0.000002  0.000064
  4N   1dyz       0.000008 -0.000006  0.000044 -0.000004  0.000010 -0.000041
  4N   1dx2y2    -0.000411 -0.000077 -0.000174  0.000027 -0.000046  0.000288
  4N   1dxy      -0.000070 -0.000043  0.000169 -0.000150  0.000030 -0.001456
  5O   1s         0.179640 -0.978844 -0.000003 -0.000022 -0.000001 -0.000030
  5O   2s         0.005628 -0.030396 -0.000228 -0.000518 -0.000205 -0.000672
  5O   1pz       -0.000029  0.000145  0.000016 -0.000002 -0.000001 -0.000029
  5O   1px        0.000027 -0.000269  0.000093 -0.000085 -0.000075 -0.000026
  5O   1py       -0.000427  0.002330  0.000086  0.000084  0.000089 -0.000348
  5O   3s        -0.005484  0.026511  0.000596  0.002279 -0.000025  0.005177
  5O   2pz        0.000122 -0.000452 -0.000236  0.000174  0.000076  0.000017
  5O   2px        0.000074  0.001024 -0.002141  0.002012  0.000729  0.001589
  5O   2py        0.001548 -0.007534 -0.000327 -0.000349  0.000071 -0.001959
  5O   1dz2       0.000000 -0.000088 -0.000160 -0.000154 -0.000145 -0.000221
  5O   1dxz       0.000009 -0.000012  0.000056  0.000003  0.000022 -0.000023
  5O   1dyz      -0.000006  0.000020  0.000085 -0.000034 -0.000006  0.000027
  5O   1dx2y2     0.000087 -0.000218 -0.000130  0.000111  0.000098 -0.000395
  5O   1dxy       0.000001 -0.000071  0.000553 -0.000459 -0.000181 -0.000301
  6O   1s        -0.978845 -0.179636 -0.000003  0.000018 -0.000012  0.000011
  6O   2s        -0.030413 -0.005532 -0.000228  0.000351 -0.000432 -0.001108
  6O   1pz        0.000218  0.000042 -0.000002 -0.000006  0.000020 -0.000088
  6O   1px        0.000271  0.000072 -0.000093 -0.000038  0.000108 -0.000095
  6O   1py        0.002322  0.000427  0.000088 -0.000029  0.000117 -0.000969
  6O   3s         0.026730  0.004286  0.000596 -0.002000  0.001092  0.009097
  6O   2pz       -0.000720 -0.000143  0.000180  0.000163 -0.000164 -0.000527
  6O   2px       -0.000965 -0.000439  0.002140  0.001400 -0.001621 -0.000963
  6O   2py       -0.007568 -0.001218 -0.000369  0.000312 -0.000077 -0.005211
  6O   1dz2      -0.000080 -0.000030 -0.000174  0.000055 -0.000192 -0.000933
  6O   1dxz      -0.000004  0.000008 -0.000031 -0.000041  0.000079  0.000058
  6O   1dyz       0.000038  0.000006 -0.000018 -0.000034  0.000052  0.000294
  6O   1dx2y2    -0.000233  0.000004 -0.000143 -0.000057  0.000149 -0.001416
  6O   1dxy       0.000070  0.000024 -0.000554 -0.000309  0.000373  0.000421
  7H   1s         0.000509  0.000737 -0.000486 -0.000011 -0.000043  0.001140
  7H   2s         0.000489  0.000708  0.002134  0.000060  0.000229  0.000618
  8H   1s        -0.000186  0.000686  0.000302 -0.000306 -0.000296 -0.000017
  8H   2s        -0.000193  0.000663  0.000449  0.002266  0.001646 -0.000323
  9H   1s         0.000080 -0.000322 -0.000505 -0.000039 -0.000117  0.000289
  9H   2s         0.000097 -0.000880  0.000012  0.002545  0.001791 -0.000204
 10H   1s         0.000708  0.000070  0.000302  0.000122 -0.000408  0.000430
 10H   2s         0.000688  0.000055  0.000448 -0.001172  0.002544  0.000264
 11H   1s        -0.000330 -0.000039 -0.000505 -0.000023 -0.000122 -0.000107
 11H   2s        -0.000857 -0.000222  0.000012 -0.001344  0.002807 -0.000796
                      6         7         8         9        10        11   
                 -10.31409  -1.05221  -1.02631  -0.93585  -0.90476  -0.87870
                   2.00000   2.00000   2.00000   2.00000   2.00000   2.00000
                  --------  --------  --------  --------  --------  --------
  0N   1s        -0.000090  0.043132 -0.046306  0.061890 -0.130404 -0.121749
  0N   2s        -0.000043 -0.088760  0.095277 -0.127569  0.269179  0.255089
  0N   1pz        0.000124 -0.004136  0.003978 -0.002173  0.002109 -0.000458
  0N   1px        0.000868 -0.023594  0.019507 -0.025485  0.016146 -0.014138
  0N   1py        0.000503 -0.022814  0.026018  0.007910 -0.000195  0.005812
  0N   3s         0.001599 -0.076354  0.091013 -0.131928  0.305047  0.274245
  0N   2pz        0.000241 -0.001580  0.001675 -0.001060  0.002239 -0.000203
  0N   2px        0.000109 -0.008717  0.004026 -0.017903  0.019622 -0.006693
  0N   2py        0.003165 -0.009087  0.016552  0.011154  0.000722  0.002616
  0N   1dz2      -0.000901  0.005303 -0.005407  0.006105 -0.012366 -0.010992
  0N   1dxz       0.000299 -0.001113  0.001021 -0.001166  0.001968  0.001384
  0N   1dyz       0.000244 -0.000956  0.001022 -0.000467  0.001241  0.001145
  0N   1dx2y2     0.000313  0.000169 -0.001105 -0.001973  0.000171 -0.002323
  0N   1dxy       0.001474 -0.002727  0.002546  0.001261 -0.002513 -0.003652
  1C   1s        -0.963080  0.100817 -0.094330  0.015694 -0.022526  0.000554
  1C   2s        -0.034492 -0.199481  0.187189 -0.037070  0.048344  0.000190
  1C   1pz       -0.000080 -0.005199  0.003653  0.007956 -0.015916 -0.015805
  1C   1px       -0.000255 -0.003785 -0.036831 -0.052091 -0.050336 -0.143154
  1C   1py       -0.000752 -0.065807  0.099630  0.177547 -0.148704 -0.022686
  1C   3s         0.005610 -0.028670  0.043625  0.013106 -0.019481 -0.000604
  1C   2pz        0.000046  0.002104  0.000087  0.000653  0.003324  0.001243
  1C   2px        0.003974  0.007950  0.012053  0.011415  0.012509  0.011672
  1C   2py       -0.004729  0.017847 -0.015182 -0.006241  0.028014  0.001532
  1C   1dz2       0.001765  0.013050 -0.011885  0.001485 -0.001888  0.000473
  1C   1dxz      -0.000219 -0.000963  0.000397 -0.001741  0.002026  0.000879
  1C   1dyz      -0.000276 -0.001929  0.002446  0.000960  0.000672  0.001832
  1C   1dx2y2     0.000807  0.009623 -0.015228 -0.015317  0.008933 -0.003020
  1C   1dxy       0.000114  0.004701 -0.002071  0.000369  0.010809  0.016815
  2N   1s        -0.000094  0.082447 -0.000007  0.134618 -0.000020  0.117904
  2N   2s        -0.000253 -0.167276  0.000008 -0.278158  0.000033 -0.248229
  2N   1pz       -0.000082 -0.001999 -0.005144  0.002403 -0.005223 -0.000539
  2N   1px       -0.000844 -0.000075 -0.051303  0.000039 -0.054073 -0.000031
  2N   1py        0.000044 -0.026363  0.000522  0.029689  0.000530 -0.007604
  2N   3s         0.001302 -0.171557  0.000047 -0.311841  0.000099 -0.279024
  2N   2pz        0.000347 -0.002058 -0.001412  0.001084 -0.004722 -0.000471
  2N   2px        0.000762 -0.000034 -0.013685  0.000071 -0.049172 -0.000031
  2N   2py        0.003480 -0.026773  0.000147  0.012897  0.000473 -0.006577
  2N   1dz2      -0.000735  0.009448 -0.000090  0.011247  0.000025  0.008113
  2N   1dxz       0.000102 -0.001832 -0.000512 -0.002027  0.000154 -0.000910
  2N   1dyz      -0.000082 -0.001143 -0.000660 -0.001461  0.000193 -0.001511
  2N   1dx2y2     0.000693 -0.001663 -0.000083 -0.000809  0.000024  0.005260
  2N   1dxy      -0.001257  0.000152 -0.006622  0.000167  0.001838  0.000050
  3C   1s         0.250183  0.100830  0.094316  0.015702  0.022521  0.000557
  3C   2s         0.009043 -0.199501 -0.187155 -0.037087 -0.048322  0.000172
  3C   1pz        0.000009 -0.005091 -0.011827  0.019674  0.007467  0.011869
  3C   1px       -0.000131  0.003483 -0.037288  0.052899 -0.049682  0.143061
  3C   1py        0.000274 -0.065834 -0.098809  0.176431  0.149548 -0.025487
  3C   3s        -0.003158 -0.028692 -0.043614  0.013060  0.019490 -0.000625
  3C   2pz        0.000495  0.000717  0.002441 -0.001625 -0.001075 -0.000979
  3C   2px        0.007024 -0.007810  0.012164 -0.011373  0.012428 -0.011688
  3C   2py       -0.002504  0.018003  0.014941 -0.005981 -0.028180  0.001672
  3C   1dz2      -0.000265  0.012894  0.011785  0.001503  0.002185  0.000038
  3C   1dxz       0.000017 -0.001679 -0.000718 -0.001745 -0.000291 -0.001753
  3C   1dyz       0.000027 -0.003100 -0.003165  0.001048  0.001489 -0.001368
  3C   1dx2y2    -0.000109  0.009489  0.015149 -0.015317 -0.008664 -0.003422
  3C   1dxy      -0.000212 -0.004586 -0.002123  0.000040  0.011071 -0.016722
  4N   1s         0.000072  0.043140  0.046301  0.061920  0.130393 -0.121742
  4N   2s         0.000512 -0.088771 -0.095264 -0.127625 -0.269160  0.255084
  4N   1pz        0.000027  0.000625 -0.000010  0.003551  0.002571  0.000851
  4N   1px        0.000310  0.023482  0.019374  0.025507  0.016094  0.014214
  4N   1py       -0.000056 -0.023296 -0.026412  0.007348 -0.000242  0.005640
  4N   3s        -0.004886 -0.076395 -0.091021 -0.132002 -0.305008  0.274192
  4N   2pz       -0.000155  0.000184 -0.000863  0.002859  0.002305  0.000352
  4N   2px        0.000867  0.008689  0.003953  0.017969  0.019604  0.006732
  4N   2py       -0.002878 -0.009284 -0.016650  0.010745 -0.001199  0.002567
  4N   1dz2       0.000289  0.005366  0.005464  0.006054  0.012257 -0.010857
  4N   1dxz      -0.000014 -0.000659 -0.000591 -0.001326 -0.002269  0.001862
  4N   1dyz       0.000013 -0.000527 -0.000632 -0.000891 -0.002100  0.002202
  4N   1dx2y2    -0.000053  0.000227  0.001158 -0.002020 -0.000265 -0.002202
  4N   1dxy       0.000478  0.002865  0.002662 -0.001045 -0.002174  0.003416
  5O   1s         0.000030  0.105864 -0.123792 -0.090104  0.064019  0.003900
  5O   2s        -0.000893 -0.228198  0.269476  0.198991 -0.141297 -0.008500
  5O   1pz       -0.000056  0.005700 -0.007181 -0.004097  0.001474 -0.002345
  5O   1px        0.000118 -0.014768  0.009821  0.004946 -0.014355 -0.023065
  5O   1py       -0.000918  0.097285 -0.110598 -0.062362  0.039184 -0.000877
  5O   3s         0.007529 -0.213712  0.244170  0.180127 -0.139989 -0.008792
  5O   2pz       -0.000341  0.001890 -0.002896 -0.001248 -0.000028 -0.001560
  5O   2px        0.000191 -0.007194 -0.001062 -0.002376 -0.007175 -0.015102
  5O   2py       -0.004900  0.035263 -0.037584 -0.013837  0.009192 -0.000937
  5O   1dz2      -0.000962  0.003292 -0.003324 -0.001517  0.000523  0.000047
  5O   1dxz       0.000004  0.000296 -0.000324 -0.000024  0.000238  0.000207
  5O   1dyz       0.000198 -0.000674  0.000895  0.000441  0.000094  0.000491
  5O   1dx2y2    -0.001415  0.006833 -0.008069 -0.003071  0.001323 -0.001029
  5O   1dxy      -0.000304  0.002544 -0.001288  0.000213  0.002587  0.004232
  6O   1s        -0.000041  0.105880  0.123779 -0.090119 -0.063999  0.003897
  6O   2s        -0.000153 -0.228228 -0.269444  0.199026  0.141263 -0.008506
  6O   1pz        0.000020  0.009473  0.010081 -0.005643 -0.004612  0.002145
  6O   1px        0.000081  0.015214  0.010325 -0.005233 -0.014535  0.023061
  6O   1py        0.000141  0.096934  0.110311 -0.062226 -0.038859 -0.001334
  6O   3s         0.000858 -0.213759 -0.244167  0.180143  0.139893 -0.008712
  6O   2pz       -0.000073  0.003615  0.002989 -0.000918 -0.001443  0.001369
  6O   2px       -0.001292  0.007341 -0.000904  0.002304 -0.007222  0.015100
  6O   2py        0.000699  0.035109  0.037588 -0.013875 -0.009025 -0.001259
  6O   1dz2       0.000277  0.003209  0.003272 -0.001516 -0.000452 -0.000063
  6O   1dxz      -0.000004 -0.000113  0.000110 -0.000053  0.000169 -0.000453
  6O   1dyz      -0.000056 -0.001281 -0.001271  0.000456  0.000427 -0.000312
  6O   1dx2y2     0.000346  0.006764  0.008029 -0.003073 -0.001257 -0.001133
  6O   1dxy       0.000113 -0.002620 -0.001395 -0.000178  0.002605 -0.004204
  7H   1s         0.000670 -0.040324  0.000000 -0.094815  0.000007 -0.074225
  7H   2s         0.000363  0.000243  0.000000 -0.007060 -0.000004  0.002533
  8H   1s         0.000502 -0.018421  0.020377 -0.041384  0.083716  0.078703
  8H   2s         0.000482 -0.000298  0.000317 -0.001413  0.004994  0.002016
  9H   1s        -0.000284 -0.020029  0.022859 -0.029608  0.076437  0.083392
  9H   2s        -0.000798  0.000981 -0.001816 -0.001048  0.004083  0.004627
 10H   1s        -0.000259 -0.018427 -0.020378 -0.041408 -0.083725  0.078717
 10H   2s        -0.000517 -0.000301 -0.000320 -0.001416 -0.004991  0.002015
 11H   1s         0.000391 -0.020032 -0.022856 -0.029622 -0.076431  0.083387
 11H   2s         0.000210  0.000972  0.001811 -0.001066 -0.004106  0.004647
                     12        13        14        15        16        17   
                  -0.66535  -0.58395  -0.56760  -0.55713  -0.52540  -0.47582
                   2.00000   2.00000   2.00000   2.00000   2.00000   2.00000
                  --------  --------  --------  --------  --------  --------
  0N   1s        -0.042487  0.011734  0.012389  0.001309  0.001640  0.009739
  0N   2s         0.092276 -0.022601 -0.027877 -0.002141 -0.004972 -0.018381
  0N   1pz       -0.020970  0.030149  0.018097  0.020143  0.014187 -0.026779
  0N   1px       -0.175556  0.140400  0.105107 -0.022787  0.283840 -0.288936
  0N   1py       -0.055578  0.231701  0.113410  0.318844 -0.197560  0.035933
  0N   3s         0.118410 -0.040037 -0.038573  0.011557  0.000169 -0.070554
  0N   2pz       -0.009264  0.013021  0.009930  0.009627  0.008353 -0.017825
  0N   2px       -0.080067  0.055294  0.061804 -0.016138  0.151446 -0.177855
  0N   2py       -0.021407  0.106715  0.057282  0.159267 -0.094127  0.003448
  0N   1dz2      -0.004109  0.003592  0.001861  0.002194  0.000843 -0.001460
  0N   1dxz      -0.000325  0.000576 -0.000014  0.000684 -0.000670  0.000605
  0N   1dyz      -0.000008 -0.000071  0.000091 -0.000601  0.001301 -0.001292
  0N   1dx2y2    -0.003935  0.006304  0.000588  0.009666 -0.011774  0.010606
  0N   1dxy      -0.007683  0.007054  0.003030  0.001876  0.006877 -0.007334
  1C   1s         0.087076 -0.075245  0.011856 -0.020440 -0.021064 -0.016519
  1C   2s        -0.193034  0.171457 -0.027343  0.046890  0.047063  0.040673
  1C   1pz        0.002004 -0.015837 -0.023932 -0.019407 -0.006479  0.026448
  1C   1px       -0.097507 -0.083919 -0.207814 -0.175366 -0.022694  0.249192
  1C   1py        0.155501 -0.100902 -0.037827 -0.023317 -0.060602  0.043621
  1C   3s        -0.090396  0.104267 -0.032539  0.036373  0.032225  0.067710
  1C   2pz        0.001813 -0.004247 -0.003752 -0.000258 -0.000058 -0.001185
  1C   2px       -0.004542 -0.015589 -0.034701 -0.013121  0.014229  0.025102
  1C   2py        0.030842 -0.035789 -0.003137  0.014140 -0.021388 -0.041577
  1C   1dz2       0.005190 -0.002234  0.000581 -0.000939 -0.000444 -0.001281
  1C   1dxz      -0.000637  0.002332 -0.001550  0.001792 -0.000600 -0.000167
  1C   1dyz       0.000186  0.000481  0.000781 -0.000039  0.001831 -0.001983
  1C   1dx2y2    -0.002535  0.011416 -0.013257  0.011216 -0.013016  0.008417
  1C   1dxy       0.006979  0.010132 -0.001553  0.006283  0.008312 -0.015482
  2N   1s         0.000004  0.029826  0.002077  0.000003  0.040293 -0.000002
  2N   2s        -0.000003 -0.066182 -0.011545  0.000006 -0.088266  0.000002
  2N   1pz        0.031282  0.015024 -0.031456  0.010973  0.003565 -0.029575
  2N   1px        0.314936  0.000430 -0.000908  0.112545  0.000087 -0.277215
  2N   1py       -0.003172  0.192685 -0.404648 -0.001059  0.045759  0.002933
  2N   3s         0.000001 -0.083425  0.003549 -0.000054 -0.160147  0.000017
  2N   2pz        0.014666  0.007655 -0.015371  0.005685  0.001481 -0.012243
  2N   2px        0.147296  0.000284 -0.000500  0.059415 -0.000005 -0.108816
  2N   2py       -0.001457  0.097269 -0.197254 -0.000540  0.018927  0.001207
  2N   1dz2       0.000067  0.002400 -0.005080  0.000030  0.001100 -0.000122
  2N   1dxz       0.000392  0.001200 -0.000199  0.000145  0.000564 -0.000693
  2N   1dyz       0.000520 -0.001614  0.001590  0.000218 -0.000773 -0.000919
  2N   1dx2y2     0.000068  0.016224 -0.011101  0.000028  0.007921 -0.000116
  2N   1dxy       0.005276 -0.000162  0.000058  0.001981 -0.000081 -0.009042
  3C   1s        -0.087074 -0.075247  0.011869  0.020434 -0.021064  0.016522
  3C   2s         0.193028  0.171467 -0.027361 -0.046893  0.047040 -0.040693
  3C   1pz       -0.021880  0.000018  0.017679 -0.015390 -0.002908  0.019211
  3C   1px       -0.098224  0.083461  0.207580 -0.175321  0.022427  0.248983
  3C   1py       -0.153498 -0.102523 -0.042018  0.026847 -0.060977 -0.048319
  3C   3s         0.090392  0.104195 -0.032492 -0.036351  0.032270 -0.067727
  3C   2pz       -0.002993 -0.001429  0.003238 -0.002399 -0.003200  0.005287
  3C   2px       -0.004642  0.015497  0.034681 -0.013223 -0.014356  0.025304
  3C   2py       -0.030713 -0.036013 -0.003902 -0.013906 -0.021128  0.041121
  3C   1dz2      -0.005011 -0.002517  0.000630  0.001130 -0.000636  0.000895
  3C   1dxz       0.001708  0.000723 -0.001260 -0.000784 -0.001847 -0.002190
  3C   1dyz       0.001133 -0.001622  0.001128  0.001441  0.000385 -0.000917
  3C   1dx2y2     0.002699  0.011156 -0.013217 -0.011044 -0.013205 -0.008788
  3C   1dxy       0.006776 -0.010478  0.001898  0.006588 -0.008000 -0.015246
  4N   1s         0.042487  0.011734  0.012387 -0.001312  0.001638 -0.009740
  4N   2s        -0.092289 -0.022610 -0.027879  0.002152 -0.004972  0.018378
  4N   1pz       -0.011299  0.006987  0.000320 -0.029939 -0.043924 -0.030977
  4N   1px       -0.175365 -0.139414 -0.104629 -0.024193 -0.284798 -0.289150
  4N   1py        0.058904  0.234161  0.115194 -0.318015 -0.191709 -0.030087
  4N   3s        -0.118391 -0.040000 -0.038586 -0.011568  0.000172  0.070563
  4N   2pz       -0.005447  0.004097 -0.000568 -0.015415 -0.022507 -0.017540
  4N   2px       -0.080013 -0.054839 -0.061541 -0.016869 -0.151937 -0.177913
  4N   2py        0.022887  0.107625  0.058324 -0.158729 -0.091007  0.000131
  4N   1dz2       0.003888  0.003341  0.001756 -0.002038  0.000762  0.001320
  4N   1dxz      -0.000780 -0.000488 -0.000435 -0.000328 -0.001556 -0.001579
  4N   1dyz      -0.001714 -0.001946 -0.000715  0.001652  0.000479  0.000074
  4N   1dx2y2     0.003720  0.006086  0.000490 -0.009569 -0.011915 -0.010779
  4N   1dxy      -0.007681 -0.007107 -0.002991  0.002023 -0.006612 -0.007073
  5O   1s        -0.035203  0.047849 -0.021889  0.027771 -0.006213  0.015136
  5O   2s         0.082199 -0.110133  0.048818 -0.061996  0.012936 -0.036315
  5O   1pz       -0.001038 -0.006447 -0.007900 -0.009145  0.001653  0.006084
  5O   1px       -0.020886 -0.021023 -0.088452 -0.060637  0.009839  0.094617
  5O   1py        0.013339 -0.058722  0.014716 -0.041325  0.007706 -0.033229
  5O   3s         0.078275 -0.130403  0.070586 -0.098737  0.030500 -0.035548
  5O   2pz       -0.000263 -0.003407 -0.004090 -0.004280  0.000221  0.003702
  5O   2px       -0.014852 -0.009306 -0.043189 -0.032057  0.002911  0.056239
  5O   2py        0.016066 -0.033620  0.004366 -0.014224 -0.001552 -0.019393
  5O   1dz2       0.000887 -0.002328  0.001283 -0.001779  0.000731 -0.001275
  5O   1dxz       0.000222  0.000074  0.000264  0.000480 -0.000081 -0.000545
  5O   1dyz       0.000088  0.000882  0.000570  0.001010  0.000042 -0.000843
  5O   1dx2y2     0.001403 -0.004926 -0.000256 -0.002616 -0.000422  0.000371
  5O   1dxy       0.003154  0.002157  0.006880  0.005702  0.001156 -0.010533
  6O   1s         0.035200  0.047851 -0.021900 -0.027766 -0.006214 -0.015138
  6O   2s        -0.082189 -0.110135  0.048838  0.061985  0.012933  0.036313
  6O   1pz       -0.003019 -0.002723  0.010051 -0.002553 -0.000349  0.011156
  6O   1px       -0.020950  0.020752  0.088501 -0.060476 -0.009804  0.094768
  6O   1py       -0.012928 -0.059114  0.012926  0.042513  0.007906  0.031454
  6O   3s        -0.078282 -0.130434  0.070645  0.098735  0.030523  0.035575
  6O   2pz       -0.002701 -0.001814  0.004691 -0.001989 -0.000409  0.006664
  6O   2px       -0.014934  0.009139  0.043207 -0.032005 -0.002914  0.056328
  6O   2py       -0.015760 -0.033786  0.003483  0.014859 -0.001496  0.018319
  6O   1dz2      -0.000804 -0.002377  0.001092  0.001928  0.000701  0.001013
  6O   1dxz       0.000272 -0.000262 -0.000811  0.000414 -0.000258 -0.001099
  6O   1dyz       0.000521  0.000530 -0.000840  0.000082 -0.000175 -0.001078
  6O   1dx2y2    -0.001326 -0.004974 -0.000429  0.002754 -0.000450 -0.000619
  6O   1dxy       0.003164 -0.002095 -0.006832  0.005685 -0.001125 -0.010484
  7H   1s         0.000017 -0.145315  0.225362 -0.000023 -0.056899 -0.000001
  7H   2s         0.000010 -0.081758  0.110951 -0.000009 -0.006980  0.000002
  8H   1s         0.057202 -0.134341 -0.063623 -0.182495  0.129054 -0.050757
  8H   2s         0.018134 -0.067770 -0.018713 -0.093053  0.068792 -0.036734
  9H   1s         0.100332 -0.032938 -0.039558  0.075262 -0.195021  0.164259
  9H   2s         0.028566 -0.018752 -0.008358  0.029884 -0.091020  0.085158
 10H   1s        -0.057222 -0.134365 -0.063586  0.182533  0.129045  0.050740
 10H   2s        -0.018136 -0.067768 -0.018685  0.093051  0.068788  0.036734
 11H   1s        -0.100328 -0.032936 -0.039569 -0.075261 -0.195015 -0.164233
 11H   2s        -0.028584 -0.018775 -0.008387 -0.029875 -0.091041 -0.085185
                     18        19        20        21        22        23   
                  -0.44600  -0.40905  -0.40345  -0.39412  -0.27271  -0.27231
                   2.00000   2.00000   2.00000   2.00000   2.00000   2.00000
                  --------  --------  --------  --------  --------  --------
  0N   1s         0.000270  0.003741 -0.010208 -0.000201 -0.000973  0.019559
  0N   2s        -0.000616 -0.007554  0.022159  0.000485  0.001881 -0.039475
  0N   1pz        0.148840 -0.003941  0.007527 -0.220699  0.275161  0.011638
  0N   1px       -0.016424  0.012260  0.034771  0.021762 -0.024088 -0.048818
  0N   1py       -0.010203 -0.072551  0.068309  0.015187 -0.014407 -0.087631
  0N   3s        -0.001066 -0.028606  0.059611  0.000527  0.009485 -0.165557
  0N   2pz        0.100608 -0.003493  0.005307 -0.157353  0.225915  0.009110
  0N   2px       -0.011002 -0.019450  0.043779  0.015375 -0.019412 -0.045582
  0N   2py       -0.006821 -0.021954  0.021023  0.010778 -0.011767 -0.072866
  0N   1dz2       0.001701 -0.000291  0.000522 -0.001820  0.000140 -0.001419
  0N   1dxz       0.006359 -0.000605  0.000521 -0.006102 -0.001568 -0.000281
  0N   1dyz       0.004116  0.000889 -0.000714 -0.005067  0.001615  0.000682
  0N   1dx2y2    -0.000261 -0.008579  0.007202  0.000211  0.000566 -0.005184
  0N   1dxy      -0.000925  0.002736 -0.001340  0.000967 -0.000105  0.001233
  1C   1s        -0.000251 -0.042029  0.034771 -0.000040 -0.000234  0.003149
  1C   2s         0.000559  0.100371 -0.081309  0.000078  0.000415 -0.005183
  1C   1pz        0.268295  0.011892 -0.014027 -0.278771  0.025510 -0.001128
  1C   1px       -0.025400 -0.040847  0.039398  0.028108 -0.001768 -0.016167
  1C   1py       -0.019434  0.222819 -0.233934  0.021109 -0.002530  0.002408
  1C   3s         0.000808  0.102749 -0.029509  0.000362  0.001512 -0.023004
  1C   2pz        0.109086 -0.000284  0.002810 -0.132358  0.022736 -0.014440
  1C   2px       -0.010364  0.022833  0.007364  0.013245  0.005965 -0.136839
  1C   2py       -0.008546 -0.031894  0.031962  0.009736 -0.000131 -0.016682
  1C   1dz2       0.000568 -0.000060 -0.000600  0.000884 -0.003661  0.000063
  1C   1dxz       0.004491 -0.000636  0.001566  0.008561 -0.027847 -0.003248
  1C   1dyz      -0.001499  0.000728 -0.000269 -0.004789  0.009766 -0.004092
  1C   1dx2y2    -0.000529 -0.007532  0.010830 -0.001252  0.002949  0.011244
  1C   1dxy      -0.000335  0.001795  0.004491 -0.000153  0.003090 -0.032591
  2N   1s        -0.000057 -0.000005 -0.013303  0.000112  0.002648 -0.044201
  2N   2s         0.000134  0.000009  0.029800 -0.000218 -0.005604  0.093364
  2N   1pz        0.300841  0.010480  0.009421  0.000019 -0.472183 -0.017477
  2N   1px       -0.031654  0.115795  0.000239 -0.000031  0.046997  0.003164
  2N   1py       -0.023272 -0.001023  0.122351  0.000307  0.028440  0.141411
  2N   3s         0.000158  0.000058  0.088628 -0.000830 -0.020242  0.338113
  2N   2pz        0.203384  0.012248  0.001706  0.000026 -0.392030 -0.013637
  2N   2px       -0.020586  0.131393  0.000030 -0.000005  0.039032  0.002702
  2N   2py       -0.015769 -0.001209  0.022793  0.000365  0.022777  0.130578
  2N   1dz2       0.000567 -0.000089  0.001573  0.002618  0.000218  0.003444
  2N   1dxz      -0.000026 -0.000498  0.000913  0.015046 -0.000025  0.000039
  2N   1dyz       0.004384 -0.000655 -0.001160 -0.000273  0.002955 -0.000787
  2N   1dx2y2     0.000346 -0.000075  0.011995 -0.001488 -0.000172  0.006506
  2N   1dxy      -0.000549 -0.006400 -0.000121 -0.001151 -0.000280 -0.000048
  3C   1s         0.000342  0.042058  0.034735 -0.000022 -0.000108  0.003153
  3C   2s        -0.000759 -0.100439 -0.081223  0.000053  0.000107 -0.005187
  3C   1pz        0.268098 -0.022373 -0.022468  0.278715  0.025227  0.004872
  3C   1px       -0.025338 -0.041946 -0.040426 -0.028033 -0.003899  0.015803
  3C   1py       -0.022211 -0.222012 -0.232899 -0.021727 -0.001528  0.001913
  3C   3s        -0.000933 -0.102784 -0.029442  0.000391  0.001448 -0.023086
  3C   2pz        0.109103  0.004818  0.002155  0.132283  0.020971  0.014549
  3C   2px       -0.010335  0.023005 -0.007216 -0.013055 -0.010233  0.136539
  3C   2py       -0.008496  0.031430  0.032031 -0.011119 -0.001404 -0.019677
  3C   1dz2      -0.000942  0.000094 -0.000733  0.002137  0.005961  0.001655
  3C   1dxz      -0.004495  0.000906  0.000837  0.008505  0.027637  0.005112
  3C   1dyz      -0.001343 -0.000486 -0.001248  0.004475  0.008344  0.003337
  3C   1dx2y2     0.000324  0.007575  0.010704 -0.000522 -0.002872  0.011798
  3C   1dxy       0.000355  0.001599 -0.004781 -0.001175 -0.005037  0.032211
  4N   1s        -0.000434 -0.003749 -0.010205 -0.000395 -0.001527  0.019542
  4N   2s         0.000962  0.007571  0.022151  0.000935  0.003230 -0.039422
  4N   1pz        0.148678  0.007755  0.003342  0.220425  0.275229  0.005163
  4N   1px       -0.015881  0.012521 -0.034480 -0.020984 -0.028776  0.045514
  4N   1py       -0.013177  0.072252  0.068736 -0.019549 -0.018550 -0.087590
  4N   3s         0.001649  0.028635  0.059597  0.001038  0.010651 -0.165587
  4N   2pz        0.100471  0.000300 -0.001825  0.157145  0.225924  0.004458
  4N   2px       -0.010661 -0.019392 -0.043663 -0.014596 -0.023481  0.042901
  4N   2py       -0.009061  0.022289  0.021755 -0.014049 -0.015077 -0.072889
  4N   1dz2      -0.000601  0.000327  0.000537 -0.000485  0.000368 -0.001385
  4N   1dxz      -0.006398  0.000988  0.000720 -0.006143  0.001603 -0.000270
  4N   1dyz       0.004368 -0.000580 -0.000594  0.005315  0.001591  0.000779
  4N   1dx2y2     0.000913  0.008636  0.007215  0.001004  0.000311 -0.005204
  4N   1dxy       0.000076  0.002539  0.001178 -0.000001 -0.000193 -0.001166
  5O   1s         0.000157  0.068531 -0.062288  0.000098  0.000183 -0.003172
  5O   2s        -0.000373 -0.157881  0.143669 -0.000206 -0.000474  0.008744
  5O   1pz        0.177328 -0.019553  0.021599 -0.242539  0.135493 -0.042340
  5O   1px       -0.017251  0.063857 -0.039149  0.024509  0.010641 -0.417334
  5O   1py       -0.013720 -0.347869  0.353878  0.017183 -0.006400 -0.046718
  5O   3s        -0.000364 -0.241176  0.210356 -0.000457 -0.001030  0.012543
  5O   2pz        0.100285 -0.010121  0.012469 -0.141064  0.096070 -0.028728
  5O   2px       -0.009796  0.039184 -0.022713  0.014209  0.006703 -0.282305
  5O   2py       -0.007789 -0.188866  0.204462  0.010018 -0.004412 -0.034608
  5O   1dz2      -0.001588 -0.009178  0.008825  0.002185 -0.001100  0.000439
  5O   1dxz       0.002285  0.000014  0.000218 -0.001196 -0.001044  0.000576
  5O   1dyz      -0.015218  0.001924 -0.001888  0.018538 -0.007146  0.002024
  5O   1dx2y2    -0.001366 -0.013736  0.015177  0.001444 -0.000054 -0.005760
  5O   1dxy       0.001307 -0.002998  0.003227 -0.001800 -0.000230  0.017935
  6O   1s        -0.000183 -0.068584 -0.062228  0.000192  0.000184 -0.003169
  6O   2s         0.000424  0.157999  0.143533 -0.000435 -0.000547  0.008721
  6O   1pz        0.177331  0.035027  0.033500  0.242202  0.129826  0.052084
  6O   1px       -0.017205  0.065451  0.040712 -0.024598 -0.038312  0.415376
  6O   1py       -0.013834  0.346665  0.352470 -0.021167 -0.008367 -0.056186
  6O   3s         0.000503  0.241374  0.210142 -0.000674 -0.000336  0.012623
  6O   2pz        0.100291  0.019513  0.019360  0.140858  0.092186  0.035412
  6O   2px       -0.009779  0.040042  0.023616 -0.014309 -0.026374  0.280902
  6O   2py       -0.007814  0.188116  0.203655 -0.012298 -0.005922 -0.041062
  6O   1dz2      -0.002544  0.009074  0.008683 -0.002871 -0.000842 -0.000111
  6O   1dxz      -0.002123 -0.000490 -0.000296 -0.000983  0.001221 -0.002109
  6O   1dyz      -0.015108 -0.002744 -0.002869 -0.018436 -0.006918 -0.002071
  6O   1dx2y2    -0.001002  0.013657  0.015058 -0.001466 -0.000336 -0.006267
  6O   1dxy       0.001643 -0.003085 -0.003359  0.001976  0.001702 -0.017665
  7H   1s        -0.000048 -0.000037 -0.090327 -0.000249  0.004471 -0.075147
  7H   2s        -0.000082 -0.000031 -0.091742  0.000214  0.005816 -0.096689
  8H   1s        -0.000327  0.053986 -0.045676  0.000112 -0.002454  0.048834
  8H   2s        -0.000164  0.047757 -0.049972  0.000147 -0.003381  0.053204
  9H   1s         0.001032 -0.037760  0.012830 -0.000232  0.000608 -0.009084
  9H   2s         0.000560 -0.044321  0.025564 -0.000154 -0.001454  0.025067
 10H   1s         0.000287 -0.054028 -0.045637  0.000081 -0.003529  0.048800
 10H   2s         0.000013 -0.047801 -0.049926  0.000048 -0.002938  0.053255
 11H   1s        -0.001009  0.037768  0.012800 -0.000303  0.000224 -0.009093
 11H   2s        -0.000479  0.044329  0.025513 -0.000241 -0.001794  0.025054
                     24        25        26        27        28        29   
                  -0.26571  -0.26210  -0.24057   0.03422   0.03601   0.07433
                   2.00000   2.00000   2.00000   0.00000   0.00000   0.00000
                  --------  --------  --------  --------  --------  --------
  0N   1s        -0.000396 -0.000173 -0.029628 -0.000113  0.052454 -0.077486
  0N   2s         0.000978  0.000291  0.066687  0.000228 -0.089835  0.140156
  0N   1pz       -0.278196  0.340229  0.014751 -0.186823  0.011717 -0.018981
  0N   1px        0.027940 -0.032478  0.082006  0.018463  0.024853 -0.068061
  0N   1py        0.020083 -0.021990  0.083168  0.013853  0.128517 -0.144625
  0N   3s         0.001465  0.002792  0.192279  0.000234 -0.672287  0.997862
  0N   2pz       -0.254117  0.297152  0.009540 -0.239036  0.026664 -0.047174
  0N   2px        0.025137 -0.028368  0.042174  0.023846  0.070391 -0.192543
  0N   2py        0.017734 -0.018882  0.062810  0.018140  0.293009 -0.372010
  0N   1dz2       0.000022 -0.000192  0.001970  0.004915  0.004425 -0.002765
  0N   1dxz      -0.001457  0.000031 -0.000119  0.019039 -0.000930  0.000844
  0N   1dyz       0.002868 -0.002931 -0.000421  0.012685 -0.001029  0.000389
  0N   1dx2y2     0.000371 -0.000094  0.002222 -0.000951  0.001874  0.001340
  0N   1dxy      -0.000198  0.000265 -0.000427 -0.002758 -0.004155 -0.001146
  1C   1s         0.000049 -0.000130  0.001992  0.000128 -0.016496  0.006633
  1C   2s        -0.000103  0.000227 -0.004311 -0.000571  0.026464  0.000783
  1C   1pz        0.047042 -0.055137  0.000427  0.412613  0.000212  0.017995
  1C   1px       -0.004330  0.005611  0.002935 -0.041024  0.024157  0.084681
  1C   1py       -0.003307  0.003708 -0.003923 -0.029980 -0.020975  0.019621
  1C   3s         0.000170  0.000402  0.032248 -0.001413  0.044379  0.042533
  1C   2pz        0.066427 -0.041345  0.008238  0.401552 -0.000883  0.002573
  1C   2px       -0.006662  0.007598  0.129636 -0.040303 -0.005144 -0.056899
  1C   2py       -0.005475  0.003233 -0.062436 -0.029342  0.000173  0.004474
  1C   1dz2       0.004392 -0.005001  0.000553 -0.000523  0.003750 -0.002465
  1C   1dxz       0.001870 -0.008306  0.002260  0.011880  0.000773  0.000018
  1C   1dyz       0.031304 -0.027286  0.004251 -0.019946 -0.000758  0.000045
  1C   1dx2y2     0.002044 -0.001392 -0.005731 -0.002605  0.010636 -0.002079
  1C   1dxy      -0.003026  0.004163  0.039284  0.001154  0.004706 -0.002004
  2N   1s         0.000192  0.000939  0.000004  0.000294  0.064014  0.000014
  2N   2s        -0.000420 -0.001984 -0.000008 -0.000550 -0.115014 -0.000016
  2N   1pz       -0.146380 -0.000145  0.017657  0.000096  0.016944 -0.007409
  2N   1px        0.015132  0.000138  0.177370  0.000060  0.000511 -0.031837
  2N   1py        0.010846 -0.003271 -0.001793  0.001197  0.219256  0.000625
  2N   3s        -0.001340 -0.007513 -0.000008 -0.004167 -0.788318 -0.000184
  2N   2pz       -0.158473 -0.000181  0.023545  0.000260  0.040259 -0.007710
  2N   2px        0.016011 -0.000062  0.236983 -0.000584  0.000933 -0.017353
  2N   2py        0.011944 -0.003460 -0.002359  0.003858  0.520348  0.000630
  2N   1dz2       0.000888 -0.000170 -0.000043 -0.006869  0.005452 -0.000145
  2N   1dxz      -0.000038 -0.000798 -0.000210 -0.039667 -0.000789 -0.001245
  2N   1dyz       0.006570  0.000024 -0.000303  0.000731 -0.000762 -0.000950
  2N   1dx2y2     0.000501 -0.000028 -0.000037  0.003773  0.000588 -0.000129
  2N   1dxy      -0.000671  0.000047 -0.002699  0.003107  0.000057 -0.014750
  3C   1s        -0.000136 -0.000187 -0.001992  0.000070 -0.016502 -0.006655
  3C   2s         0.000366  0.000377  0.004310 -0.000530  0.026421 -0.000781
  3C   1pz        0.046986  0.055042  0.001101 -0.412402 -0.002346  0.012843
  3C   1px       -0.004288 -0.005260  0.002933  0.040037 -0.024377  0.084740
  3C   1py       -0.004274 -0.005087  0.003780  0.034298 -0.020673 -0.022453
  3C   3s        -0.000494  0.000248 -0.032290  0.001036  0.044932 -0.042080
  3C   2pz        0.066366  0.041280  0.017632 -0.401393  0.001571 -0.000363
  3C   2px       -0.007699 -0.007846  0.129953  0.040160  0.005088 -0.056610
  3C   2py       -0.004828 -0.003021  0.059794  0.031793 -0.000595 -0.004587
  3C   1dz2       0.004135  0.002475  0.000462  0.004814  0.003581  0.002364
  3C   1dxz      -0.002205 -0.008724  0.003891  0.011663  0.000042 -0.000238
  3C   1dyz       0.031279  0.027548  0.003177  0.019480 -0.001955 -0.000874
  3C   1dx2y2     0.002752  0.002898  0.006672  0.000499  0.010503  0.001974
  3C   1dxy      -0.002920 -0.002709  0.039101 -0.002943 -0.004862 -0.002008
  4N   1s         0.000487  0.000163  0.029621 -0.000526  0.052458  0.077516
  4N   2s        -0.001220 -0.000496 -0.066666  0.001034 -0.089808 -0.140188
  4N   1pz       -0.278049 -0.339542  0.002398  0.186773  0.008905  0.005848
  4N   1px        0.026922  0.031756  0.081539 -0.017522 -0.024343 -0.067697
[...]

# of grid points (after initial pruning)     ...   7170 (   0.0 sec)
# of grid points (after weights+screening)   ...   6834 (   0.0 sec)
nearest neighbour list constructed           ...    0.0 sec
Grid point re-assignment to atoms done       ...    0.0 sec
Grid point division into batches done        ...    0.0 sec
Reduced shell lists constructed in    0.1 sec

Total number of grid points                  ...     6834
Total number of batches                      ...      113
Average number of points per batch           ...       60
Average number of grid points per atom       ...      570
Average number of shells per batch           ...    39.41 (75.79%)
Average number of basis functions per batch  ...    84.87 (78.58%)
Average number of large shells per batch     ...    31.32 (79.46%)
Average number of large basis fcns per batch ...    67.70 (79.77%)
Maximum spatial batch extension              ...  15.56, 17.08, 32.14 au
Average spatial batch extension              ...   4.51,  4.91,  6.35 au


---------------
TD-DFT XC SETUP
---------------

DFT calculation                         ... on
Name of the grid file                   ... /Users/lailaal-madhagi/Desktop/Testing_XAS_Analysis_code/Biuret//Results_dir_Biuret_geom_element_N_2019-11-07_23-08-54//GTE1_Biuret_geom_2019-11-07_23-09-30//TDDFT_N-edge.grid_cis.tmp
Exchange functional (SCF)               ... B88
Exchange functional (TD-DFT)            ... B88
   X-Alpha parameter    XAlpha (SCF)    ...  0.666667
   X-Alpha parameter    XAlpha (TD-DFT) ...  0.666667
   Becke's b parameter  XBeta (SCF)     ...  0.004200
   Becke's b parameter  XBeta (TD-DFT)  ...  0.004200
Correlation functional (SCF)            ... LYP
Correlation functional (TD-DFT)         ... LYP
 LDA part of GGA corr.  LDAOpt (SCF)    ... VWN-5
 LDA part of GGA corr.  LDAOpt (TD-DFT) ... VWN-5
Hybrid DFT                              ... on
   Exchange mixing (SCF)                ...  0.200
   Exchange mixing (TD-DFT)             ...  0.200
   GGA exch. scaling(SCF)               ...  0.720
   GGA exch. scaling (TD-DFT)           ...  0.720
   GGA corr. scaling (SCF)              ...  0.810
   GGA corr. scaling (TD-DFT)           ...  0.810

Building densities             ... done
Calculating rho(r) on the grid ... done
Building xc-kernel on the grid ... done
                    *** TD-DFT CALCULATION INITIALIZED ***


------------------------
DAVIDSON-DIAGONALIZATION
------------------------

Dimension of the eigenvalue problem            ...    243
Number of roots to be determined               ...     20
Maximum size of the expansion space            ...    243
Maximum number of iterations                   ...    100
Convergence tolerance for the residual         ...    2.500e-07
Convergence tolerance for the energies         ...    2.500e-07
Orthogonality tolerance                        ...    1.000e-14
Level Shift                                    ...    0.000e+00
Constructing the preconditioner                ... o.k.
Building the initial guess                     ... o.k.
Number of trial vectors determined             ...    243


                       ****Iteration    0****

   Memory handling for direct AO based CIS:
   Memory per vector needed      ...     1 MB
   Memory needed                 ...    21 MB
   Memory available              ...   512 MB
   Number of vectors per batch   ...   512
   Number of batches             ...     1
   Time for densities:     0.009
   Using LibInt in JK Direct
   Time for J+K (Direct):    54.466
   Time for XC-Integration:     1.857
   Time for Sigma-Completion:     0.087
   Size of expansion space: 60
   Lowest Energy          :    14.326900101849
   Maximum Energy change  :    14.468139892353 (vector 19)
   Maximum residual norm  :     0.001120856210

                       ****Iteration    1****
   Time for densities:     0.003
   Using LibInt in JK Direct
   Time for J+K (Direct):    12.819
   Time for XC-Integration:     0.628
   Time for Sigma-Completion:     0.033
   Size of expansion space: 80
   Lowest Energy          :    14.326350367149
   Maximum Energy change  :     0.001530427371 (vector 8)
   Maximum residual norm  :     0.000001444863

                       ****Iteration    2****
   Time for densities:     0.003
   Using LibInt in JK Direct
   Time for J+K (Direct):    12.796
   Time for XC-Integration:     0.679
   Time for Sigma-Completion:     0.029
   Size of expansion space: 100
   Lowest Energy          :    14.326349631211
   Maximum Energy change  :     0.000001188658 (vector 10)
   Maximum residual norm  :     0.000000001946

      *** CONVERGENCE OF RESIDUAL NORM REACHED ***

Storing the converged CI vectors               ... /Users/lailaal-madhagi/Desktop/Testing_XAS_Analysis_code/Biuret//Results_dir_Biuret_geom_element_N_2019-11-07_23-08-54//GTE1_Biuret_geom_2019-11-07_23-09-30//TDDFT_N-edge.cis1

                 *** DAVIDSON DONE ***

Total time for solving the CIS problem:    83.858sec

------------------------------------
TD-DFT/TDA EXCITED STATES (SINGLETS)
------------------------------------

the weight of the individual excitations are printed if larger than 1.0e-02

STATE  1:  E=  14.326350 au    389.840 eV  3144270.3 cm**-1
     3a ->  30a  :     0.050085 (c=  0.22379721)
     4a ->  27a  :     0.921574 (c=  0.95998646)
     4a ->  30a  :     0.022104 (c= -0.14867550)

STATE  2:  E=  14.326373 au    389.840 eV  3144275.5 cm**-1
     3a ->  27a  :     0.921610 (c=  0.96000500)
     3a ->  30a  :     0.022128 (c=  0.14875419)
     4a ->  30a  :     0.050130 (c=  0.22389776)

STATE  3:  E=  14.333508 au    390.035 eV  3145841.4 cm**-1
     3a ->  28a  :     0.017743 (c=  0.13320443)
     3a ->  29a  :     0.121245 (c= -0.34820283)
     4a ->  28a  :     0.830380 (c=  0.91125184)
     4a ->  29a  :     0.017795 (c=  0.13339827)

STATE  4:  E=  14.333518 au    390.035 eV  3145843.5 cm**-1
     3a ->  28a  :     0.830223 (c=  0.91116568)
     3a ->  29a  :     0.017840 (c= -0.13356802)
     4a ->  28a  :     0.017721 (c= -0.13311892)
     4a ->  29a  :     0.121407 (c= -0.34843514)

STATE  5:  E=  14.342026 au    390.266 eV  3147710.8 cm**-1
     2a ->  27a  :     0.995075 (c=  0.99753447)

STATE  6:  E=  14.343246 au    390.300 eV  3147978.7 cm**-1
     2a ->  28a  :     0.944378 (c= -0.97179124)
     2a ->  31a  :     0.032488 (c= -0.18024401)
     2a ->  33a  :     0.014598 (c= -0.12082094)

STATE  7:  E=  14.380957 au    391.326 eV  3156255.1 cm**-1
     3a ->  28a  :     0.066447 (c= -0.25777377)
     3a ->  29a  :     0.036121 (c=  0.19005457)
     3a ->  31a  :     0.060545 (c= -0.24605953)
     4a ->  28a  :     0.053707 (c=  0.23174779)
     4a ->  29a  :     0.711051 (c= -0.84323857)
     4a ->  31a  :     0.049204 (c=  0.22181902)
     4a ->  32a  :     0.012699 (c=  0.11269080)

STATE  8:  E=  14.380976 au    391.326 eV  3156259.5 cm**-1
     3a ->  28a  :     0.053839 (c= -0.23203295)
     3a ->  29a  :     0.711274 (c= -0.84337081)
     3a ->  31a  :     0.048895 (c= -0.22112274)
     3a ->  32a  :     0.012603 (c=  0.11226307)
     4a ->  28a  :     0.066337 (c= -0.25756040)
     4a ->  29a  :     0.036160 (c= -0.19015899)
     4a ->  31a  :     0.060575 (c= -0.24612088)

STATE  9:  E=  14.391939 au    391.625 eV  3158665.5 cm**-1
     3a ->  28a  :     0.019890 (c= -0.14103196)
     3a ->  31a  :     0.318228 (c=  0.56411694)
     3a ->  33a  :     0.059341 (c= -0.24359997)
     4a ->  28a  :     0.010441 (c=  0.10217897)
     4a ->  29a  :     0.061632 (c= -0.24825834)
     4a ->  31a  :     0.166790 (c= -0.40839961)
     4a ->  32a  :     0.323519 (c= -0.56878771)
     4a ->  33a  :     0.031200 (c=  0.17663656)

STATE 10:  E=  14.391951 au    391.625 eV  3158668.1 cm**-1
     3a ->  28a  :     0.010374 (c= -0.10185449)
     3a ->  29a  :     0.061485 (c= -0.24796170)
     3a ->  31a  :     0.166528 (c=  0.40807885)
     3a ->  32a  :     0.323745 (c= -0.56898636)
     3a ->  33a  :     0.030917 (c= -0.17583304)
     4a ->  28a  :     0.019865 (c= -0.14094493)
     4a ->  31a  :     0.318400 (c=  0.56426970)
     4a ->  33a  :     0.059301 (c= -0.24351796)

STATE 11:  E=  14.395371 au    391.718 eV  3159418.7 cm**-1
     2a ->  30a  :     0.994842 (c=  0.99741744)

STATE 12:  E=  14.405009 au    391.980 eV  3161534.1 cm**-1
     2a ->  29a  :     0.993567 (c=  0.99677843)

STATE 13:  E=  14.407498 au    392.048 eV  3162080.3 cm**-1
     3a ->  27a  :     0.051564 (c= -0.22707701)
     4a ->  27a  :     0.020941 (c=  0.14470916)
     4a ->  30a  :     0.924037 (c=  0.96126823)

STATE 14:  E=  14.407516 au    392.048 eV  3162084.2 cm**-1
     3a ->  27a  :     0.020934 (c= -0.14468514)
     3a ->  30a  :     0.923891 (c=  0.96119237)
     4a ->  27a  :     0.051520 (c= -0.22698097)

STATE 15:  E=  14.427715 au    392.598 eV  3166517.5 cm**-1
     2a ->  28a  :     0.041920 (c= -0.20474396)
     2a ->  31a  :     0.908446 (c=  0.95312441)
     2a ->  33a  :     0.025027 (c=  0.15819874)
     2a ->  34a  :     0.021577 (c= -0.14689150)

STATE 16:  E=  14.438289 au    392.886 eV  3168838.2 cm**-1
     3a ->  29a  :     0.030472 (c=  0.17456118)
     3a ->  31a  :     0.244794 (c= -0.49476657)
     3a ->  32a  :     0.272555 (c= -0.52206835)
     3a ->  33a  :     0.155302 (c= -0.39408362)
     4a ->  31a  :     0.136428 (c= -0.36936179)
     4a ->  32a  :     0.053826 (c= -0.23200466)
     4a ->  33a  :     0.086936 (c= -0.29484849)

STATE 17:  E=  14.438297 au    392.886 eV  3168839.9 cm**-1
     3a ->  31a  :     0.136520 (c= -0.36948585)
     3a ->  32a  :     0.053683 (c=  0.23169659)
     3a ->  33a  :     0.086935 (c= -0.29484725)
     4a ->  29a  :     0.030402 (c=  0.17436214)
     4a ->  31a  :     0.244177 (c=  0.49414249)
     4a ->  32a  :     0.272184 (c= -0.52171262)
     4a ->  33a  :     0.156178 (c=  0.39519327)

STATE 18:  E=  14.463938 au    393.584 eV  3174467.5 cm**-1
     3a ->  32a  :     0.106610 (c=  0.32651216)
     3a ->  33a  :     0.113998 (c=  0.33763562)
     4a ->  31a  :     0.017516 (c=  0.13234733)
     4a ->  32a  :     0.201527 (c= -0.44891807)
     4a ->  33a  :     0.538943 (c= -0.73412748)

STATE 19:  E=  14.463967 au    393.585 eV  3174473.8 cm**-1
     3a ->  31a  :     0.017491 (c= -0.13225329)
     3a ->  32a  :     0.200651 (c= -0.44794101)
     3a ->  33a  :     0.540195 (c=  0.73497941)
     4a ->  32a  :     0.106047 (c= -0.32564878)
     4a ->  33a  :     0.114186 (c=  0.33791404)

STATE 20:  E=  14.468027 au    393.695 eV  3175365.0 cm**-1
     2a ->  32a  :     0.993267 (c= -0.99662764)


-----------------------------
TD-DFT/TDA-EXCITATION SPECTRA
-----------------------------

Center of mass = ( -2.1221,  1.4876, -0.0517)
Calculating the Dipole integrals                  ... done
Transforming integrals                            ... done
Calculating the Linear Momentum integrals         ... done
Transforming integrals                            ... done
Calculating angular momentum integrals            ... done
Transforming integrals                            ... done

-----------------------------------------------------------------------------
         ABSORPTION SPECTRUM VIA TRANSITION ELECTRIC DIPOLE MOMENTS
-----------------------------------------------------------------------------
State   Energy    Wavelength  fosc         T2        TX        TY        TZ  
        (cm-1)      (nm)                 (au**2)    (au)      (au)      (au) 
-----------------------------------------------------------------------------
   1 3144270.3      3.2   0.002285888   0.00024  -0.00131  -0.00195   0.01529
   2 3144275.5      3.2   0.019332884   0.00202   0.00429   0.00352  -0.04465
   3 3145841.4      3.2   0.018489672   0.00193  -0.00089   0.04381   0.00380
   4 3145843.5      3.2   0.000927999   0.00010   0.00857   0.00485   0.00045
   5 3147710.8      3.2   0.000090374   0.00001   0.00001   0.00307   0.00024
   6 3147978.7      3.2   0.016632127   0.00174  -0.00010  -0.04158  -0.00323
   7 3156255.1      3.2   0.005978033   0.00062   0.02446  -0.00474   0.00166
   8 3156259.5      3.2   0.002288055   0.00024   0.01262   0.00870   0.00196
   9 3158665.5      3.2   0.024241781   0.00253  -0.04647  -0.01820  -0.00602
  10 3158668.1      3.2   0.025364977   0.00264  -0.01796   0.04814   0.00197
  11 3159418.7      3.2   0.021474986   0.00224   0.00467   0.00353  -0.04694
  12 3161534.1      3.2   0.000173063   0.00002  -0.00380  -0.00013   0.00188
  13 3162080.3      3.2   0.003127521   0.00033   0.00142   0.00132  -0.01794
  14 3162084.2      3.2   0.000332306   0.00003   0.00030   0.00128  -0.00573
  15 3166517.5      3.2   0.007754758   0.00081   0.00009   0.02832   0.00207
  16 3168838.2      3.2   0.004243289   0.00044  -0.01630   0.01321  -0.00077
  17 3168839.9      3.2   0.005131347   0.00053  -0.02048  -0.01018  -0.00315
  18 3174467.5      3.2   0.001048749   0.00011  -0.00788   0.00684  -0.00002
  19 3174473.8      3.2   0.001197417   0.00012  -0.00963  -0.00547  -0.00121
  20 3175365.0      3.1   0.002972928   0.00031  -0.01745   0.00014  -0.00189

-----------------------------------------------------------------------------
         ABSORPTION SPECTRUM VIA TRANSITION VELOCITY DIPOLE MOMENTS
-----------------------------------------------------------------------------
State   Energy    Wavelength   fosc        P2         PX        PY        PZ  
        (cm-1)      (nm)                 (au**2)     (au)      (au)      (au) 
-----------------------------------------------------------------------------
   1 3144270.3      3.2   0.002203528   0.04735   0.01827   0.02746  -0.21509
   2 3144275.5      3.2   0.018635542   0.40047  -0.06017  -0.04950   0.62801
   3 3145841.4      3.2   0.018755580   0.40325   0.01315  -0.63252  -0.05468
   4 3145843.5      3.2   0.000973967   0.02094  -0.12647  -0.06999  -0.00691
   5 3147710.8      3.2   0.000090259   0.00194  -0.00010  -0.04393  -0.00341
   6 3147978.7      3.2   0.016715421   0.35963   0.00137   0.59789   0.04645
   7 3156255.1      3.2   0.006197318   0.13369  -0.35862   0.06686  -0.02467
   8 3156259.5      3.2   0.002318530   0.05001  -0.18497  -0.12245  -0.02835
   9 3158665.5      3.2   0.024249322   0.52349   0.66925   0.26093   0.08663
  10 3158668.1      3.2   0.025206046   0.54415   0.25865  -0.69026  -0.02803
  11 3159418.7      3.2   0.020641223   0.44571  -0.06598  -0.04982   0.66247
  12 3161534.1      3.2   0.000159812   0.00345   0.05226   0.00190  -0.02680
  13 3162080.3      3.2   0.002999952   0.06483  -0.02015  -0.01856   0.25315
  14 3162084.2      3.2   0.000319038   0.00689  -0.00417  -0.01838   0.08087
  15 3166517.5      3.2   0.007274438   0.15743  -0.00120  -0.39572  -0.02893
  16 3168838.2      3.2   0.004085274   0.08848   0.22807  -0.19067   0.01037
  17 3168839.9      3.2   0.004882631   0.10575   0.28660   0.14704   0.04454
  18 3174467.5      3.2   0.001079105   0.02341   0.11690  -0.09872   0.00065
  19 3174473.8      3.2   0.001243931   0.02699   0.14297   0.07891   0.01789
  20 3175365.0      3.1   0.003019778   0.06554   0.25451  -0.00208   0.02752

-------------------------------------------------------------------
                             CD SPECTRUM
-------------------------------------------------------------------
State  Energy     Wavelength     R         MX        MY        MZ   
       (cm-1)       (nm)     (1e40*cgs)   (au)      (au)      (au)  
-------------------------------------------------------------------
   1 3144270.3      3.2      0.37773  -0.18119  -1.36912  -0.13734
   2 3144275.5      3.2     -0.37961   0.51948  -0.47777   0.03029
   3 3145841.4      3.2     -0.50932  -0.01910  -0.03695   0.13729
   4 3145843.5      3.2      0.51744   0.13326   0.10735  -1.26430
   5 3147710.8      3.2      0.00351  -0.00001   0.00242   0.00017
   6 3147978.7      3.2     -0.00254   0.00031   0.00013   0.00005
   7 3156255.1      3.2      0.02396   0.00162   0.00787   0.02927
   8 3156259.5      3.2     -0.02604  -0.00178  -0.00657   0.01237
   9 3158665.5      3.2      0.02237   0.20070   0.15952  -2.03981
  10 3158668.1      3.2     -0.03497   0.07831   0.06006  -0.79303
  11 3159418.7      3.2      0.00939   0.38949  -0.00386   0.03806
  12 3161534.1      3.2      0.00117  -0.01579   0.00238  -0.03040
  13 3162080.3      3.2      0.18599   0.21322   0.17854   0.00803
  14 3162084.2      3.2     -0.18243   0.06811  -0.55312  -0.05295
  15 3166517.5      3.2      0.00026   0.00085   0.00001   0.00015
  16 3168838.2      3.2     -0.02119   0.05265   0.03168  -0.51288
  17 3168839.9      3.2      0.02136   0.06708   0.05909  -0.64123
  18 3174467.5      3.2     -0.00661  -0.01025  -0.01364   0.07747
  19 3174473.8      3.2      0.00663  -0.01127  -0.00386   0.09560
  20 3175365.0      3.1     -0.00009   0.01611   0.01133  -0.14796

Total run time:       84.158 sec

           *** ORCA-CIS/TD-DFT FINISHED WITHOUT ERROR ***

-----------------------
CIS/TD-DFT TOTAL ENERGY
-----------------------

    E(SCF)  =   -393.744175432 Eh
    DE(CIS) =     14.326349631 Eh (Root  1)
    ----------------------------- ---------
    E(tot)  =   -379.417825801 Eh


-------------------------   --------------------
FINAL SINGLE POINT ENERGY      -379.417825800911
-------------------------   --------------------


                            ***************************************
                            *     ORCA property calculations      *
                            ***************************************

                                    ---------------------
                                    Active property flags
                                    ---------------------
   (+) Dipole Moment


------------------------------------------------------------------------------
                       ORCA ELECTRIC PROPERTIES CALCULATION
------------------------------------------------------------------------------

Dipole Moment Calculation                       ... on
Quadrupole Moment Calculation                   ... off
Polarizability Calculation                      ... off
GBWName                                         ... /Users/lailaal-madhagi/Desktop/Testing_XAS_Analysis_code/Biuret//Results_dir_Biuret_geom_element_N_2019-11-07_23-08-54//GTE1_Biuret_geom_2019-11-07_23-09-30//TDDFT_N-edge.gbw
Electron density file                           ... /Users/lailaal-madhagi/Desktop/Testing_XAS_Analysis_code/Biuret//Results_dir_Biuret_geom_element_N_2019-11-07_23-08-54//GTE1_Biuret_geom_2019-11-07_23-09-30//TDDFT_N-edge.scfp.tmp
The origin for moment calculation is the CENTER OF MASS  = (-2.122128,  1.487593 -0.051690)

-------------
DIPOLE MOMENT
-------------
                                X             Y             Z
Electronic contribution:      0.00662       2.97414       0.23461
Nuclear contribution   :     -0.01265      -5.92441      -0.47106
                        -----------------------------------------
Total Dipole Moment    :     -0.00602      -2.95027      -0.23646
                        -----------------------------------------
Magnitude (a.u.)       :      2.95974
Magnitude (Debye)      :      7.52306



--------------------
Rotational spectrum 
--------------------
 
Rotational constants in cm-1:     0.198076     0.059822     0.045946 
Rotational constants in MHz :  5938.165368  1793.407914  1377.426286 

 Dipole components along the rotational axes: 
x,y,z [a.u.] :     0.000073     2.959735    -0.005581 
x,y,z [Debye]:     0.000184     7.523048    -0.014186 

 

Timings for individual modules:

Sum of individual times         ...      106.761 sec (=   1.779 min)
GTO integral calculation        ...        0.325 sec (=   0.005 min)   0.3 %
SCF iterations                  ...       21.776 sec (=   0.363 min)  20.4 %
CIS module                      ...       84.661 sec (=   1.411 min)  79.3 %
                             ****ORCA TERMINATED NORMALLY****
TOTAL RUN TIME: 0 days 0 hours 1 minutes 46 seconds 909 msec
