
                                 *****************
                                 * O   R   C   A *
                                 *****************

           --- An Ab Initio, DFT and Semiempirical electronic structure package ---

                  #######################################################
                  #                        -***-                        #
                  #          Department of theory and spectroscopy      #
                  #               Directorship: Frank Neese             #
                  #        Max Planck Institute fuer Kohlenforschung    #
                  #                Kaiser Wilhelm Platz 1               #
                  #                 D-45470 Muelheim/Ruhr               #
                  #                      Germany                        #
                  #                                                     #
                  #                  All rights reserved                #
                  #                        -***-                        #
                  #######################################################


                         Program Version 4.1.0  - RELEASE  -


 With contributions from (in alphabetic order):
   Daniel Aravena         : Magnetic Properties
   Michael Atanasov       : Ab Initio Ligand Field Theory
   Alexander A. Auer      : GIAO ZORA
   Ute Becker             : Parallelization
   Giovanni Bistoni       : ED, Open-shell LED
   Martin Brehm           : Molecular dynamics
   Dmytro Bykov           : SCF Hessian
   Vijay G. Chilkuri      : MRCI spin determinant printing
   Dipayan Datta          : RHF DLPNO-CCSD density
   Achintya Kumar Dutta   : EOM-CC, STEOM-CC
   Dmitry Ganyushin       : Spin-Orbit,Spin-Spin,Magnetic field MRCI
   Miquel Garcia          : C-PCM Hessian
   Yang Guo               : DLPNO-NEVPT2, CIM, IAO-localization
   Andreas Hansen         : Spin unrestricted coupled pair/coupled cluster methods
   Benjamin Helmich-Paris : CASSCF linear response (MC-RPA)
   Lee Huntington         : MR-EOM, pCC
   Robert Izsak           : Overlap fitted RIJCOSX, COSX-SCS-MP3, EOM
   Christian Kollmar      : KDIIS, OOCD, Brueckner-CCSD(T), CCSD density
   Simone Kossmann        : Meta GGA functionals, TD-DFT gradient, OOMP2, MP2 Hessian
   Martin Krupicka        : AUTO-CI
   Lucas Lang             : DCDCAS
   Dagmar Lenk            : GEPOL surface, SMD
   Dimitrios Liakos       : Extrapolation schemes; parallel MDCI
   Dimitrios Manganas     : ROCIS; embedding schemes
   Dimitrios Pantazis     : SARC Basis sets
   Taras Petrenko         : DFT Hessian,TD-DFT gradient, ASA, ECA, R-Raman, ABS, FL, XAS/XES, NRVS
   Peter Pinski           : DLPNO-MP2, DLPNO-MP2 Gradient
   Christoph Reimann      : Effective Core Potentials
   Marius Retegan         : Local ZFS, SOC
   Christoph Riplinger    : Optimizer, TS searches, QM/MM, DLPNO-CCSD(T), (RO)-DLPNO pert. Triples
   Tobias Risthaus        : Range-separated hybrids, TD-DFT gradient, RPA, STAB
   Michael Roemelt        : Restricted open shell CIS
   Masaaki Saitow         : Open-shell DLPNO
   Barbara Sandhoefer     : DKH picture change effects
   Avijit Sen             : IP-ROCIS
   Kantharuban Sivalingam : CASSCF convergence, NEVPT2, FIC-MRCI
   Bernardo de Souza      : ESD, SOC TD-DFT
   Georgi Stoychev        : AutoAux, RI-MP2 NMR
   Willem Van den Heuvel  : Paramagnetic NMR
   Boris Wezisla          : Elementary symmetry handling
   Frank Wennmohs         : Technical directorship


 We gratefully acknowledge several colleagues who have allowed us to
 interface, adapt or use parts of their codes:
   Stefan Grimme, W. Hujo, H. Kruse,             : VdW corrections, initial TS optimization,
                  C. Bannwarth                     DFT functionals, gCP, sTDA/sTD-DF
   Ed Valeev                                     : LibInt (2-el integral package), F12 methods
   Garnet Chan, S. Sharma, J. Yang, R. Olivares  : DMRG
   Ulf Ekstrom                                   : XCFun DFT Library
   Mihaly Kallay                                 : mrcc  (arbitrary order and MRCC methods)
   Andreas Klamt, Michael Diedenhofen            : otool_cosmo (COSMO solvation model)
   Jiri Pittner, Ondrej Demel                    : Mk-CCSD
   Frank Weinhold                                : gennbo (NPA and NBO analysis)
   Christopher J. Cramer and Donald G. Truhlar   : smd solvation model
   Lars Goerigk                                  : TD-DFT with DH, B97 family of functionals
   V. Asgeirsson, H. Jonsson                     : NEB implementation
   FAccTs GmbH                                   : IRC, NEB, NEB-TS, Multilevel


 Your calculation uses the libint2 library for the computation of 2-el integrals
 For citations please refer to: http://libint.valeyev.net

 This ORCA versions uses:
   CBLAS   interface :  Fast vector & matrix operations
   LAPACKE interface :  Fast linear algebra routines
   SCALAPACK package :  Parallel linear algebra routines




***************************************
The coordinates will be read from file: /Users/lailaal-madhagi/Desktop/Testing_XAS_Analysis_code/Borazine//Results_dir_Borazine_geom_element_N_2019-11-07_23-31-01//GTE1_Borazine_geom_2019-11-07_23-31-12//opt.xyz
***************************************


----- Orbital basis set information -----
Your calculation utilizes the basis: 6-31G*
   H-He, Li-Ne : W. J. Hehre, R. Ditchfield and J.A. Pople, J. Chem. Phys. 56, 2257 (1972).
                 Note: He and Ne are unpublished basis sets taken from the Gaussian program.
                 Note: Li and B from J. D. Dill and J. A. Pople, J. Chem. Phys. 62, 2921 (1975).
   Na - Ar     : M. M. Francl, W. J. Pietro, W. J. Hehre, J. S. Binkley, M. S. Gordon, 
                 D. J. DeFrees and J. A. Pople, J. Chem. Phys. 77, 3654 (1982).
   K - Zn      : V. A. Rassolov, J. A. Pople, M. A. Ratner, and T. L. Windus, J. Chem. Phys. 109, 1223 (1998).

================================================================================
                                        WARNINGS
                       Please study these warnings very carefully!
================================================================================

INFO   : Checking CIS options ...

WARNING: CIS/ROCIS methods need fully converged wavefunctions
  ===> : Setting SCFConvForced true
         You can overwrite this default with %scf ConvForced false 


INFO   : the flag for use of LIBINT has been found!

================================================================================
                                       INPUT FILE
================================================================================
NAME = /Users/lailaal-madhagi/Desktop/Testing_XAS_Analysis_code/Borazine//Results_dir_Borazine_geom_element_N_2019-11-07_23-31-01//GTE1_Borazine_geom_2019-11-07_23-31-12//TDDFT_N-edge.inp
|  1> #This is N K-edge calculation 
|  2> ! B3LYP 6-31G* TIGHTSCF Grid3 FinalGrid5 
|  3> !NormalPrint 
|  4> %output 
|  5> Print[P_Basis] 2 
|  6> Print[P_MOS] 1 
|  7> end 
|  8> 
|  9> %tddft 
| 10> orbwin[0]=0,2,-1,-1 
| 11> nroots=20 
| 12> maxdim=200 
| 13> end 
| 14> *xyzfile 0 1 /Users/lailaal-madhagi/Desktop/Testing_XAS_Analysis_code/Borazine//Results_dir_Borazine_geom_element_N_2019-11-07_23-31-01//GTE1_Borazine_geom_2019-11-07_23-31-12//opt.xyz                           ****END OF INPUT****
================================================================================

                       ****************************
                       * Single Point Calculation *
                       ****************************

---------------------------------
CARTESIAN COORDINATES (ANGSTROEM)
---------------------------------
  N     -2.541108    0.519209    0.042024
  B     -1.136848    0.798941    0.032736
  B     -3.067985   -0.812232    0.044124
  N     -2.123629   -1.888553    0.036428
  B     -0.707186   -1.679062    0.026912
  N     -0.247220   -0.323038    0.025309
  H     -4.247740   -1.016779    0.052000
  H     -3.189138    1.295938    0.047377
  H     -0.724152    1.922907    0.031114
  H      0.749420   -0.150173    0.018681
  H      0.059843   -2.598575    0.020637
  H     -2.472198   -2.838114    0.037759

----------------------------
CARTESIAN COORDINATES (A.U.)
----------------------------
  NO LB      ZA    FRAG     MASS         X           Y           Z
   0 N     7.0000    0    14.007   -4.801999    0.981163    0.079413
   1 B     5.0000    0    10.810   -2.148332    1.509780    0.061861
   2 B     5.0000    0    10.810   -5.797651   -1.534896    0.083382
   3 N     7.0000    0    14.007   -4.013076   -3.568848    0.068839
   4 B     5.0000    0    10.810   -1.336387   -3.172967    0.050857
   5 N     7.0000    0    14.007   -0.467177   -0.610453    0.047828
   6 H     1.0000    0     1.008   -8.027064   -1.921435    0.098266
   7 H     1.0000    0     1.008   -6.026597    2.448969    0.089529
   8 H     1.0000    0     1.008   -1.368450    3.633768    0.058796
   9 H     1.0000    0     1.008    1.416198   -0.283786    0.035301
  10 H     1.0000    0     1.008    0.113087   -4.910595    0.038998
  11 H     1.0000    0     1.008   -4.671776   -5.363259    0.071354

--------------------------------
INTERNAL COORDINATES (ANGSTROEM)
--------------------------------
 N      0   0   0     0.000000000000     0.00000000     0.00000000
 B      1   0   0     1.431880695149     0.00000000     0.00000000
 B      1   2   0     1.431900267549   122.85545685     0.00000000
 N      3   1   2     1.431899015823   117.14590632     0.00000000
 B      4   3   1     1.431882568182   122.85155009     0.00000000
 N      2   1   3     1.431897766580   117.14644664     0.00000000
 H      3   1   2     1.197381597745   121.42573618   179.99781011
 H      1   2   3     1.011572520726   118.57358808   179.99714242
 H      2   1   3     1.197339085980   121.42794517   179.99615760
 H      6   2   1     1.011541512063   118.57248224   179.99958690
 H      5   4   3     1.197445643890   121.42185983   179.99857233
 H      4   3   1     1.011518109474   118.57819230   179.99871738

---------------------------
INTERNAL COORDINATES (A.U.)
---------------------------
 N      0   0   0     0.000000000000     0.00000000     0.00000000
 B      1   0   0     2.705862370281     0.00000000     0.00000000
 B      1   2   0     2.705899356757   122.85545685     0.00000000
 N      3   1   2     2.705896991337   117.14590632     0.00000000
 B      4   3   1     2.705865909800   122.85155009     0.00000000
 N      2   1   3     2.705894630610   117.14644664     0.00000000
 H      3   1   2     2.262723297535   121.42573618   179.99781011
 H      1   2   3     1.911595028773   118.57358808   179.99714242
 H      2   1   3     2.262642961942   121.42794517   179.99615760
 H      6   2   1     1.911536430892   118.57248224   179.99958690
 H      5   4   3     2.262844327209   121.42185983   179.99857233
 H      4   3   1     1.911492206408   118.57819230   179.99871738

---------------------
BASIS SET INFORMATION
---------------------
There are 3 groups of distinct atoms

 Group   1 Type N   : 10s4p1d contracted to 3s2p1d pattern {631/31/1}
 Group   2 Type B   : 10s4p1d contracted to 3s2p1d pattern {631/31/1}
 Group   3 Type H   : 4s contracted to 2s pattern {31}

Atom   0N    basis set group =>   1
Atom   1B    basis set group =>   2
Atom   2B    basis set group =>   2
Atom   3N    basis set group =>   1
Atom   4B    basis set group =>   2
Atom   5N    basis set group =>   1
Atom   6H    basis set group =>   3
Atom   7H    basis set group =>   3
Atom   8H    basis set group =>   3
Atom   9H    basis set group =>   3
Atom  10H    basis set group =>   3
Atom  11H    basis set group =>   3

-------------------------
BASIS SET IN INPUT FORMAT
-------------------------

 # Basis set for element : H 
 NewGTO H 
 S 3 
   1      18.7311370000      0.0334945995
   2       2.8253937000      0.2347269467
   3       0.6401217000      0.8137573184
 S 1 
   1       0.1612778000      1.0000000000
  end;

 # Basis set for element : B 
 NewGTO B 
 S 6 
   1    2068.8823000000      0.0018663001
   2     310.6495700000      0.0142515011
   3      70.6830330000      0.0695516052
   4      19.8610800000      0.2325729174
   5       6.2993048000      0.4670787350
   6       2.1270270000      0.3634314273
 S 3 
   1       4.7279710000     -0.1303938072
   2       1.1903377000     -0.1307889072
   3       0.3594117000      1.1309444622
 P 3 
   1       4.7279710000      0.0745975998
   2       1.1903377000      0.3078466992
   3       0.3594117000      0.7434567980
 S 1 
   1       0.1267512000      1.0000000000
 P 1 
   1       0.1267512000      1.0000000000
 D 1 
   1       0.6000000000      1.0000000000
  end;

 # Basis set for element : N 
 NewGTO N 
 S 6 
   1    4173.5110000000      0.0018347994
   2     627.4579000000      0.0139949958
   3     142.9021000000      0.0685869792
   4      40.2343300000      0.2322409295
   5      12.8202100000      0.4690698576
   6       4.3904370000      0.3604548906
 S 3 
   1      11.6263580000     -0.1149610229
   2       2.7162800000     -0.1691180337
   3       0.7722180000      1.1458522281
 P 3 
   1      11.6263580000      0.0675800232
   2       2.7162800000      0.3239071114
   3       0.7722180000      0.7408952549
 S 1 
   1       0.2120313000      1.0000000000
 P 1 
   1       0.2120313000      1.0000000000
 D 1 
   1       0.8000000000      1.0000000000
  end;

------------------------------------------------------------------------------
                           ORCA GTO INTEGRAL CALCULATION
------------------------------------------------------------------------------

                         BASIS SET STATISTICS AND STARTUP INFO

 # of primitive gaussian shells          ...  114
 # of primitive gaussian functions       ...  186
 # of contracted shells                  ...   48
 # of contracted basis functions         ...   96
 Highest angular momentum                ...    2
 Maximum contraction depth               ...    6
 Integral package used                   ... LIBINT
 Integral threshhold            Thresh   ...  2.500e-11
 Primitive cut-off              TCut     ...  2.500e-12


------------------------------ INTEGRAL EVALUATION ----------------------------


 * One electron integrals 
 Pre-screening matrix                    ... done
 Shell pair data                         ... done (   0.001 sec)

-------------------------------------------------------------------------------
                                 ORCA SCF
-------------------------------------------------------------------------------

------------
SCF SETTINGS
------------
Hamiltonian:
 Density Functional     Method          .... DFT(GTOs)
 Exchange Functional    Exchange        .... B88
   X-Alpha parameter    XAlpha          ....  0.666667
   Becke's b parameter  XBeta           ....  0.004200
 Correlation Functional Correlation     .... LYP
 LDA part of GGA corr.  LDAOpt          .... VWN-5
 Gradients option       PostSCFGGA      .... off
 Hybrid DFT is turned on
   Fraction HF Exchange ScalHFX         ....  0.200000
   Scaling of DF-GGA-X  ScalDFX         ....  0.720000
   Scaling of DF-GGA-C  ScalDFC         ....  0.810000
   Scaling of DF-LDA-C  ScalLDAC        ....  1.000000
   Perturbative correction              ....  0.000000
   Density functional embedding theory  .... OFF
   NL short-range parameter             ....  4.800000


General Settings:
 Integral files         IntName         .... /Users/lailaal-madhagi/Desktop/Testing_XAS_Analysis_code/Borazine//Results_dir_Borazine_geom_element_N_2019-11-07_23-31-01//GTE1_Borazine_geom_2019-11-07_23-31-12//TDDFT_N-edge
 Hartree-Fock type      HFTyp           .... RHF
 Total Charge           Charge          ....    0
 Multiplicity           Mult            ....    1
 Number of Electrons    NEL             ....   42
 Basis Dimension        Dim             ....   96
 Nuclear Repulsion      ENuc            ....    197.5395796685 Eh

Convergence Acceleration:
 DIIS                   CNVDIIS         .... on
   Start iteration      DIISMaxIt       ....    12
   Startup error        DIISStart       ....  0.200000
   # of expansion vecs  DIISMaxEq       ....     5
   Bias factor          DIISBfac        ....   1.050
   Max. coefficient     DIISMaxC        ....  10.000
 Newton-Raphson         CNVNR           .... off
 SOSCF                  CNVSOSCF        .... on
   Start iteration      SOSCFMaxIt      ....   150
   Startup grad/error   SOSCFStart      ....  0.003300
 Level Shifting         CNVShift        .... on
   Level shift para.    LevelShift      ....    0.2500
   Turn off err/grad.   ShiftErr        ....    0.0010
 Zerner damping         CNVZerner       .... off
 Static damping         CNVDamp         .... on
   Fraction old density DampFac         ....    0.7000
   Max. Damping (<1)    DampMax         ....    0.9800
   Min. Damping (>=0)   DampMin         ....    0.0000
   Turn off err/grad.   DampErr         ....    0.1000
 Fernandez-Rico         CNVRico         .... off

SCF Procedure:
 Maximum # iterations   MaxIter         ....   125
 SCF integral mode      SCFMode         .... Direct
   Integral package                     .... LIBINT
 Reset frequency        DirectResetFreq ....    20
 Integral Threshold     Thresh          ....  2.500e-11 Eh
 Primitive CutOff       TCut            ....  2.500e-12 Eh

Convergence Tolerance:
 Convergence Check Mode ConvCheckMode   .... Total+1el-Energy
 Convergence forced     ConvForced      .... 1
 Energy Change          TolE            ....  1.000e-08 Eh
 1-El. energy change                    ....  1.000e-05 Eh
 Orbital Gradient       TolG            ....  1.000e-05
 Orbital Rotation angle TolX            ....  1.000e-05
 DIIS Error             TolErr          ....  5.000e-07


Diagonalization of the overlap matrix:
Smallest eigenvalue                        ... 6.979e-03
Time for diagonalization                   ...    0.001 sec
Threshold for overlap eigenvalues          ... 1.000e-08
Number of eigenvalues below threshold      ... 0
Time for construction of square roots      ...    0.002 sec
Total time needed                          ...    0.004 sec

-------------------
DFT GRID GENERATION
-------------------

General Integration Accuracy     IntAcc      ...  4.340
Radial Grid Type                 RadialGrid  ... Gauss-Chebyshev
Angular Grid (max. acc.)         AngularGrid ... Lebedev-194
Angular grid pruning method      GridPruning ... 3 (G Style)
Weight generation scheme         WeightScheme... Becke
Basis function cutoff            BFCut       ...    1.0000e-11
Integration weight cutoff        WCut        ...    1.0000e-14
Grids for H and He will be reduced by one unit

# of grid points (after initial pruning)     ...  29004 (   0.0 sec)
# of grid points (after weights+screening)   ...  27125 (   0.0 sec)
nearest neighbour list constructed           ...    0.0 sec
Grid point re-assignment to atoms done       ...    0.0 sec
Grid point division into batches done        ...    0.0 sec
Reduced shell lists constructed in    0.1 sec

Total number of grid points                  ...    27125
Total number of batches                      ...      430
Average number of points per batch           ...       63
Average number of grid points per atom       ...     2260
Average number of shells per batch           ...    36.88 (76.84%)
Average number of basis functions per batch  ...    77.09 (80.30%)
Average number of large shells per batch     ...    30.29 (82.13%)
Average number of large basis fcns per batch ...    63.39 (82.23%)
Maximum spatial batch extension              ...  23.75, 24.08, 36.18 au
Average spatial batch extension              ...   3.33,  3.50,  4.37 au

Time for grid setup =    0.179 sec

------------------------------
INITIAL GUESS: MODEL POTENTIAL
------------------------------
Loading Hartree-Fock densities                     ... done
Calculating cut-offs                               ... done
Setting up the integral package                    ... done
Initializing the effective Hamiltonian             ... done
Starting the Coulomb interaction                   ... done (   0.0 sec)
Reading the grid                                   ... done
Mapping shells                                     ... done
Starting the XC term evaluation                    ... done (   0.2 sec)
  promolecular density results
     # of electrons  =     41.997419877
     EX              =    -32.995678125
     EC              =     -1.372269980
     EX+EC           =    -34.367948105
Transforming the Hamiltonian                       ... done (   0.0 sec)
Diagonalizing the Hamiltonian                      ... done (   0.0 sec)
Back transforming the eigenvectors                 ... done (   0.0 sec)
Now organizing SCF variables                       ... done
                      ------------------
                      INITIAL GUESS DONE (   0.5 sec)
                      ------------------
--------------
SCF ITERATIONS
--------------
               ***  Starting incremental Fock matrix formation  ***

                         ----------------------------
                         !        ITERATION     0   !
                         ----------------------------
   Total Energy        :    -242.186680177295 Eh
   Energy Change       :    -242.186680177295 Eh
   MAX-DP              :       0.101753674299
   RMS-DP              :       0.004045450089
   Actual Damping      :       0.7000
   Actual Level Shift  :       0.2500 Eh
   Int. Num. El.       :    42.00014537 (UP=   21.00007268 DN=   21.00007268)
   Exchange            :   -27.51500290
   Correlation         :    -1.66284357


                         ----------------------------
                         !        ITERATION     1   !
                         ----------------------------
   Total Energy        :    -242.343635793581 Eh
   Energy Change       :      -0.156955616286 Eh
   MAX-DP              :       0.064906835497
   RMS-DP              :       0.002696614708
   Actual Damping      :       0.7000
   Actual Level Shift  :       0.2500 Eh
   Int. Num. El.       :    42.00015187 (UP=   21.00007593 DN=   21.00007593)
   Exchange            :   -27.15978043
   Correlation         :    -1.64984073

                               ***Turning on DIIS***

                         ----------------------------
                         !        ITERATION     2   !
                         ----------------------------
   Total Energy        :    -242.399534199556 Eh
   Energy Change       :      -0.055898405975 Eh
   MAX-DP              :       0.086999262373
   RMS-DP              :       0.003835061046
   Actual Damping      :       0.0000
   Actual Level Shift  :       0.2500 Eh
   Int. Num. El.       :    42.00015985 (UP=   21.00007993 DN=   21.00007993)
   Exchange            :   -26.94376452
   Correlation         :    -1.64135560
   DIIS-Error          :       0.039545147082


                         ----------------------------
                         !        ITERATION     3   !
                         ----------------------------
   Total Energy        :    -242.488269765477 Eh
   Energy Change       :      -0.088735565920 Eh
   MAX-DP              :       0.039980024567
   RMS-DP              :       0.001810786700
   Actual Damping      :       0.0000
   Actual Level Shift  :       0.2500 Eh
   Int. Num. El.       :    42.00017510 (UP=   21.00008755 DN=   21.00008755)
   Exchange            :   -26.67679477
   Correlation         :    -1.63001282
   DIIS-Error          :       0.072315264638
   DIIS coefficients:
      0.67022   0.32978


                         ----------------------------
                         !        ITERATION     4   !
                         ----------------------------
   Total Energy        :    -242.510340348175 Eh
   Energy Change       :      -0.022070582699 Eh
   MAX-DP              :       0.012835127813
   RMS-DP              :       0.000590580327
   Actual Damping      :       0.0000
   Actual Level Shift  :       0.2500 Eh
   Int. Num. El.       :    42.00017092 (UP=   21.00008546 DN=   21.00008546)
   Exchange            :   -26.80604742
   Correlation         :    -1.63526042
   DIIS-Error          :       0.013192004458
   DIIS coefficients:
      0.16409  -0.06624   0.90215

                      *** Initiating the SOSCF procedure ***
                           *** Shutting down DIIS ***
                      *** Re-Reading the Fockian *** 
                      *** Removing any level shift *** 

                         ----------------------------
                         !        ITERATION     5   !
                         ----------------------------
   Total Energy        :    -242.511350386697 Eh
   Energy Change       :      -0.001010038522 Eh
   MAX-DP              :       0.002745253422
   RMS-DP              :       0.000147760077
   Orbital gradient    :       0.001232905748
   Orbital Rotation    :       0.001232905748
   Actual Damping      :       0.0000
   Int. Num. El.       :    42.00016716 (UP=   21.00008358 DN=   21.00008358)
   Exchange            :   -26.83189468
   Correlation         :    -1.63656253

               *** Restarting incremental Fock matrix formation ***

                         ----------------------------
                         !        ITERATION     6   !
                         ----------------------------
   Total Energy        :    -242.511411191576 Eh
   Energy Change       :      -0.000060804879 Eh
   MAX-DP              :       0.001379234860
   RMS-DP              :       0.000075325352
   Orbital gradient    :       0.000440790542
   Orbital Rotation    :       0.001467284433
   Actual Damping      :       0.0000
   Int. Num. El.       :    42.00016630 (UP=   21.00008315 DN=   21.00008315)
   Exchange            :   -26.83875392
   Correlation         :    -1.63680376


                         ----------------------------
                         !        ITERATION     7   !
                         ----------------------------
   Total Energy        :    -242.511419173297 Eh
   Energy Change       :      -0.000007981721 Eh
   MAX-DP              :       0.000472194965
   RMS-DP              :       0.000024320225
   Orbital gradient    :       0.000160891005
   Orbital Rotation    :       0.000340550060
   Actual Damping      :       0.0000
   Int. Num. El.       :    42.00016565 (UP=   21.00008282 DN=   21.00008282)
   Exchange            :   -26.84012312
   Correlation         :    -1.63687636


                         ----------------------------
                         !        ITERATION     8   !
                         ----------------------------
   Total Energy        :    -242.511419429389 Eh
   Energy Change       :      -0.000000256092 Eh
   MAX-DP              :       0.000204200099
   RMS-DP              :       0.000009508461
   Orbital gradient    :       0.000127677558
   Orbital Rotation    :       0.000082506055
   Actual Damping      :       0.0000
   Int. Num. El.       :    42.00016555 (UP=   21.00008278 DN=   21.00008278)
   Exchange            :   -26.83914576
   Correlation         :    -1.63682416


                         ----------------------------
                         !        ITERATION     9   !
                         ----------------------------
   Total Energy        :    -242.511419806580 Eh
   Energy Change       :      -0.000000377191 Eh
   MAX-DP              :       0.000087490146
   RMS-DP              :       0.000004434254
   Orbital gradient    :       0.000046659526
   Orbital Rotation    :       0.000089977472
   Actual Damping      :       0.0000
   Int. Num. El.       :    42.00016562 (UP=   21.00008281 DN=   21.00008281)
   Exchange            :   -26.83970233
   Correlation         :    -1.63684822


                         ----------------------------
                         !        ITERATION    10   !
                         ----------------------------
   Total Energy        :    -242.511419812382 Eh
   Energy Change       :      -0.000000005801 Eh
   MAX-DP              :       0.000038833190
   RMS-DP              :       0.000002261886
   Orbital gradient    :       0.000031739638
   Orbital Rotation    :       0.000047913252
   Actual Damping      :       0.0000
   Int. Num. El.       :    42.00016562 (UP=   21.00008281 DN=   21.00008281)
   Exchange            :   -26.83956545
   Correlation         :    -1.63684770

                  ***Gradient check signals convergence***
              ***Rediagonalizing the Fockian in SOSCF/NRSCF***

               *****************************************************
               *                     SUCCESS                       *
               *           SCF CONVERGED AFTER  11 CYCLES          *
               *****************************************************

Setting up the final grid:

General Integration Accuracy     IntAcc      ...  5.010
Radial Grid Type                 RadialGrid  ... Gauss-Chebyshev
Angular Grid (max. acc.)         AngularGrid ... Lebedev-434
Angular grid pruning method      GridPruning ... 3 (G Style)
Weight generation scheme         WeightScheme... Becke
Basis function cutoff            BFCut       ...    1.0000e-11
Integration weight cutoff        WCut        ...    1.0000e-14
Grids for H and He will be reduced by one unit

# of grid points (after initial pruning)     ... 103692 (   0.0 sec)
# of grid points (after weights+screening)   ...  96161 (   0.1 sec)
nearest neighbour list constructed           ...    0.0 sec
Grid point re-assignment to atoms done       ...    0.0 sec
Grid point division into batches done        ...    0.5 sec
Reduced shell lists constructed in    0.9 sec

Total number of grid points                  ...    96161
Total number of batches                      ...     1510
Average number of points per batch           ...       63
Average number of grid points per atom       ...     8013
Average number of shells per batch           ...    34.21 (71.26%)
Average number of basis functions per batch  ...    71.41 (74.39%)
Average number of large shells per batch     ...    27.49 (80.35%)
Average number of large basis fcns per batch ...    57.46 (80.47%)
Maximum spatial batch extension              ...  27.52, 28.06, 39.96 au
Average spatial batch extension              ...   2.25,  2.30,  2.63 au

Final grid set up in    1.0 sec
Final integration                            ... done (   0.6 sec)
Change in XC energy                          ...    -0.000031696
Integrated number of electrons               ...    41.999990163
Previous integrated no of electrons          ...    42.000165615

----------------
TOTAL SCF ENERGY
----------------

Total Energy       :         -242.51145153 Eh           -6599.07209 eV

Components:
Nuclear Repulsion  :          197.53957967 Eh            5375.32524 eV
Electronic Energy  :         -440.05103120 Eh          -11974.39733 eV
One Electron Energy:         -718.71297025 Eh          -19557.17419 eV
Two Electron Energy:          278.66193905 Eh            7582.77686 eV

Virial components:
Potential Energy   :         -483.63905521 Eh          -13160.48776 eV
Kinetic Energy     :          241.12760368 Eh            6561.41567 eV
Virial Ratio       :            2.00573907


DFT components:
N(Alpha)           :       20.999995081272 electrons
N(Beta)            :       20.999995081272 electrons
N(Total)           :       41.999990162543 electrons
E(X)               :      -26.839622727834 Eh       
E(C)               :       -1.636866562128 Eh       
E(XC)              :      -28.476489289963 Eh       
DFET-embed. en.    :        0.000000000000 Eh       

---------------
SCF CONVERGENCE
---------------

  Last Energy change         ...   -1.9693e-08  Tolerance :   1.0000e-08
  Last MAX-Density change    ...    1.6216e-06  Tolerance :   1.0000e-07
  Last RMS-Density change    ...    6.3611e-08  Tolerance :   5.0000e-09
  Last Orbital Gradient      ...    6.5696e-07  Tolerance :   1.0000e-05
  Last Orbital Rotation      ...    6.7328e-07  Tolerance :   1.0000e-05

             **** THE GBW FILE WAS UPDATED (/Users/lailaal-madhagi/Desktop/Testing_XAS_Analysis_code/Borazine//Results_dir_Borazine_geom_element_N_2019-11-07_23-31-01//GTE1_Borazine_geom_2019-11-07_23-31-12//TDDFT_N-edge.gbw) ****
             **** DENSITY FILE WAS UPDATED (/Users/lailaal-madhagi/Desktop/Testing_XAS_Analysis_code/Borazine//Results_dir_Borazine_geom_element_N_2019-11-07_23-31-01//GTE1_Borazine_geom_2019-11-07_23-31-12//TDDFT_N-edge.scfp.tmp) ****
             **** ENERGY FILE WAS UPDATED (/Users/lailaal-madhagi/Desktop/Testing_XAS_Analysis_code/Borazine//Results_dir_Borazine_geom_element_N_2019-11-07_23-31-01//GTE1_Borazine_geom_2019-11-07_23-31-12//TDDFT_N-edge.en.tmp) ****
----------------
ORBITAL ENERGIES
----------------

  NO   OCC          E(Eh)            E(eV) 
   0   2.0000     -14.305125      -389.2622 
   1   2.0000     -14.305106      -389.2617 
   2   2.0000     -14.305088      -389.2612 
   3   2.0000      -6.737218      -183.3290 
   4   2.0000      -6.737152      -183.3272 
   5   2.0000      -6.737117      -183.3263 
   6   2.0000      -0.884572       -24.0704 
   7   2.0000      -0.831517       -22.6267 
   8   2.0000      -0.831510       -22.6265 
   9   2.0000      -0.548947       -14.9376 
  10   2.0000      -0.520795       -14.1716 
  11   2.0000      -0.520779       -14.1711 
  12   2.0000      -0.431638       -11.7455 
  13   2.0000      -0.431635       -11.7454 
  14   2.0000      -0.427651       -11.6370 
  15   2.0000      -0.383236       -10.4284 
  16   2.0000      -0.357034        -9.7154 
  17   2.0000      -0.316677        -8.6172 
  18   2.0000      -0.316675        -8.6172 
  19   2.0000      -0.271786        -7.3957 
  20   2.0000      -0.271770        -7.3952 
  21   0.0000       0.028279         0.7695 
  22   0.0000       0.028292         0.7699 
  23   0.0000       0.091602         2.4926 
  24   0.0000       0.121485         3.3058 
  25   0.0000       0.121560         3.3078 
  26   0.0000       0.129109         3.5132 
  27   0.0000       0.173836         4.7303 
  28   0.0000       0.200171         5.4469 
  29   0.0000       0.200251         5.4491 
  30   0.0000       0.247817         6.7435 
  31   0.0000       0.275739         7.5032 
  32   0.0000       0.275938         7.5087 
  33   0.0000       0.291471         7.9313 
  34   0.0000       0.350089         9.5264 
  35   0.0000       0.350164         9.5284 
  36   0.0000       0.426045        11.5933 
  37   0.0000       0.464172        12.6308 
  38   0.0000       0.464417        12.6374 
  39   0.0000       0.482996        13.1430 
  40   0.0000       0.483080        13.1453 
  41   0.0000       0.506811        13.7910 
  42   0.0000       0.557634        15.1740 
  43   0.0000       0.557777        15.1779 
  44   0.0000       0.639836        17.4108 
  45   0.0000       0.685465        18.6524 
  46   0.0000       0.770576        20.9685 
  47   0.0000       0.770774        20.9738 
  48   0.0000       0.794272        21.6132 
  49   0.0000       0.794333        21.6149 
  50   0.0000       0.868988        23.6464 
  51   0.0000       0.869069        23.6486 
  52   0.0000       0.883781        24.0489 
  53   0.0000       0.890846        24.2412 
  54   0.0000       0.909492        24.7485 
  55   0.0000       0.909660        24.7531 
  56   0.0000       0.918438        24.9920 
  57   0.0000       1.035967        28.1901 
  58   0.0000       1.096814        29.8458 
  59   0.0000       1.099993        29.9323 
  60   0.0000       1.100308        29.9409 
  61   0.0000       1.124219        30.5915 
  62   0.0000       1.181145        32.1406 
  63   0.0000       1.253600        34.1122 
  64   0.0000       1.253624        34.1128 
  65   0.0000       1.298474        35.3333 
  66   0.0000       1.298782        35.3417 
  67   0.0000       1.364713        37.1357 
  68   0.0000       1.364741        37.1365 
  69   0.0000       1.374559        37.4036 
  70   0.0000       1.451277        39.4913 
  71   0.0000       1.451371        39.4938 
  72   0.0000       1.515117        41.2284 
  73   0.0000       1.756506        47.7969 
  74   0.0000       1.792307        48.7712 
  75   0.0000       1.792365        48.7727 
  76   0.0000       1.882990        51.2388 
  77   0.0000       1.883033        51.2399 
  78   0.0000       1.982951        53.9589 
  79   0.0000       1.983016        53.9606 
  80   0.0000       1.997051        54.3425 
  81   0.0000       1.997116        54.3443 
  82   0.0000       2.026884        55.1543 
  83   0.0000       2.157903        58.7195 
  84   0.0000       2.157926        58.7202 
  85   0.0000       2.165522        58.9268 
  86   0.0000       2.421933        65.9041 
  87   0.0000       2.421992        65.9058 
  88   0.0000       2.473579        67.3095 
  89   0.0000       2.488161        67.7063 
  90   0.0000       2.620289        71.3017 
  91   0.0000       2.620335        71.3029 
  92   0.0000       2.699202        73.4490 
  93   0.0000       2.699212        73.4493 
  94   0.0000       2.705837        73.6296 
  95   0.0000       3.174827        86.3914 
------------------
MOLECULAR ORBITALS
------------------
                      0         1         2         3         4         5   
                 -14.30512 -14.30511 -14.30509  -6.73722  -6.73715  -6.73712
                   2.00000   2.00000   2.00000   2.00000   2.00000   2.00000
                  --------  --------  --------  --------  --------  --------
  0N   1s        -0.218861  0.741736  0.626418  0.000041  0.000103  0.000042
  0N   2s        -0.007275  0.024503  0.020572  0.001318 -0.000776 -0.000410
  0N   1pz        0.000002 -0.000001 -0.000000 -0.000000  0.000000 -0.000003
  0N   1px       -0.000296  0.000073  0.000075  0.000034 -0.000108  0.000438
  0N   1py       -0.000021 -0.000317  0.000050  0.000007 -0.000229  0.000308
  0N   3s         0.004705 -0.017186 -0.015493 -0.009311  0.006259  0.003232
  0N   2pz       -0.000002  0.000010  0.000012  0.000024 -0.000020 -0.000036
  0N   2px        0.000226 -0.001177 -0.001481 -0.002873  0.001948  0.005491
  0N   2py       -0.000190  0.001461  0.001746  0.003884 -0.005639  0.001091
  0N   1dz2      -0.000039 -0.000058 -0.000200  0.000342 -0.001047 -0.000471
  0N   1dxz       0.000001  0.000000 -0.000003  0.000004 -0.000010 -0.000011
  0N   1dyz       0.000000 -0.000001 -0.000001  0.000001 -0.000002 -0.000001
  0N   1dx2y2    -0.000225 -0.000118  0.000116 -0.000000 -0.000231  0.000823
  0N   1dxy       0.000041  0.000131  0.000158 -0.000256  0.000628  0.000117
  1B   1s         0.000110  0.000058  0.000260  0.217507 -0.318967 -0.916850
  1B   2s        -0.000156 -0.000669  0.000858  0.009905 -0.013586 -0.037584
  1B   1pz       -0.000000 -0.000000  0.000000  0.000002 -0.000002 -0.000004
  1B   1px        0.000045  0.000020 -0.000058 -0.000449  0.000530  0.000976
  1B   1py        0.000016  0.000118 -0.000127 -0.001318  0.001261  0.002698
  1B   3s         0.004331  0.005621  0.003275 -0.001191  0.003004  0.010603
  1B   2pz       -0.000012  0.000017  0.000008  0.000014  0.000003 -0.000001
  1B   2px        0.001035 -0.003272 -0.001393 -0.003232  0.000217  0.000151
  1B   2py       -0.004465 -0.004520 -0.001699 -0.006993  0.004081 -0.000375
  1B   1dz2       0.000165  0.000105  0.000356 -0.000821  0.000817  0.001742
  1B   1dxz       0.000002  0.000006  0.000008 -0.000008  0.000012  0.000025
  1B   1dyz      -0.000007  0.000001 -0.000001  0.000002  0.000001 -0.000007
  1B   1dx2y2     0.000229 -0.000734 -0.000588 -0.000284 -0.000349 -0.000496
  1B   1dxy       0.000984 -0.000087  0.000160 -0.000065 -0.000295  0.000554
  2B   1s         0.000046  0.000019  0.000283  0.291765 -0.874649  0.373530
  2B   2s         0.001014  0.000046  0.000421  0.012922 -0.036163  0.014845
  2B   1pz       -0.000001  0.000000 -0.000000 -0.000011  0.000019 -0.000006
  2B   1px        0.000171 -0.000000  0.000062  0.001587 -0.002911  0.000830
  2B   1py        0.000029  0.000045  0.000008  0.000238 -0.000540  0.000092
  2B   3s        -0.004318  0.000341  0.006505 -0.002086  0.009699 -0.004945
  2B   2pz        0.000030  0.000005 -0.000035 -0.000047  0.000016  0.000027
  2B   2px       -0.004472 -0.000266  0.005162  0.007215 -0.002231 -0.003893
  2B   2py       -0.000832  0.003012  0.000698  0.001957  0.000281  0.000336
  2B   1dz2       0.000038  0.000027  0.000403 -0.000951  0.001790 -0.000517
  2B   1dxz       0.000002 -0.000004 -0.000000 -0.000013  0.000017 -0.000005
  2B   1dyz       0.000001  0.000006 -0.000004  0.000003 -0.000004  0.000005
  2B   1dx2y2    -0.000273  0.000408  0.000758  0.000187  0.000641 -0.000312
  2B   1dxy      -0.000077 -0.000998  0.000345 -0.000210 -0.000032 -0.000508
  3N   1s        -0.193039 -0.662548  0.717103 -0.000059  0.000008 -0.000102
  3N   2s        -0.006422 -0.021904  0.023569  0.001319 -0.000774 -0.000407
  3N   1pz        0.000002 -0.000001 -0.000001  0.000002  0.000003 -0.000001
  3N   1px       -0.000287  0.000038  0.000083 -0.000272 -0.000469  0.000077
  3N   1py       -0.000068 -0.000326  0.000020  0.000020  0.000193 -0.000121
  3N   3s         0.004110  0.015212 -0.017585 -0.009937  0.005667  0.002335
  3N   2pz       -0.000001 -0.000002  0.000003  0.000026  0.000027 -0.000007
  3N   2px        0.000128  0.000513 -0.000880 -0.004678 -0.003166  0.000836
  3N   2py        0.000194  0.001490 -0.002353 -0.005737  0.004916 -0.000770
  3N   1dz2      -0.000041  0.000030 -0.000206  0.001012 -0.000413  0.000489
  3N   1dxz       0.000000  0.000000 -0.000004  0.000017 -0.000004  0.000007
  3N   1dyz       0.000001 -0.000001  0.000001 -0.000002  0.000006 -0.000003
  3N   1dx2y2    -0.000148  0.000027  0.000187 -0.000701 -0.000290 -0.000061
  3N   1dxy      -0.000180  0.000162 -0.000070  0.000087 -0.000736  0.000273
  4B   1s         0.000111 -0.000020  0.000265  0.925851  0.350597  0.097699
  4B   2s        -0.000182  0.000767  0.000766  0.038683  0.013617  0.003638
  4B   1pz       -0.000000  0.000001  0.000001  0.000018  0.000003  0.000001
  4B   1px        0.000051 -0.000068 -0.000089 -0.002195 -0.000334 -0.000077
  4B   1py       -0.000004  0.000116  0.000086  0.002626  0.000444 -0.000010
  4B   3s         0.004526 -0.004991  0.003960 -0.009727 -0.005065 -0.001622
  4B   2pz        0.000010 -0.000033  0.000019  0.000028 -0.000029 -0.000021
  4B   2px       -0.000692  0.004299 -0.002458 -0.003430  0.003438  0.002834
  4B   2py        0.004664 -0.002813  0.001515  0.004225 -0.004974 -0.001420
  4B   1dz2       0.000168 -0.000052  0.000366 -0.002061 -0.000355 -0.000034
  4B   1dxz      -0.000004 -0.000004  0.000007 -0.000025 -0.000003 -0.000004
  4B   1dyz       0.000003 -0.000003  0.000004  0.000001 -0.000003 -0.000001
  4B   1dx2y2     0.000778  0.000601 -0.000432  0.000114 -0.000103  0.000504
  4B   1dxy      -0.000629  0.000308 -0.000542  0.000473  0.000576  0.000120
  5N   1s         0.951470  0.036197  0.289598 -0.000049 -0.000071  0.000081
  5N   2s         0.031400  0.001187  0.009441  0.001319 -0.000773 -0.000411
  5N   1pz        0.000002 -0.000001 -0.000001  0.000000  0.000000  0.000002
  5N   1px       -0.000308  0.000053  0.000125  0.000014  0.000005 -0.000151
  5N   1py       -0.000048 -0.000290  0.000041  0.000300  0.000282  0.000400
  5N   3s        -0.022295 -0.000909 -0.007722 -0.009871  0.005178  0.003475
  5N   2pz       -0.000017 -0.000001 -0.000010 -0.000038  0.000018  0.000032
  5N   2px        0.002548  0.000129  0.001441  0.006209 -0.002227 -0.004135
  5N   2py        0.000441  0.000087  0.000246  0.003815  0.002201  0.003204
  5N   1dz2      -0.000113 -0.000014 -0.000179  0.000941  0.000112 -0.000732
  5N   1dxz      -0.000000  0.000001 -0.000001  0.000006 -0.000000 -0.000008
  5N   1dyz       0.000001 -0.000002  0.000001 -0.000001  0.000002  0.000007
  5N   1dx2y2    -0.000148 -0.000105 -0.000116  0.000669  0.000148 -0.000163
  5N   1dxy      -0.000059  0.000260 -0.000061 -0.000221 -0.000382 -0.000717
  6H   1s         0.000170 -0.000025 -0.000429 -0.000568  0.001525 -0.000610
  6H   2s        -0.001940  0.000084  0.001860  0.005031 -0.003103 -0.001466
  7H   1s         0.000018 -0.000299 -0.000441 -0.000259  0.000462  0.000214
  7H   2s        -0.000219  0.001455  0.001794 -0.000244 -0.000121 -0.000038
  8H   1s        -0.000247 -0.000279 -0.000273 -0.000442  0.000584  0.001576
  8H   2s         0.001476  0.002171  0.000584  0.005017 -0.002986 -0.001734
  9H   1s        -0.000432 -0.000028 -0.000312 -0.000479  0.000037  0.000309
  9H   2s         0.002011  0.000111  0.001152 -0.000057  0.000242 -0.000120
 10H   1s        -0.000256  0.000233 -0.000306 -0.001642 -0.000551 -0.000143
 10H   2s         0.001554 -0.002021  0.000854  0.005165 -0.002846 -0.001523
 11H   1s         0.000008  0.000240 -0.000476 -0.000504  0.000230 -0.000138
 11H   2s        -0.000169 -0.001220  0.001967 -0.000035  0.000077  0.000262
                      6         7         8         9        10        11   
                  -0.88457  -0.83152  -0.83151  -0.54895  -0.52079  -0.52078
                   2.00000   2.00000   2.00000   2.00000   2.00000   2.00000
                  --------  --------  --------  --------  --------  --------
  0N   1s         0.113763 -0.057340 -0.159493 -0.013870 -0.001550  0.010088
  0N   2s        -0.232223  0.119193  0.331519  0.029158  0.004347 -0.028255
  0N   1pz        0.000065 -0.000005  0.000230  0.001411  0.001495 -0.000573
  0N   1px       -0.008172  0.004462 -0.028907 -0.171096 -0.247519  0.059270
  0N   1py        0.009795  0.021389  0.025040  0.205096 -0.176723 -0.143911
  0N   3s        -0.233017  0.116759  0.324906  0.064329 -0.001529  0.009656
  0N   2pz        0.000010 -0.000018  0.000164  0.000579  0.000715 -0.000355
  0N   2px       -0.001234  0.005322 -0.021092 -0.070656 -0.118206  0.038367
  0N   2py        0.001502  0.016881  0.016916  0.084708 -0.081266 -0.080313
  0N   1dz2       0.007821 -0.003227 -0.008980 -0.003591 -0.000289  0.001864
  0N   1dxz       0.000093 -0.000062 -0.000098 -0.000042  0.000026  0.000026
  0N   1dyz      -0.000043  0.000022  0.000060  0.000070  0.000007 -0.000051
  0N   1dx2y2     0.000711  0.003041 -0.002297 -0.001611 -0.004358  0.000548
  0N   1dxy       0.003897 -0.002729 -0.005628 -0.008847 -0.000249  0.006667
  1B   1s         0.069412 -0.052864 -0.009539  0.038402  0.141374 -0.054974
  1B   2s        -0.102334  0.082188  0.014833 -0.065816 -0.236496  0.092002
  1B   1pz       -0.000083 -0.000110  0.000908 -0.000142 -0.000255 -0.000590
  1B   1px        0.022424  0.008068 -0.125835  0.038512  0.039559  0.079001
  1B   1py        0.061057 -0.046756  0.038289  0.104880  0.009164 -0.038205
  1B   3s        -0.022025  0.008257  0.001476 -0.044129 -0.122563  0.047641
  1B   2pz        0.000015 -0.000012 -0.000040 -0.000031  0.000071 -0.000106
  1B   2px       -0.004064  0.004169  0.005757  0.008379 -0.021732  0.019681
  1B   2py       -0.011196  0.014141  0.000804  0.023107 -0.071202  0.023514
  1B   1dz2       0.012063 -0.008030 -0.001445  0.005198  0.012970 -0.005046
  1B   1dxz       0.000173 -0.000118 -0.000105 -0.000025  0.000177 -0.000060
  1B   1dyz      -0.000042  0.000063 -0.000130  0.000040 -0.000032  0.000028
  1B   1dx2y2    -0.003806  0.002084  0.015702  0.011027 -0.003005 -0.000452
  1B   1dxy       0.003223 -0.007186  0.016757 -0.009343  0.001423 -0.002477
  2B   1s         0.069416  0.034679 -0.041009  0.038411 -0.118305 -0.094940
  2B   2s        -0.102319 -0.053920  0.063752 -0.065853  0.197838  0.158836
  2B   1pz        0.000427  0.000410 -0.000012  0.000735  0.000011 -0.000265
  2B   1px       -0.064086 -0.043969  0.016708 -0.110102  0.008315  0.027186
  2B   1py       -0.011112  0.095766  0.090358 -0.019080  0.060964 -0.069446
  2B   3s        -0.022039 -0.005344  0.006397 -0.044049  0.102769  0.082250
  2B   2pz       -0.000078 -0.000072  0.000068  0.000162  0.000427  0.000310
  2B   2px        0.011776  0.010229 -0.010769 -0.024116 -0.062479 -0.047668
  2B   2py        0.002019 -0.002293 -0.005243 -0.004114 -0.003640 -0.016980
  2B   1dz2       0.012061  0.005261 -0.006229  0.005194 -0.010862 -0.008708
  2B   1dxz       0.000113  0.000098  0.000006  0.000150 -0.000108 -0.000096
  2B   1dyz      -0.000041 -0.000132 -0.000063  0.000039  0.000021  0.000035
  2B   1dx2y2     0.004701 -0.002137 -0.009627 -0.013609 -0.003027 -0.001415
  2B   1dxy       0.001673  0.018128  0.012547 -0.004857  0.000488 -0.002449
  3N   1s         0.113790  0.166784  0.030093 -0.013881  0.009514 -0.003701
  3N   2s        -0.232205 -0.346597 -0.062528  0.029161 -0.026655  0.010408
  3N   1pz        0.000017 -0.000073  0.000113  0.000351  0.000576  0.002028
  3N   1px       -0.004404  0.016620 -0.014359 -0.092040 -0.056122 -0.287196
  3N   1py       -0.011977  0.035930  0.012859 -0.250777  0.169762  0.047420
  3N   3s        -0.233311 -0.339945 -0.061393  0.064510  0.009149 -0.003747
  3N   2pz        0.000003 -0.000055  0.000100  0.000145  0.000250  0.000965
  3N   2px       -0.000720  0.012189 -0.012962 -0.038052 -0.021128 -0.137568
  3N   2py       -0.001840  0.025111  0.010066 -0.103622  0.094504  0.016690
  3N   1dz2       0.007836  0.009402  0.001697 -0.003590  0.001754 -0.000680
  3N   1dxz       0.000070  0.000073  0.000027  0.000011 -0.000011  0.000021
  3N   1dyz      -0.000001  0.000000  0.000022 -0.000025  0.000028  0.000016
  3N   1dx2y2     0.003025  0.005173 -0.001503 -0.006850  0.003784 -0.004459
  3N   1dxy      -0.002566 -0.003520 -0.003504  0.005803 -0.005247 -0.001474
  4B   1s         0.069420  0.018169  0.050540  0.038402 -0.023072  0.149926
  4B   2s        -0.102327 -0.028285 -0.078565 -0.065806  0.038525 -0.250783
  4B   1pz       -0.000344 -0.000645 -0.000003 -0.000589 -0.000401 -0.000190
  4B   1px        0.041679  0.105462 -0.009471  0.071554  0.068755  0.026059
  4B   1py       -0.049920  0.069613 -0.059082 -0.085827  0.062110 -0.008956
  4B   3s        -0.021952 -0.002776 -0.007763 -0.044090  0.020095 -0.129932
  4B   2pz        0.000063  0.000048  0.000067 -0.000128 -0.000116  0.000404
  4B   2px       -0.007722 -0.007002 -0.007804  0.015742  0.016301 -0.049482
  4B   2py        0.009093  0.000560  0.012010 -0.018648 -0.002422  0.061486
  4B   1dz2       0.012054  0.002760  0.007664  0.005192 -0.002114  0.013743
  4B   1dxz       0.000144  0.000186  0.000037  0.000061 -0.000009  0.000166
  4B   1dyz       0.000011  0.000007  0.000027 -0.000111  0.000000 -0.000003
  4B   1dx2y2    -0.000886 -0.021951  0.006694  0.002578 -0.002189 -0.000931
  4B   1dxy      -0.004911  0.001817 -0.007280  0.014217  0.000922 -0.003295
  5N   1s         0.113768 -0.109470  0.129395 -0.013879 -0.007961 -0.006397
  5N   2s        -0.232191  0.227488 -0.268914  0.029148  0.022296  0.017902
  5N   1pz       -0.000086 -0.000136  0.000226 -0.001753 -0.001213 -0.000064
  5N   1px        0.012575  0.023139 -0.032172  0.263151  0.148257  0.051764
  5N   1py        0.002179  0.018119  0.006344  0.045644 -0.169165  0.251845
  5N   3s        -0.233145  0.223173 -0.263695  0.064478 -0.007632 -0.006029
  5N   2pz       -0.000013 -0.000091  0.000166 -0.000726 -0.000660 -0.000096
  5N   2px        0.001910  0.015859 -0.022971  0.108681  0.082588  0.034572
  5N   2py        0.000317  0.014989  0.006434  0.018891 -0.077559  0.120355
  5N   1dz2       0.007831 -0.006173  0.007294 -0.003592 -0.001469 -0.001181
  5N   1dxz       0.000117 -0.000108  0.000108 -0.000097 -0.000040 -0.000051
  5N   1dyz      -0.000002  0.000016  0.000016 -0.000023 -0.000032  0.000009
  5N   1dx2y2    -0.003732  0.004794 -0.003737  0.008458  0.004041  0.005096
  5N   1dxy      -0.001337 -0.001279 -0.003882  0.003024  0.004305 -0.001733
  6H   1s        -0.012817 -0.008483  0.010034  0.013444  0.079540  0.063839
  6H   2s         0.001937  0.001207 -0.001481  0.004113  0.020734  0.016720
  7H   1s        -0.067693  0.043348  0.120584  0.156383  0.014349 -0.093132
  7H   2s        -0.000521  0.004724  0.013154  0.079119  0.007223 -0.047290
  8H   1s        -0.012817  0.012933  0.002332  0.013451 -0.095051  0.036969
  8H   2s         0.001912 -0.001836 -0.000373  0.004062 -0.024805  0.009668
  9H   1s        -0.067687  0.082748 -0.097820  0.156379  0.073497  0.058984
  9H   2s        -0.000472  0.009002 -0.010593  0.079041  0.037235  0.029954
 10H   1s        -0.012817 -0.004446 -0.012363  0.013444  0.015509 -0.100808
 10H   2s         0.001894  0.000526  0.001810  0.004196  0.003938 -0.026329
 11H   1s        -0.067703 -0.126085 -0.022752  0.156409 -0.087830  0.034165
 11H   2s        -0.000501 -0.013672 -0.002473  0.079073 -0.044487  0.017320
                     12        13        14        15        16        17   
                  -0.43164  -0.43164  -0.42765  -0.38324  -0.35703  -0.31668
                   2.00000   2.00000   2.00000   2.00000   2.00000   2.00000
                  --------  --------  --------  --------  --------  --------
  0N   1s         0.017703  0.035232  0.000019  0.024838  0.000002 -0.001842
  0N   2s        -0.040480 -0.080564 -0.000037 -0.057342 -0.000006  0.003022
  0N   1pz        0.000518  0.001984 -0.001389 -0.000138  0.275605  0.001166
  0N   1px       -0.044827 -0.250299  0.236014  0.015682  0.001892 -0.184737
  0N   1py        0.185010  0.233798  0.197156 -0.018777 -0.000302 -0.073202
  0N   3s        -0.043270 -0.086129 -0.000080 -0.075472  0.000008  0.029161
  0N   2pz        0.000162  0.000908 -0.000465 -0.000142  0.185813  0.000604
  0N   2px       -0.008903 -0.116542  0.079368  0.016118  0.001294 -0.095353
  0N   2py        0.091238  0.099188  0.066312 -0.019265 -0.000207 -0.032962
  0N   1dz2      -0.003057 -0.006090 -0.000003  0.000430 -0.000031 -0.000808
  0N   1dxz      -0.000008 -0.000086  0.000030  0.000004  0.002226  0.000018
  0N   1dyz       0.000044  0.000088 -0.000000 -0.000084 -0.002664  0.000065
  0N   1dx2y2    -0.004997  0.000107 -0.004210  0.002153  0.000013 -0.005423
  0N   1dxy      -0.004574 -0.010934  0.000763  0.011815 -0.000021 -0.008369
  1B   1s        -0.013959 -0.000809  0.000010 -0.072825 -0.000004 -0.002910
  1B   2s         0.021796  0.001247 -0.000027  0.117681  0.000004  0.002161
  1B   1pz       -0.000125 -0.001242  0.001712 -0.000246  0.158611 -0.001174
  1B   1px        0.041913  0.171863 -0.234867  0.062933  0.001088  0.170821
  1B   1py        0.144308 -0.053822  0.086240  0.171387 -0.000191  0.005549
  1B   3s         0.002702  0.000093  0.000031  0.125328 -0.000013  0.010197
  1B   2pz       -0.000088 -0.000069  0.000559 -0.000066  0.082015 -0.000275
  1B   2px        0.023566  0.009861 -0.077243  0.017231  0.000578  0.038247
  1B   2py        0.065989  0.000801  0.028459  0.046996 -0.000102 -0.010071
  1B   1dz2       0.000481  0.000031  0.000006 -0.003656  0.000034 -0.000145
  1B   1dxz      -0.000024  0.000118 -0.000061  0.000048 -0.005252  0.000081
  1B   1dyz      -0.000001  0.000202 -0.000103 -0.000049 -0.014272  0.000038
  1B   1dx2y2     0.004041 -0.021579  0.011188 -0.011753 -0.000052 -0.012535
  1B   1dxy      -0.000859 -0.025732  0.013187  0.009985 -0.000094 -0.003389
  2B   1s         0.007675 -0.011679 -0.000019 -0.072819 -0.000002  0.012818
  2B   2s        -0.011945  0.018194  0.000054  0.117600  0.000000 -0.009594
  2B   1pz       -0.000889  0.000597 -0.000571  0.001196  0.158584 -0.001971
  2B   1px        0.106979 -0.106721  0.042700 -0.179910  0.001085  0.286947
  2B   1py       -0.134148 -0.118773 -0.246680 -0.031181 -0.000191  0.000225
  2B   3s        -0.001412  0.002410 -0.000081  0.125511  0.000005 -0.045203
  2B   2pz       -0.000272  0.000377 -0.000190  0.000333  0.082117 -0.000148
  2B   2px        0.039362 -0.056798  0.014309 -0.049384  0.000549  0.018941
  2B   2py       -0.000954 -0.014738 -0.081160 -0.008527 -0.000089 -0.008946
  2B   1dz2      -0.000273  0.000390 -0.000000 -0.003657 -0.000173  0.000630
  2B   1dxz      -0.000111 -0.000039 -0.000058 -0.000137  0.014993  0.000194
  2B   1dyz       0.000165  0.000122  0.000105 -0.000045  0.002598  0.000128
  2B   1dx2y2     0.011346  0.003361  0.005831  0.014520  0.000106 -0.029496
  2B   1dxy      -0.025806 -0.018415 -0.016328  0.005202 -0.000000 -0.014028
  3N   1s        -0.039334 -0.002282 -0.000006  0.024828 -0.000000 -0.000542
  3N   2s         0.089987  0.005250  0.000041 -0.057365  0.000000  0.000875
  3N   1pz       -0.000543  0.000612  0.002106 -0.000036  0.275562  0.001899
  3N   1px        0.135986 -0.080455 -0.288753  0.008400  0.001893 -0.262393
  3N   1py        0.354593  0.053037  0.106083  0.022903 -0.000296  0.076932
  3N   3s         0.095761  0.005405 -0.000096 -0.075095  0.000006  0.008671
  3N   2pz       -0.000247  0.000380  0.000709 -0.000039  0.185806  0.000957
  3N   2px        0.061240 -0.050807 -0.097216  0.008770  0.001271 -0.131820
  3N   2py        0.156893  0.028992  0.035688  0.023681 -0.000195  0.037376
  3N   1dz2       0.006805  0.000399  0.000002  0.000426 -0.000008 -0.000240
  3N   1dxz       0.000010 -0.000016 -0.000015 -0.000067  0.001204  0.000033
  3N   1dyz       0.000031 -0.000026 -0.000026  0.000042  0.003257  0.000024
  3N   1dx2y2     0.008976  0.003488  0.002773  0.009165  0.000012 -0.005651
  3N   1dxy      -0.007951  0.003040  0.003268 -0.007773  0.000020 -0.002494
  4B   1s         0.006275  0.012480  0.000010 -0.072799 -0.000001 -0.009903
  4B   2s        -0.009870 -0.019422 -0.000069  0.117602 -0.000002  0.007375
  4B   1pz        0.001085  0.000339 -0.001139 -0.000964  0.158634 -0.001647
  4B   1px       -0.166699 -0.023941  0.192135  0.116921  0.001096  0.224164
  4B   1py       -0.051339  0.154742  0.160447 -0.140199 -0.000194 -0.097724
  4B   3s        -0.001138 -0.002336  0.000162  0.125201  0.000008  0.035002
  4B   2pz        0.000199  0.000311 -0.000378 -0.000262  0.081929 -0.000190
  4B   2px       -0.026556 -0.037209  0.063334  0.032559  0.000563  0.029633
  4B   2py        0.018887  0.050653  0.052615 -0.038690 -0.000119  0.007095
  4B   1dz2      -0.000212 -0.000434 -0.000003 -0.003638  0.000139 -0.000487
  4B   1dxz      -0.000212  0.000100  0.000121 -0.000041 -0.009753  0.000049
  4B   1dyz       0.000015  0.000021 -0.000002  0.000114  0.011667  0.000175
  4B   1dx2y2     0.029302 -0.015412 -0.017040 -0.002787 -0.000052 -0.011793
  4B   1dxy      -0.007013 -0.000481  0.003097 -0.015176  0.000089 -0.023396
  5N   1s         0.021647 -0.032935 -0.000012  0.024833  0.000001  0.002382
  5N   2s        -0.049534  0.075318  0.000018 -0.057346 -0.000005 -0.003896
  5N   1pz       -0.001193  0.002206 -0.000715  0.000155  0.275586  0.000725
  5N   1px        0.192468 -0.322024  0.052403 -0.024082  0.001893 -0.093556
  5N   1py        0.113277 -0.003241 -0.303052 -0.004145 -0.000303  0.069196
  5N   3s        -0.052672  0.080451  0.000065 -0.075317  0.000006 -0.037780
  5N   2pz       -0.000498  0.001005 -0.000241  0.000160  0.185943  0.000403
  5N   2px        0.083074 -0.144419  0.017613 -0.024869  0.001267 -0.052747
  5N   2py        0.063392  0.007284 -0.101964 -0.004291 -0.000210  0.033609
  5N   1dz2      -0.003746  0.005691  0.000002  0.000429  0.000040  0.001047
  5N   1dxz      -0.000071  0.000137 -0.000014  0.000078 -0.003425  0.000079
  5N   1dyz      -0.000038  0.000007  0.000026  0.000040 -0.000595  0.000049
  5N   1dx2y2     0.004916 -0.010303  0.001437 -0.011312 -0.000024 -0.010629
  5N   1dxy       0.005830 -0.001012 -0.004027 -0.004042 -0.000000 -0.005618
  6H   1s        -0.047767  0.072658  0.000036  0.180015  0.000007 -0.220054
  6H   2s        -0.030726  0.046853  0.000222  0.168702 -0.000001 -0.289158
  7H   1s         0.092838  0.184772  0.000097 -0.044298  0.000008  0.052312
  7H   2s         0.067748  0.134715  0.000143 -0.017631  0.000007  0.039079
  8H   1s         0.086833  0.005049 -0.000004  0.180013 -0.000010  0.049861
  8H   2s         0.055902  0.003223 -0.000044  0.168752 -0.000003  0.065617
  9H   1s         0.113621 -0.172807 -0.000085 -0.044264  0.000003 -0.067634
  9H   2s         0.082835 -0.125871 -0.000050 -0.017626  0.000001 -0.050573
 10H   1s        -0.039034 -0.077693 -0.000050  0.180012  0.000014  0.170188
 10H   2s        -0.025160 -0.050091 -0.000187  0.168545  0.000004  0.223505
 11H   1s        -0.206456 -0.011997 -0.000038 -0.044240 -0.000008  0.015331
 11H   2s        -0.150515 -0.008732  0.000012 -0.017593 -0.000010  0.011577
                     18        19        20        21        22        23   
                  -0.31668  -0.27179  -0.27177   0.02828   0.02829   0.09160
                   2.00000   2.00000   2.00000   0.00000   0.00000   0.00000
                  --------  --------  --------  --------  --------  --------
  0N   1s         0.001686  0.000001  0.000001  0.000001  0.000002 -0.054983
  0N   2s        -0.002764 -0.000002 -0.000006  0.000009  0.000001  0.108027
  0N   1pz        0.000648  0.247730  0.386038  0.054231 -0.230284  0.000610
  0N   1px       -0.121816  0.001695  0.002633  0.000381 -0.001577 -0.074638
  0N   1py       -0.175756 -0.000282 -0.000452 -0.000070  0.000261  0.089477
  0N   3s        -0.026700 -0.000006  0.000022 -0.000071 -0.000050  0.637040
  0N   2pz        0.000301  0.197824  0.308274  0.076154 -0.322871  0.001977
  0N   2px       -0.058119  0.001366  0.002125  0.000554 -0.002183 -0.238807
  0N   2py       -0.091086 -0.000224 -0.000363 -0.000083  0.000374  0.285378
  0N   1dz2       0.000741  0.000064 -0.000011  0.000264 -0.000036  0.001016
  0N   1dxz       0.000037 -0.005844  0.001673 -0.025151  0.001044  0.000010
  0N   1dyz      -0.000061 -0.002953  0.004394 -0.017817 -0.012571 -0.000102
  0N   1dx2y2    -0.002610 -0.000043  0.000017 -0.000192 -0.000006  0.002559
  0N   1dxy       0.009042 -0.000014  0.000029 -0.000094 -0.000088  0.014139
  1B   1s        -0.013128  0.000001 -0.000004  0.000009 -0.000004 -0.006451
  1B   2s         0.009882  0.000001  0.000009 -0.000020 -0.000003  0.070465
  1B   1pz       -0.000135 -0.079132  0.153316 -0.400461  0.120277 -0.000147
  1B   1px        0.066922 -0.000539  0.001061 -0.002747  0.000831  0.038420
  1B   1py        0.283901  0.000083 -0.000162  0.000449 -0.000143  0.104546
  1B   3s         0.046048  0.000000 -0.000014 -0.000072  0.000017  0.125763
  1B   2pz        0.000043 -0.045051  0.087291 -0.562929  0.169155 -0.000099
  1B   2px       -0.002078 -0.000305  0.000624 -0.003923  0.001178  0.022452
  1B   2py        0.019417  0.000021 -0.000103  0.000589 -0.000162  0.059700
  1B   1dz2      -0.000638  0.000296  0.000176 -0.000048 -0.000247 -0.001580
  1B   1dxz       0.000181 -0.022821 -0.015199  0.001686  0.020315 -0.000097
  1B   1dyz      -0.000134  0.012666 -0.002731 -0.013202 -0.003671  0.000051
  1B   1dx2y2    -0.023839 -0.000142 -0.000110 -0.000004  0.000135  0.010077
  1B   1dxy       0.023332  0.000111 -0.000003 -0.000091 -0.000048 -0.008558
  2B   1s         0.004047  0.000001 -0.000000  0.000001  0.000001 -0.006411
  2B   2s        -0.003006  0.000002  0.000002 -0.000002 -0.000016  0.070391
  2B   1pz       -0.000216  0.172335 -0.008114  0.304442  0.286595  0.000745
  2B   1px        0.061565  0.001187 -0.000046  0.002104  0.001974 -0.109791
  2B   1py        0.167713 -0.000196  0.000014 -0.000339 -0.000322 -0.019256
  2B   3s        -0.014150 -0.000000 -0.000001  0.000009  0.000077  0.125822
  2B   2pz        0.000061  0.098233 -0.004529  0.428133  0.402892  0.000416
  2B   2px       -0.001331  0.000655 -0.000036  0.002872  0.002734 -0.063015
  2B   2py        0.038879 -0.000110  0.000001 -0.000450 -0.000420 -0.012324
  2B   1dz2       0.000192 -0.000095  0.000120  0.000158  0.000033 -0.001583
  2B   1dxz       0.000101  0.008415 -0.005355 -0.011328 -0.005701  0.000061
  2B   1dyz      -0.000030  0.002839  0.028505  0.012798 -0.016676  0.000048
  2B   1dx2y2    -0.013180  0.000060 -0.000007 -0.000066 -0.000060 -0.012409
  2B   1dxy       0.006390  0.000010  0.000200  0.000104 -0.000107 -0.004506
  3N   1s        -0.002436 -0.000001  0.000001 -0.000001 -0.000002 -0.054936
  3N   2s         0.003989 -0.000000 -0.000002  0.000001 -0.000005  0.107896
  3N   1pz       -0.000267  0.210455 -0.407572 -0.226572  0.068011  0.000151
  3N   1px        0.028340  0.001446 -0.002811 -0.001559  0.000463 -0.040222
  3N   1py       -0.098028 -0.000232  0.000454  0.000254 -0.000080 -0.109319
  3N   3s         0.038607  0.000013 -0.000003  0.000017  0.000069  0.636267
  3N   2pz       -0.000117  0.168092 -0.325616 -0.317934  0.095652  0.000489
  3N   2px        0.012044  0.001159 -0.002238 -0.002201  0.000688 -0.128003
  3N   2py       -0.054824 -0.000188  0.000361  0.000370 -0.000126 -0.350853
  3N   1dz2      -0.001071  0.000082  0.000036  0.000084  0.000365  0.001028
  3N   1dxz       0.000055 -0.006751 -0.002439 -0.005035 -0.029431 -0.000075
  3N   1dyz      -0.000049  0.001143  0.003481  0.012666  0.007561  0.000050
  3N   1dx2y2    -0.008498 -0.000045 -0.000013 -0.000021 -0.000193  0.010986
  3N   1dxy       0.008821  0.000015  0.000027  0.000092  0.000086 -0.009272
  4B   1s         0.009065 -0.000001 -0.000002  0.000002 -0.000005 -0.006520
  4B   2s        -0.006767 -0.000001  0.000008 -0.000000  0.000028  0.070264
  4B   1pz        0.000524 -0.093142 -0.145284  0.095966 -0.407002 -0.000598
  4B   1px       -0.036364 -0.000639 -0.000991  0.000658 -0.002787  0.071473
  4B   1py        0.230382  0.000095  0.000164 -0.000111  0.000450 -0.085519
  4B   3s        -0.031966  0.000003 -0.000005 -0.000003 -0.000040  0.126938
  4B   2pz       -0.000068 -0.053088 -0.082543  0.135191 -0.572281 -0.000338
  4B   2px        0.014925 -0.000364 -0.000567  0.000899 -0.003889  0.041428
  4B   2py        0.028431  0.000070  0.000113 -0.000170  0.000740 -0.048038
  4B   1dz2       0.000443  0.000149 -0.000191 -0.000190  0.000073 -0.001580
  4B   1dxz       0.000057 -0.015717  0.016779  0.017670 -0.003906 -0.000021
  4B   1dyz      -0.000162 -0.019286  0.004379  0.011065  0.012347 -0.000088
  4B   1dx2y2    -0.003814 -0.000131  0.000119  0.000134 -0.000016  0.002326
  4B   1dxy       0.024087 -0.000117  0.000011  0.000057  0.000089  0.012946
  5N   1s         0.000754 -0.000001  0.000001 -0.000004  0.000005 -0.054815
  5N   2s        -0.001225  0.000006  0.000000  0.000010 -0.000009  0.107832
  5N   1pz       -0.000445 -0.458121  0.021498  0.172179  0.162174 -0.000759
  5N   1px        0.020552 -0.003152  0.000144  0.001182  0.001113  0.114424
  5N   1py       -0.266910  0.000546 -0.000031 -0.000195 -0.000187  0.019817
  5N   3s        -0.011955 -0.000020 -0.000014  0.000034 -0.000060  0.633850
  5N   2pz       -0.000210 -0.366034  0.017122  0.241520  0.227545 -0.002430
  5N   2px        0.008445 -0.002495  0.000118  0.001674  0.001548  0.366640
  5N   2py       -0.133901  0.000425 -0.000024 -0.000271 -0.000248  0.063933
  5N   1dz2       0.000329  0.000032  0.000029 -0.000175  0.000010  0.001036
  5N   1dxz       0.000045 -0.002750 -0.001167  0.011307  0.003236  0.000100
  5N   1dyz      -0.000022 -0.000116  0.007488 -0.020005  0.023892  0.000047
  5N   1dx2y2    -0.005367 -0.000019  0.000000  0.000056  0.000049 -0.013541
  5N   1dxy       0.003843  0.000003  0.000053 -0.000151  0.000159 -0.004849
  6H   1s        -0.069478 -0.000000 -0.000009 -0.000001 -0.000002 -0.001154
  6H   2s        -0.091381 -0.000012 -0.000014 -0.000040 -0.000040 -0.214881
  7H   1s        -0.047908  0.000006  0.000004  0.000002 -0.000001 -0.105840
  7H   2s        -0.035849  0.000006  0.000005  0.000033  0.000029 -0.947412
  8H   1s         0.225335 -0.000005  0.000010  0.000014 -0.000007 -0.001137
  8H   2s         0.296153  0.000007  0.000018  0.000075 -0.000032 -0.214530
  9H   1s        -0.021350 -0.000006 -0.000004  0.000004  0.000002 -0.105938
  9H   2s        -0.015953 -0.000006 -0.000008 -0.000015  0.000020 -0.946504
 10H   1s        -0.155817  0.000007  0.000002  0.000002 -0.000002 -0.001191
 10H   2s        -0.204720  0.000015  0.000013  0.000007  0.000040 -0.214959
 11H   1s         0.069233 -0.000003  0.000003  0.000000 -0.000000 -0.106096
 11H   2s         0.051805 -0.000003  0.000007 -0.000003  0.000001 -0.949020
                     24        25        26        27        28        29   
                   0.12149   0.12156   0.12911   0.17384   0.20017   0.20025
                   0.00000   0.00000   0.00000   0.00000   0.00000   0.00000
                  --------  --------  --------  --------  --------  --------
  0N   1s         0.075716 -0.014324  0.000023  0.057641 -0.034648 -0.036480
  0N   2s        -0.103602  0.019564 -0.000034 -0.070350  0.049496  0.052046
  0N   1pz       -0.001314  0.000346  0.279059  0.000196 -0.000461 -0.000642
  0N   1px        0.148460 -0.044161  0.001975 -0.019418  0.051317  0.078331
  0N   1py       -0.183987  0.021569 -0.000391  0.023407 -0.086459 -0.071231
  0N   3s        -1.261030  0.238887 -0.000382 -0.973430  0.605525  0.638368
  0N   2pz       -0.003400  0.000402  0.430709  0.001785 -0.001033 -0.001579
  0N   2px        0.394410 -0.033240  0.003048 -0.212577  0.117747  0.198185
  0N   2py       -0.455930  0.121369 -0.000680  0.255361 -0.219120 -0.169290
  0N   1dz2       0.006165 -0.001161  0.000120  0.020706 -0.004507 -0.004708
  0N   1dxz       0.000059 -0.000112 -0.008409  0.000243 -0.000050 -0.000054
  0N   1dyz      -0.000054  0.000012  0.010073 -0.000107  0.000139  0.000146
  0N   1dx2y2     0.003692  0.013563 -0.000048  0.001741 -0.003760 -0.003346
  0N   1dxy       0.005230 -0.003620  0.000079  0.009547 -0.018478 -0.019613
  1B   1s        -0.014377 -0.016529  0.000007 -0.078216 -0.025992  0.086645
  1B   2s         0.014431  0.016969  0.000001 -0.017198  0.032247 -0.108324
  1B   1pz        0.000473 -0.000161 -0.205083 -0.000133 -0.001240 -0.000081
  1B   1px       -0.065573  0.003827 -0.001433  0.030205  0.177621 -0.022083
  1B   1py       -0.056341 -0.095146  0.000204  0.082718 -0.001596 -0.204914
  1B   3s        -0.006181 -0.009372 -0.000142  1.572655  0.403785 -1.340905
  1B   2pz        0.002622 -0.002285 -0.532601 -0.000079 -0.006052 -0.001140
  1B   2px       -0.324229  0.320279 -0.003869 -0.014243  0.847316  0.108685
  1B   2py        0.180850 -0.045480  0.000592 -0.036507 -0.191480 -0.443746
  1B   1dz2       0.005728  0.006586  0.000031  0.009815  0.002164 -0.007344
  1B   1dxz       0.000091  0.000093 -0.005240  0.000073 -0.000062 -0.000071
  1B   1dyz      -0.000007 -0.000035 -0.014267  0.000003 -0.000131 -0.000048
  1B   1dx2y2    -0.003329 -0.001666 -0.000052  0.005315  0.015839 -0.000475
  1B   1dxy       0.000680  0.003271 -0.000091 -0.004511  0.015721  0.009119
  2B   1s        -0.007379  0.020609  0.000002 -0.077995  0.088202 -0.021393
  2B   2s         0.007323 -0.021292  0.000030 -0.017757 -0.109532  0.026306
  2B   1pz       -0.000098  0.000745 -0.204966  0.000552 -0.001413 -0.000060
  2B   1px        0.028616 -0.110645 -0.001396 -0.086110  0.207354 -0.019013
  2B   1py        0.058338 -0.000864  0.000255 -0.014411 -0.005146 -0.175517
  2B   3s         0.001376  0.012952 -0.000152  1.570747 -1.366906  0.332133
  2B   2pz        0.001427 -0.000221 -0.532494 -0.000254 -0.003052 -0.001410
  2B   2px       -0.105630  0.056460 -0.003636  0.037745  0.417336  0.059579
  2B   2py        0.445275  0.170419  0.000640  0.009103 -0.144396 -0.884145
  2B   1dz2       0.002813 -0.008236 -0.000169  0.009806 -0.007484  0.001870
  2B   1dxz       0.000015 -0.000075  0.014957  0.000162 -0.000112  0.000108
  2B   1dyz       0.000002  0.000036  0.002618  0.000006 -0.000040 -0.000137
  2B   1dx2y2     0.002045 -0.003714  0.000109 -0.006552  0.004206 -0.009056
  2B   1dxy      -0.001442 -0.002153  0.000001 -0.002325  0.007149  0.020733
  3N   1s        -0.050144 -0.058126 -0.000018  0.057552 -0.014411  0.048777
  3N   2s         0.068693  0.079562  0.000017 -0.070636  0.020527 -0.069897
  3N   1pz        0.000010  0.000335  0.278791  0.000053  0.000078  0.000221
  3N   1px       -0.039664 -0.075452  0.001910 -0.009672 -0.004933 -0.053084
  3N   1py       -0.152834 -0.166291 -0.000364 -0.026967  0.045604 -0.127733
  3N   3s         0.834479  0.967551  0.000322 -0.969838  0.252098 -0.851219
  3N   2pz        0.000649  0.000388  0.430813  0.000425  0.000265  0.000555
  3N   2px       -0.176242 -0.128203  0.002968 -0.111379 -0.021977 -0.133003
  3N   2py       -0.365063 -0.450349 -0.000593 -0.307428  0.115550 -0.313537
  3N   1dz2      -0.004021 -0.004694  0.000027  0.020627 -0.001881  0.006365
  3N   1dxz       0.000016 -0.000061 -0.004511  0.000188  0.000027 -0.000082
  3N   1dyz       0.000061 -0.000063 -0.012309 -0.000007 -0.000022  0.000083
  3N   1dx2y2    -0.009909  0.002618 -0.000047  0.007353 -0.006169  0.020027
  3N   1dxy      -0.005721  0.010007 -0.000081 -0.006175  0.004815 -0.017102
  4B   1s         0.021409 -0.004190  0.000010 -0.077706 -0.062337 -0.066204
  4B   2s        -0.022233  0.003517  0.000024 -0.017237  0.077021  0.082757
  4B   1pz       -0.000571 -0.000114 -0.204855 -0.000473 -0.001309 -0.000302
  4B   1px        0.080918  0.028115 -0.001376  0.055601  0.189178  0.005587
  4B   1py       -0.080691  0.051644  0.000192 -0.066332 -0.029288 -0.194104
  4B   3s         0.014722 -0.000042 -0.000140  1.562240  0.965601  1.024147
  4B   2pz        0.000238 -0.002264 -0.532660  0.000220 -0.004407  0.001378
  4B   2px        0.013429  0.374081 -0.003588 -0.022172  0.681385 -0.290710
  4B   2py        0.125370  0.290099  0.000690  0.033152  0.211526 -0.615955
  4B   1dz2      -0.008551  0.001649  0.000139  0.009896  0.005367  0.005692
  4B   1dxz      -0.000103  0.000006 -0.009692  0.000117 -0.000054  0.000177
  4B   1dyz      -0.000019  0.000004  0.011656 -0.000065 -0.000039 -0.000044
  4B   1dx2y2     0.001174  0.001983 -0.000057  0.001196  0.017316 -0.014877
  4B   1dxy       0.004239 -0.001284  0.000092  0.006803  0.001354  0.007584
  5N   1s        -0.025280  0.072735 -0.000015  0.057640  0.049220 -0.011569
  5N   2s         0.034644 -0.099659  0.000023 -0.070489 -0.070455  0.016582
  5N   1pz       -0.000669  0.001491  0.278898 -0.000165 -0.000907  0.000253
  5N   1px        0.081343 -0.222842  0.001951  0.029259  0.137343 -0.036227
  5N   1py       -0.005507 -0.045460 -0.000307  0.005170  0.029157  0.015082
  5N   3s         0.420637 -1.210345  0.000224 -0.973013 -0.859541  0.202418
  5N   2pz       -0.001367  0.003866  0.430816 -0.002143 -0.002245  0.000631
  5N   2px        0.191606 -0.575902  0.003048  0.325378  0.337083 -0.090895
  5N   2py        0.084728 -0.082747 -0.000429  0.056531  0.074616  0.049926
  5N   1dz2      -0.002025  0.005891 -0.000151  0.020672  0.006408 -0.001466
  5N   1dxz      -0.000086  0.000088  0.012927  0.000307  0.000238 -0.000058
  5N   1dyz       0.000079  0.000034  0.002233 -0.000009  0.000077 -0.000014
  5N   1dx2y2     0.006343 -0.003666  0.000095 -0.009099 -0.025056  0.006105
  5N   1dxy      -0.012039 -0.006267 -0.000004 -0.003246 -0.009116  0.001706
  6H   1s        -0.005196  0.014255  0.000006 -0.077247  0.059904 -0.014646
  6H   2s        -0.007519  0.017153  0.000094 -0.854153  1.222932 -0.295159
  7H   1s         0.066888 -0.012574  0.000029 -0.020538  0.064013  0.067562
  7H   2s         1.267374 -0.239894  0.000456 -0.046459  0.427468  0.451538
  8H   1s        -0.010053 -0.011469  0.000016 -0.077323 -0.017564  0.058719
  8H   2s        -0.012948 -0.013567  0.000146 -0.855990 -0.359267  1.200344
  9H   1s        -0.022583  0.064769 -0.000006 -0.020165 -0.090318  0.021492
  9H   2s        -0.425341  1.220635 -0.000218 -0.043289 -0.603404  0.143229
 10H   1s         0.014781 -0.003025  0.000008 -0.077025 -0.042495 -0.044883
 10H   2s         0.016643 -0.004601  0.000057 -0.849010 -0.864679 -0.914706
 11H   1s        -0.044818 -0.051898 -0.000011 -0.019597  0.026449 -0.088903
 11H   2s        -0.844060 -0.978340 -0.000247 -0.037070  0.176557 -0.593290
                     30        31        32        33        34        35   
                   0.24782   0.27574   0.27594   0.29147   0.35009   0.35016
                   0.00000   0.00000   0.00000   0.00000   0.00000   0.00000
                  --------  --------  --------  --------  --------  --------
  0N   1s         0.000171  0.012190  0.016708  0.027740 -0.018064 -0.027756
  0N   2s        -0.000185  0.006050  0.007734  0.008752  0.023147  0.035458
  0N   1pz        0.000703 -0.000374  0.001164  0.000650 -0.001261  0.000057
  0N   1px       -0.120638  0.083046 -0.167979 -0.079712  0.198786 -0.035558
  0N   1py       -0.099786  0.173334  0.001529  0.095537  0.079178 -0.163509
  0N   3s        -0.003883 -0.437380 -0.595307 -0.909661  0.423128  0.650455
  0N   2pz        0.003526 -0.001218  0.003408  0.004675 -0.006189  0.000124
  0N   2px       -0.602292  0.258709 -0.498724 -0.568625  0.963016 -0.152144
  0N   2py       -0.498962  0.517386 -0.006931  0.681247  0.364039 -0.803624
  0N   1dz2       0.000020 -0.000745 -0.001057  0.021670 -0.007530 -0.011615
  0N   1dxz       0.000198 -0.000128  0.000076  0.000262  0.000228 -0.000350
  0N   1dyz      -0.000004 -0.000034 -0.000053  0.000165 -0.000117 -0.000176
  0N   1dx2y2    -0.027895  0.018165 -0.011146 -0.005349 -0.042313  0.034914
  0N   1dxy       0.005143  0.002366  0.009937 -0.029454  0.026834  0.023107
  1B   1s         0.000043  0.049182 -0.005452  0.037038  0.099048 -0.005218
  1B   2s        -0.000324  0.029160 -0.003005 -0.274006 -0.020616  0.001274
  1B   1pz       -0.000208  0.000415  0.000683  0.000277 -0.000469  0.001650
  1B   1px        0.032774 -0.097144 -0.085898 -0.059356  0.117663 -0.229424
  1B   1py       -0.011901 -0.232749  0.061557 -0.160834  0.355890  0.063257
  1B   3s        -0.000619 -1.637451  0.178096  0.455680 -2.367688  0.123920
  1B   2pz        0.011201  0.002106  0.009009  0.001643 -0.002787  0.002880
  1B   2px       -1.535812 -0.405400 -1.225975 -0.443673  0.781706 -0.416393
  1B   2py        0.563885 -0.677340  0.544246 -1.208041  2.185797  0.022107
  1B   1dz2       0.000084 -0.002939  0.000389  0.005349 -0.024189  0.001293
  1B   1dxz       0.000005 -0.000099  0.000085  0.000104 -0.000386  0.000070
  1B   1dyz       0.000008  0.000059  0.000118 -0.000037  0.000118  0.000076
  1B   1dx2y2    -0.000795  0.007620 -0.014434 -0.005125  0.012506 -0.009636
  1B   1dxy      -0.000786 -0.009348 -0.014956  0.004312 -0.011411 -0.009913
  2B   1s        -0.000022 -0.019814  0.045093  0.037155 -0.044982  0.088365
  2B   2s         0.000701 -0.012234  0.027177 -0.274037  0.009035 -0.018130
  2B   1pz        0.000118  0.000829 -0.001403 -0.001122 -0.000655  0.002458
  2B   1px       -0.005590 -0.116315  0.220985  0.169390  0.131684 -0.348497
  2B   1py        0.035441  0.074295  0.080307  0.029217  0.237746  0.048992
  2B   3s         0.001644  0.661836 -1.506662  0.451422  1.076878 -2.112552
  2B   2pz       -0.003756  0.004943 -0.003464 -0.008437 -0.006083  0.013994
  2B   2px        0.283199 -0.519252  0.607254  1.266090  0.978368 -2.070262
  2B   2py       -1.605350  1.162847  0.659041  0.222413  0.531197 -0.175952
  2B   1dz2      -0.000068  0.001131 -0.002649  0.005398  0.011008 -0.021651
  2B   1dxz       0.000000 -0.000078  0.000008  0.000022  0.000040 -0.000187
  2B   1dyz      -0.000003  0.000097  0.000093 -0.000033  0.000028  0.000130
  2B   1dx2y2    -0.000360  0.010935 -0.007506  0.006299  0.011440 -0.012090
  2B   1dxy       0.000741 -0.016272 -0.011543  0.002241 -0.009041 -0.010967
  3N   1s        -0.000024 -0.020709  0.002306  0.027765  0.033091 -0.001751
  3N   2s         0.000050 -0.009588  0.000927  0.008288 -0.042468  0.002219
  3N   1pz       -0.001087 -0.000021  0.001499  0.000162  0.000256  0.001650
  3N   1px        0.146387  0.024104 -0.207587 -0.043453 -0.054025 -0.224728
  3N   1py       -0.053703  0.134285  0.060534 -0.116207 -0.110117  0.089354
  3N   3s        -0.000366  0.737312 -0.080664 -0.908185 -0.775199  0.041062
  3N   2pz       -0.005371 -0.000053  0.004536  0.001176  0.001218  0.007877
[...]
Correlation functional (SCF)            ... LYP
Correlation functional (TD-DFT)         ... LYP
 LDA part of GGA corr.  LDAOpt (SCF)    ... VWN-5
 LDA part of GGA corr.  LDAOpt (TD-DFT) ... VWN-5
Hybrid DFT                              ... on
   Exchange mixing (SCF)                ...  0.200
   Exchange mixing (TD-DFT)             ...  0.200
   GGA exch. scaling(SCF)               ...  0.720
   GGA exch. scaling (TD-DFT)           ...  0.720
   GGA corr. scaling (SCF)              ...  0.810
   GGA corr. scaling (TD-DFT)           ...  0.810

Building densities             ... done
Calculating rho(r) on the grid ... done
Building xc-kernel on the grid ... done
                    *** TD-DFT CALCULATION INITIALIZED ***


------------------------
DAVIDSON-DIAGONALIZATION
------------------------

Dimension of the eigenvalue problem            ...    225
Number of roots to be determined               ...     20
Maximum size of the expansion space            ...    225
Maximum number of iterations                   ...    100
Convergence tolerance for the residual         ...    2.500e-07
Convergence tolerance for the energies         ...    2.500e-07
Orthogonality tolerance                        ...    1.000e-14
Level Shift                                    ...    0.000e+00
Constructing the preconditioner                ... o.k.
Building the initial guess                     ... o.k.
Number of trial vectors determined             ...    225


                       ****Iteration    0****

   Memory handling for direct AO based CIS:
   Memory per vector needed      ...     1 MB
   Memory needed                 ...    16 MB
   Memory available              ...   512 MB
   Number of vectors per batch   ...   512
   Number of batches             ...     1
   Time for densities:     0.008
   Using LibInt in JK Direct
   Time for J+K (Direct):    43.531
   Time for XC-Integration:     1.809
   Time for Sigma-Completion:     0.069
   Size of expansion space: 60
   Lowest Energy          :    14.274108539010
   Maximum Energy change  :    14.432131547752 (vector 19)
   Maximum residual norm  :     0.000703715383

                       ****Iteration    1****
   Time for densities:     0.003
   Using LibInt in JK Direct
   Time for J+K (Direct):    13.876
   Time for XC-Integration:     0.613
   Time for Sigma-Completion:     0.024
   Size of expansion space: 80
   Lowest Energy          :    14.273876311125
   Maximum Energy change  :     0.000927856644 (vector 6)
   Maximum residual norm  :     0.000000383123

                       ****Iteration    2****
   Time for densities:     0.003
   Using LibInt in JK Direct
   Time for J+K (Direct):     9.834
   Time for XC-Integration:     0.608
   Time for Sigma-Completion:     0.024
   Size of expansion space: 100
   Lowest Energy          :    14.273876215547
   Maximum Energy change  :     0.000000656335 (vector 19)
   Maximum residual norm  :     0.000000002228

      *** CONVERGENCE OF RESIDUAL NORM REACHED ***

Storing the converged CI vectors               ... /Users/lailaal-madhagi/Desktop/Testing_XAS_Analysis_code/Borazine//Results_dir_Borazine_geom_element_N_2019-11-07_23-31-01//GTE1_Borazine_geom_2019-11-07_23-31-12//TDDFT_N-edge.cis1

                 *** DAVIDSON DONE ***

Total time for solving the CIS problem:    70.827sec

------------------------------------
TD-DFT/TDA EXCITED STATES (SINGLETS)
------------------------------------

the weight of the individual excitations are printed if larger than 1.0e-02

STATE  1:  E=  14.273876 au    388.412 eV  3132753.7 cm**-1
     0a ->  21a  :     0.027689 (c= -0.16640078)
     0a ->  22a  :     0.022277 (c= -0.14925623)
     1a ->  21a  :     0.399569 (c=  0.63211472)
     2a ->  21a  :     0.444228 (c=  0.66650406)
     2a ->  22a  :     0.105099 (c=  0.32419024)

STATE  2:  E=  14.273887 au    388.412 eV  3132756.1 cm**-1
     0a ->  21a  :     0.016400 (c=  0.12806347)
     1a ->  21a  :     0.146846 (c=  0.38320454)
     1a ->  22a  :     0.402175 (c=  0.63417306)
     2a ->  22a  :     0.433516 (c= -0.65841930)

STATE  3:  E=  14.273909 au    388.413 eV  3132760.8 cm**-1
     0a ->  21a  :     0.432344 (c= -0.65752875)
     0a ->  22a  :     0.492041 (c=  0.70145616)
     1a ->  21a  :     0.011789 (c=  0.10857856)
     1a ->  22a  :     0.027106 (c=  0.16463855)
     2a ->  21a  :     0.024607 (c= -0.15686495)
     2a ->  22a  :     0.011413 (c=  0.10683068)

STATE  4:  E=  14.274970 au    388.442 eV  3132993.7 cm**-1
     0a ->  22a  :     0.069024 (c=  0.26272474)
     1a ->  21a  :     0.212186 (c= -0.46063703)
     1a ->  22a  :     0.027954 (c= -0.16719335)
     1a ->  26a  :     0.037912 (c=  0.19471115)
     2a ->  21a  :     0.461100 (c=  0.67904358)
     2a ->  22a  :     0.179965 (c= -0.42422298)

STATE  5:  E=  14.274989 au    388.442 eV  3132997.9 cm**-1
     0a ->  21a  :     0.200505 (c=  0.44777829)
     0a ->  22a  :     0.088461 (c=  0.29742345)
     0a ->  26a  :     0.030885 (c=  0.17574010)
     1a ->  21a  :     0.066402 (c= -0.25768625)
     1a ->  22a  :     0.318537 (c=  0.56439041)
     2a ->  21a  :     0.040479 (c=  0.20119311)
     2a ->  22a  :     0.240610 (c=  0.49052003)

STATE  6:  E=  14.275048 au    388.444 eV  3133011.0 cm**-1
     0a ->  21a  :     0.294504 (c= -0.54268177)
     0a ->  22a  :     0.306113 (c= -0.55327508)
     0a ->  26a  :     0.010367 (c= -0.10181817)
     1a ->  21a  :     0.143215 (c= -0.37843780)
     1a ->  22a  :     0.198152 (c=  0.44514293)
     2a ->  26a  :     0.032215 (c= -0.17948454)

STATE  7:  E=  14.339462 au    390.197 eV  3147148.2 cm**-1
     0a ->  24a  :     0.016392 (c= -0.12803103)
     1a ->  23a  :     0.684110 (c= -0.82710948)
     1a ->  25a  :     0.063520 (c= -0.25203139)
     2a ->  23a  :     0.027129 (c=  0.16470778)
     2a ->  24a  :     0.147190 (c=  0.38365334)
     2a ->  25a  :     0.040036 (c=  0.20008919)

STATE  8:  E=  14.339493 au    390.197 eV  3147155.0 cm**-1
     0a ->  23a  :     0.351945 (c= -0.59324928)
     0a ->  25a  :     0.027010 (c=  0.16434786)
     1a ->  23a  :     0.026630 (c=  0.16318563)
     1a ->  24a  :     0.154757 (c= -0.39339138)
     2a ->  23a  :     0.337157 (c=  0.58065239)
     2a ->  24a  :     0.018198 (c= -0.13489893)
     2a ->  25a  :     0.063744 (c=  0.25247480)

STATE  9:  E=  14.339572 au    390.200 eV  3147172.2 cm**-1
     0a ->  23a  :     0.358918 (c=  0.59909779)
     0a ->  24a  :     0.026468 (c=  0.16269142)
     0a ->  25a  :     0.198079 (c= -0.44506097)
     1a ->  24a  :     0.038567 (c= -0.19638405)
     2a ->  23a  :     0.352730 (c=  0.59391063)

STATE 10:  E=  14.378126 au    391.249 eV  3155633.8 cm**-1
     0a ->  26a  :     0.070360 (c= -0.26525423)
     1a ->  22a  :     0.020540 (c=  0.14331863)
     1a ->  26a  :     0.671421 (c=  0.81940293)
     2a ->  22a  :     0.018856 (c=  0.13731538)
     2a ->  26a  :     0.212911 (c=  0.46142278)

STATE 11:  E=  14.378144 au    391.249 eV  3155637.8 cm**-1
     0a ->  26a  :     0.230273 (c=  0.47986791)
     1a ->  21a  :     0.016853 (c=  0.12982093)
     1a ->  26a  :     0.281174 (c=  0.53025880)
     2a ->  21a  :     0.021338 (c= -0.14607642)
     2a ->  26a  :     0.443320 (c= -0.66582292)

STATE 12:  E=  14.378159 au    391.250 eV  3155641.0 cm**-1
     0a ->  21a  :     0.021972 (c= -0.14823003)
     0a ->  22a  :     0.017883 (c= -0.13372704)
     0a ->  26a  :     0.654095 (c=  0.80876160)
     2a ->  26a  :     0.298610 (c=  0.54645176)

STATE 13:  E=  14.378594 au    391.261 eV  3155736.5 cm**-1
     0a ->  23a  :     0.044672 (c=  0.21135815)
     0a ->  24a  :     0.016958 (c=  0.13022421)
     0a ->  25a  :     0.030677 (c=  0.17514742)
     1a ->  23a  :     0.187605 (c= -0.43313425)
     1a ->  24a  :     0.274664 (c= -0.52408359)
     1a ->  25a  :     0.039983 (c=  0.19995710)
     2a ->  23a  :     0.041994 (c= -0.20492343)
     2a ->  24a  :     0.355632 (c= -0.59634852)

STATE 14:  E=  14.378621 au    391.262 eV  3155742.6 cm**-1
     0a ->  23a  :     0.195583 (c=  0.44224753)
     0a ->  24a  :     0.082737 (c= -0.28764028)
     0a ->  25a  :     0.263719 (c=  0.51353574)
     1a ->  23a  :     0.068887 (c=  0.26246283)
     1a ->  24a  :     0.040073 (c= -0.20018245)
     1a ->  25a  :     0.065741 (c= -0.25639922)
     2a ->  24a  :     0.051838 (c=  0.22767996)
     2a ->  25a  :     0.217727 (c=  0.46661173)

STATE 15:  E=  14.378650 au    391.263 eV  3155748.8 cm**-1
     0a ->  23a  :     0.034213 (c= -0.18496708)
     0a ->  24a  :     0.017669 (c=  0.13292568)
     0a ->  25a  :     0.310134 (c= -0.55689708)
     1a ->  23a  :     0.017705 (c=  0.13306005)
     1a ->  24a  :     0.210390 (c= -0.45868258)
     1a ->  25a  :     0.091387 (c= -0.30230223)
     2a ->  23a  :     0.220936 (c= -0.47003840)
     2a ->  24a  :     0.036791 (c=  0.19180994)
     2a ->  25a  :     0.056975 (c=  0.23869521)

STATE 16:  E=  14.394417 au    391.692 eV  3159209.4 cm**-1
     0a ->  24a  :     0.179672 (c= -0.42387677)
     0a ->  25a  :     0.086474 (c= -0.29406537)
     1a ->  24a  :     0.147208 (c=  0.38367676)
     1a ->  25a  :     0.118938 (c= -0.34487406)
     2a ->  24a  :     0.356765 (c= -0.59729815)
     2a ->  25a  :     0.108033 (c=  0.32868409)

STATE 17:  E=  14.394424 au    391.692 eV  3159210.8 cm**-1
     0a ->  24a  :     0.639104 (c=  0.79944007)
     0a ->  25a  :     0.022579 (c=  0.15026373)
     1a ->  24a  :     0.116940 (c=  0.34196463)
     1a ->  25a  :     0.026891 (c= -0.16398343)
     2a ->  25a  :     0.183220 (c=  0.42804219)

STATE 18:  E=  14.394465 au    391.693 eV  3159219.8 cm**-1
     0a ->  24a  :     0.016444 (c= -0.12823256)
     0a ->  25a  :     0.053235 (c= -0.23072689)
     1a ->  25a  :     0.578927 (c=  0.76087223)
     2a ->  24a  :     0.018804 (c=  0.13712834)
     2a ->  25a  :     0.320919 (c=  0.56649715)

STATE 19:  E=  14.431716 au    392.707 eV  3167395.6 cm**-1
     0a ->  27a  :     0.035210 (c=  0.18764424)
     1a ->  27a  :     0.467987 (c= -0.68409542)
     1a ->  28a  :     0.034151 (c=  0.18479932)
     1a ->  29a  :     0.039440 (c=  0.19859435)
     2a ->  27a  :     0.359011 (c= -0.59917492)
     2a ->  28a  :     0.024318 (c=  0.15594218)
     2a ->  29a  :     0.026404 (c=  0.16249428)

STATE 20:  E=  14.431788 au    392.709 eV  3167411.3 cm**-1
     0a ->  27a  :     0.782800 (c= -0.88475995)
     0a ->  28a  :     0.113611 (c= -0.33706275)
     2a ->  27a  :     0.078783 (c= -0.28068338)
     2a ->  28a  :     0.010774 (c= -0.10379879)


-----------------------------
TD-DFT/TDA-EXCITATION SPECTRA
-----------------------------

Center of mass = ( -3.0941, -1.0660,  0.0654)
Calculating the Dipole integrals                  ... done
Transforming integrals                            ... done
Calculating the Linear Momentum integrals         ... done
Transforming integrals                            ... done
Calculating angular momentum integrals            ... done
Transforming integrals                            ... done

-----------------------------------------------------------------------------
         ABSORPTION SPECTRUM VIA TRANSITION ELECTRIC DIPOLE MOMENTS
-----------------------------------------------------------------------------
State   Energy    Wavelength  fosc         T2        TX        TY        TZ  
        (cm-1)      (nm)                 (au**2)    (au)      (au)      (au) 
-----------------------------------------------------------------------------
   1 3132753.7      3.2   0.000000141   0.00000   0.00000  -0.00000  -0.00012
   2 3132756.1      3.2   0.000000378   0.00000   0.00000   0.00000   0.00020
   3 3132760.8      3.2   0.000000049   0.00000  -0.00000  -0.00000  -0.00007
   4 3132993.7      3.2   0.000921551   0.00010  -0.00007   0.00001  -0.00984
   5 3132997.9      3.2   0.001435307   0.00015  -0.00008   0.00001  -0.01228
   6 3133011.0      3.2   0.052959811   0.00556  -0.00051   0.00008  -0.07460
   7 3147148.2      3.2   0.020871781   0.00218   0.00175  -0.04669  -0.00007
   8 3147155.0      3.2   0.016923021   0.00177  -0.04207   0.00041   0.00029
   9 3147172.2      3.2   0.004313589   0.00045   0.02071   0.00474  -0.00014
  10 3155633.8      3.2   0.005752484   0.00060   0.00010   0.00004   0.02450
  11 3155637.9      3.2   0.006799279   0.00071  -0.00021  -0.00003  -0.02663
  12 3155641.1      3.2   0.020246888   0.00211   0.00026  -0.00003   0.04596
  13 3155736.5      3.2   0.007177876   0.00075  -0.01831   0.02033  -0.00004
  14 3155742.6      3.2   0.007803129   0.00081  -0.02191  -0.01828   0.00013
  15 3155748.8      3.2   0.000825558   0.00009   0.00311  -0.00874   0.00003
  16 3159209.4      3.2   0.000216848   0.00002  -0.00340   0.00332   0.00002
  17 3159210.8      3.2   0.000105638   0.00001  -0.00206  -0.00260   0.00001
  18 3159219.8      3.2   0.000121819   0.00001  -0.00276  -0.00226   0.00002
  19 3167395.6      3.2   0.001352927   0.00014   0.00751  -0.00918  -0.00007
  20 3167411.3      3.2   0.001365884   0.00014  -0.01182  -0.00148   0.00008

-----------------------------------------------------------------------------
         ABSORPTION SPECTRUM VIA TRANSITION VELOCITY DIPOLE MOMENTS
-----------------------------------------------------------------------------
State   Energy    Wavelength   fosc        P2         PX        PY        PZ  
        (cm-1)      (nm)                 (au**2)     (au)      (au)      (au) 
-----------------------------------------------------------------------------
   1 3132753.7      3.2   0.000000140   0.00000  -0.00001   0.00002   0.00173
   2 3132756.1      3.2   0.000000375   0.00001  -0.00004  -0.00000  -0.00283
   3 3132760.8      3.2   0.000000049   0.00000   0.00000   0.00000   0.00102
   4 3132993.7      3.2   0.000912852   0.01955   0.00097  -0.00015   0.13981
   5 3132997.9      3.2   0.001421773   0.03044   0.00120  -0.00020   0.17448
   6 3133011.0      3.2   0.052459314   1.12329   0.00727  -0.00120   1.05983
   7 3147148.2      3.2   0.020505469   0.44106  -0.02487   0.66365   0.00093
   8 3147155.0      3.2   0.016625421   0.35760   0.59796  -0.00576  -0.00411
   9 3147172.2      3.2   0.004237856   0.09115  -0.29429  -0.06739   0.00195
  10 3155633.8      3.2   0.005725421   0.12348  -0.00147  -0.00064  -0.35140
  11 3155637.9      3.2   0.006767340   0.14595   0.00297   0.00046   0.38203
  12 3155641.1      3.2   0.020151808   0.43462  -0.00372   0.00046  -0.65925
  13 3155736.5      3.2   0.007332529   0.15815   0.26615  -0.29548   0.00050
  14 3155742.6      3.2   0.007973010   0.17196   0.31837   0.26570  -0.00191
  15 3155748.8      3.2   0.000843358   0.01819  -0.04523   0.12706  -0.00040
  16 3159209.4      3.2   0.000178822   0.00386   0.04455  -0.04331  -0.00026
  17 3159210.8      3.2   0.000087454   0.00189   0.02696   0.03408  -0.00016
  18 3159219.8      3.2   0.000100448   0.00217   0.03607   0.02946  -0.00022
  19 3167395.6      3.2   0.001621673   0.03511  -0.11861   0.14504   0.00105
  20 3167411.3      3.2   0.001638938   0.03548   0.18690   0.02338  -0.00121

-------------------------------------------------------------------
                             CD SPECTRUM
-------------------------------------------------------------------
State  Energy     Wavelength     R         MX        MY        MZ   
       (cm-1)       (nm)     (1e40*cgs)   (au)      (au)      (au)  
-------------------------------------------------------------------
   1 3132753.7      3.2      0.00001   0.00620  -0.01132  -0.00007
   2 3132756.1      3.2      0.00000   0.00340   0.00787  -0.00001
   3 3132760.8      3.2     -0.00000  -0.00977   0.00120   0.00006
   4 3132993.7      3.2     -0.00022   1.00353  -0.13745  -0.00705
   5 3132997.9      3.2      0.00006  -0.15820  -0.99568  -0.00005
   6 3133011.0      3.2      0.00020  -0.10650   0.18193   0.00093
   7 3147148.2      3.2      0.00002   0.00001  -0.00000  -0.00012
   8 3147155.0      3.2     -0.00003   0.00000   0.00000  -0.00021
   9 3147172.2      3.2      0.00001   0.00000  -0.00001  -0.00007
  10 3155633.8      3.2     -0.00316   0.57746   0.42809  -0.00348
  11 3155637.9      3.2      0.00693   0.54083  -0.45100  -0.00422
  12 3155641.1      3.2     -0.00374   0.00623  -0.48945  -0.00055
  13 3155736.5      3.2      0.00199  -0.00191  -0.00151  -0.00011
  14 3155742.6      3.2     -0.00362  -0.00096   0.00157   0.00001
  15 3155748.8      3.2      0.00168  -0.00148  -0.00093  -0.00010
  16 3159209.4      3.2     -0.00001  -0.00003   0.00004  -0.01313
  17 3159210.8      3.2      0.00001  -0.00055   0.00001  -0.08845
  18 3159219.8      3.2     -0.00000   0.00055  -0.00008   0.08033
  19 3167395.6      3.2     -0.00000  -0.00006  -0.00006   0.00070
  20 3167411.3      3.2      0.00000  -0.00001   0.00006  -0.00054

Total run time:       71.048 sec

           *** ORCA-CIS/TD-DFT FINISHED WITHOUT ERROR ***

-----------------------
CIS/TD-DFT TOTAL ENERGY
-----------------------

    E(SCF)  =   -242.511451528 Eh
    DE(CIS) =     14.273876216 Eh (Root  1)
    ----------------------------- ---------
    E(tot)  =   -228.237575312 Eh


-------------------------   --------------------
FINAL SINGLE POINT ENERGY      -228.237575312343
-------------------------   --------------------


                            ***************************************
                            *     ORCA property calculations      *
                            ***************************************

                                    ---------------------
                                    Active property flags
                                    ---------------------
   (+) Dipole Moment


------------------------------------------------------------------------------
                       ORCA ELECTRIC PROPERTIES CALCULATION
------------------------------------------------------------------------------

Dipole Moment Calculation                       ... on
Quadrupole Moment Calculation                   ... off
Polarizability Calculation                      ... off
GBWName                                         ... /Users/lailaal-madhagi/Desktop/Testing_XAS_Analysis_code/Borazine//Results_dir_Borazine_geom_element_N_2019-11-07_23-31-01//GTE1_Borazine_geom_2019-11-07_23-31-12//TDDFT_N-edge.gbw
Electron density file                           ... /Users/lailaal-madhagi/Desktop/Testing_XAS_Analysis_code/Borazine//Results_dir_Borazine_geom_element_N_2019-11-07_23-31-01//GTE1_Borazine_geom_2019-11-07_23-31-12//TDDFT_N-edge.scfp.tmp
The origin for moment calculation is the CENTER OF MASS  = (-3.094101, -1.066039  0.065364)

-------------
DIPOLE MOMENT
-------------
                                X             Y             Z
Electronic contribution:     -0.00004      -0.00014       0.00002
Nuclear contribution   :      0.00003      -0.00006       0.00003
                        -----------------------------------------
Total Dipole Moment    :     -0.00001      -0.00021       0.00005
                        -----------------------------------------
Magnitude (a.u.)       :      0.00021
Magnitude (Debye)      :      0.00054



--------------------
Rotational spectrum 
--------------------
 
Rotational constants in cm-1:     0.176530     0.176524     0.088263 
Rotational constants in MHz :  5292.236030  5292.041984  2646.069503 

 Dipole components along the rotational axes: 
x,y,z [a.u.] :    -0.000166    -0.000125     0.000049 
x,y,z [Debye]:    -0.000421    -0.000318     0.000126 

 

Timings for individual modules:

Sum of individual times         ...       89.351 sec (=   1.489 min)
GTO integral calculation        ...        0.334 sec (=   0.006 min)   0.4 %
SCF iterations                  ...       17.405 sec (=   0.290 min)  19.5 %
CIS module                      ...       71.613 sec (=   1.194 min)  80.1 %
                             ****ORCA TERMINATED NORMALLY****
TOTAL RUN TIME: 0 days 0 hours 1 minutes 29 seconds 495 msec
