
                                 *****************
                                 * O   R   C   A *
                                 *****************

           --- An Ab Initio, DFT and Semiempirical electronic structure package ---

                  #######################################################
                  #                        -***-                        #
                  #          Department of theory and spectroscopy      #
                  #               Directorship: Frank Neese             #
                  #        Max Planck Institute fuer Kohlenforschung    #
                  #                Kaiser Wilhelm Platz 1               #
                  #                 D-45470 Muelheim/Ruhr               #
                  #                      Germany                        #
                  #                                                     #
                  #                  All rights reserved                #
                  #                        -***-                        #
                  #######################################################


                         Program Version 4.1.0  - RELEASE  -


 With contributions from (in alphabetic order):
   Daniel Aravena         : Magnetic Properties
   Michael Atanasov       : Ab Initio Ligand Field Theory
   Alexander A. Auer      : GIAO ZORA
   Ute Becker             : Parallelization
   Giovanni Bistoni       : ED, Open-shell LED
   Martin Brehm           : Molecular dynamics
   Dmytro Bykov           : SCF Hessian
   Vijay G. Chilkuri      : MRCI spin determinant printing
   Dipayan Datta          : RHF DLPNO-CCSD density
   Achintya Kumar Dutta   : EOM-CC, STEOM-CC
   Dmitry Ganyushin       : Spin-Orbit,Spin-Spin,Magnetic field MRCI
   Miquel Garcia          : C-PCM Hessian
   Yang Guo               : DLPNO-NEVPT2, CIM, IAO-localization
   Andreas Hansen         : Spin unrestricted coupled pair/coupled cluster methods
   Benjamin Helmich-Paris : CASSCF linear response (MC-RPA)
   Lee Huntington         : MR-EOM, pCC
   Robert Izsak           : Overlap fitted RIJCOSX, COSX-SCS-MP3, EOM
   Christian Kollmar      : KDIIS, OOCD, Brueckner-CCSD(T), CCSD density
   Simone Kossmann        : Meta GGA functionals, TD-DFT gradient, OOMP2, MP2 Hessian
   Martin Krupicka        : AUTO-CI
   Lucas Lang             : DCDCAS
   Dagmar Lenk            : GEPOL surface, SMD
   Dimitrios Liakos       : Extrapolation schemes; parallel MDCI
   Dimitrios Manganas     : ROCIS; embedding schemes
   Dimitrios Pantazis     : SARC Basis sets
   Taras Petrenko         : DFT Hessian,TD-DFT gradient, ASA, ECA, R-Raman, ABS, FL, XAS/XES, NRVS
   Peter Pinski           : DLPNO-MP2, DLPNO-MP2 Gradient
   Christoph Reimann      : Effective Core Potentials
   Marius Retegan         : Local ZFS, SOC
   Christoph Riplinger    : Optimizer, TS searches, QM/MM, DLPNO-CCSD(T), (RO)-DLPNO pert. Triples
   Tobias Risthaus        : Range-separated hybrids, TD-DFT gradient, RPA, STAB
   Michael Roemelt        : Restricted open shell CIS
   Masaaki Saitow         : Open-shell DLPNO
   Barbara Sandhoefer     : DKH picture change effects
   Avijit Sen             : IP-ROCIS
   Kantharuban Sivalingam : CASSCF convergence, NEVPT2, FIC-MRCI
   Bernardo de Souza      : ESD, SOC TD-DFT
   Georgi Stoychev        : AutoAux, RI-MP2 NMR
   Willem Van den Heuvel  : Paramagnetic NMR
   Boris Wezisla          : Elementary symmetry handling
   Frank Wennmohs         : Technical directorship


 We gratefully acknowledge several colleagues who have allowed us to
 interface, adapt or use parts of their codes:
   Stefan Grimme, W. Hujo, H. Kruse,             : VdW corrections, initial TS optimization,
                  C. Bannwarth                     DFT functionals, gCP, sTDA/sTD-DF
   Ed Valeev                                     : LibInt (2-el integral package), F12 methods
   Garnet Chan, S. Sharma, J. Yang, R. Olivares  : DMRG
   Ulf Ekstrom                                   : XCFun DFT Library
   Mihaly Kallay                                 : mrcc  (arbitrary order and MRCC methods)
   Andreas Klamt, Michael Diedenhofen            : otool_cosmo (COSMO solvation model)
   Jiri Pittner, Ondrej Demel                    : Mk-CCSD
   Frank Weinhold                                : gennbo (NPA and NBO analysis)
   Christopher J. Cramer and Donald G. Truhlar   : smd solvation model
   Lars Goerigk                                  : TD-DFT with DH, B97 family of functionals
   V. Asgeirsson, H. Jonsson                     : NEB implementation
   FAccTs GmbH                                   : IRC, NEB, NEB-TS, Multilevel


 Your calculation uses the libint2 library for the computation of 2-el integrals
 For citations please refer to: http://libint.valeyev.net

 This ORCA versions uses:
   CBLAS   interface :  Fast vector & matrix operations
   LAPACKE interface :  Fast linear algebra routines
   SCALAPACK package :  Parallel linear algebra routines




***************************************
The coordinates will be read from file: /Users/lailaal-madhagi/Desktop/Testing_XAS_Analysis_code/Acetone//Results_dir_Acetone_geom_element_O_2019-11-03_21-09-28//GTE1_Acetone_geom_2019-11-03_21-09-47//opt.xyz
***************************************


----- Orbital basis set information -----
Your calculation utilizes the basis: 6-31G*
   H-He, Li-Ne : W. J. Hehre, R. Ditchfield and J.A. Pople, J. Chem. Phys. 56, 2257 (1972).
                 Note: He and Ne are unpublished basis sets taken from the Gaussian program.
                 Note: Li and B from J. D. Dill and J. A. Pople, J. Chem. Phys. 62, 2921 (1975).
   Na - Ar     : M. M. Francl, W. J. Pietro, W. J. Hehre, J. S. Binkley, M. S. Gordon, 
                 D. J. DeFrees and J. A. Pople, J. Chem. Phys. 77, 3654 (1982).
   K - Zn      : V. A. Rassolov, J. A. Pople, M. A. Ratner, and T. L. Windus, J. Chem. Phys. 109, 1223 (1998).

================================================================================
                                        WARNINGS
                       Please study these warnings very carefully!
================================================================================

INFO   : Checking CIS options ...

WARNING: CIS/ROCIS methods need fully converged wavefunctions
  ===> : Setting SCFConvForced true
         You can overwrite this default with %scf ConvForced false 


INFO   : the flag for use of LIBINT has been found!

================================================================================
                                       INPUT FILE
================================================================================
NAME = /Users/lailaal-madhagi/Desktop/Testing_XAS_Analysis_code/Acetone//Results_dir_Acetone_geom_element_O_2019-11-03_21-09-28//GTE1_Acetone_geom_2019-11-03_21-09-47//TDDFT_O-edge.inp
|  1> #This is O K-edge calculation 
|  2> ! B3LYP 6-31G* TIGHTSCF Grid3 FinalGrid5 
|  3> !NormalPrint 
|  4> %output 
|  5> Print[P_Basis] 2 
|  6> Print[P_MOS] 1 
|  7> end 
|  8> 
|  9> %tddft 
| 10> orbwin[0]=0,0,-1,-1 
| 11> nroots=20 
| 12> maxdim=200 
| 13> end 
| 14> *xyzfile 0 1 /Users/lailaal-madhagi/Desktop/Testing_XAS_Analysis_code/Acetone//Results_dir_Acetone_geom_element_O_2019-11-03_21-09-28//GTE1_Acetone_geom_2019-11-03_21-09-47//opt.xyz                           ****END OF INPUT****
================================================================================

                       ****************************
                       * Single Point Calculation *
                       ****************************

---------------------------------
CARTESIAN COORDINATES (ANGSTROEM)
---------------------------------
  C     -2.529725   -0.064587   -0.019738
  C     -1.178433    0.633591    0.014201
  H     -2.615856   -0.693085   -0.915706
  H     -3.330597    0.678026   -0.015647
  H     -2.641066   -0.729885    0.846399
  C      0.049761   -0.264293    0.012799
  H      0.060499   -0.900295   -0.881987
  H      0.035559   -0.937122    0.880193
  H      0.954937    0.346295    0.038385
  O     -1.084949    1.845514    0.041101

----------------------------
CARTESIAN COORDINATES (A.U.)
----------------------------
  NO LB      ZA    FRAG     MASS         X           Y           Z
   0 C     6.0000    0    12.011   -4.780487   -0.122051   -0.037299
   1 C     6.0000    0    12.011   -2.226916    1.197314    0.026836
   2 H     1.0000    0     1.008   -4.943251   -1.309742   -1.730433
   3 H     1.0000    0     1.008   -6.293916    1.281283   -0.029568
   4 H     1.0000    0     1.008   -4.990891   -1.379282    1.599462
   5 C     6.0000    0    12.011    0.094035   -0.499442    0.024186
   6 H     1.0000    0     1.008    0.114326   -1.701311   -1.666714
   7 H     1.0000    0     1.008    0.067196   -1.770903    1.663324
   8 H     1.0000    0     1.008    1.804570    0.654403    0.072537
   9 O     8.0000    0    15.999   -2.050257    3.487517    0.077670

--------------------------------
INTERNAL COORDINATES (ANGSTROEM)
--------------------------------
 C      0   0   0     0.000000000000     0.00000000     0.00000000
 C      1   0   0     1.521378527085     0.00000000     0.00000000
 H      1   2   0     1.097810423495   110.52527065     0.00000000
 H      1   2   3     1.092193321132   109.82702910   239.00296151
 H      1   2   3     1.097820926965   110.52338414   118.01188418
 C      2   1   3     1.521400761033   116.49824827   301.00429733
 H      6   2   1     1.097841185320   110.52059850    58.99442040
 H      6   2   1     1.097849454934   110.51909946   300.98539748
 H      6   2   1     1.092161239318   109.82223819   179.99131338
 O      2   1   3     1.215820829542   121.75089906   121.00783788

---------------------------
INTERNAL COORDINATES (A.U.)
---------------------------
 C      0   0   0     0.000000000000     0.00000000     0.00000000
 C      1   0   0     2.874988762218     0.00000000     0.00000000
 H      1   2   0     2.074561047369   110.52527065     0.00000000
 H      1   2   3     2.063946262237   109.82702910   239.00296151
 H      1   2   3     2.074580896051   110.52338414   118.01188418
 C      2   1   3     2.875030778292   116.49824827   301.00429733
 H      6   2   1     2.074619178795   110.52059850    58.99442040
 H      6   2   1     2.074634806100   110.51909946   300.98539748
 H      6   2   1     2.063885636395   109.82223819   179.99131338
 O      2   1   3     2.297568395750   121.75089906   121.00783788

---------------------
BASIS SET INFORMATION
---------------------
There are 3 groups of distinct atoms

 Group   1 Type C   : 10s4p1d contracted to 3s2p1d pattern {631/31/1}
 Group   2 Type H   : 4s contracted to 2s pattern {31}
 Group   3 Type O   : 10s4p1d contracted to 3s2p1d pattern {631/31/1}

Atom   0C    basis set group =>   1
Atom   1C    basis set group =>   1
Atom   2H    basis set group =>   2
Atom   3H    basis set group =>   2
Atom   4H    basis set group =>   2
Atom   5C    basis set group =>   1
Atom   6H    basis set group =>   2
Atom   7H    basis set group =>   2
Atom   8H    basis set group =>   2
Atom   9O    basis set group =>   3

-------------------------
BASIS SET IN INPUT FORMAT
-------------------------

 # Basis set for element : H 
 NewGTO H 
 S 3 
   1      18.7311370000      0.0334945995
   2       2.8253937000      0.2347269467
   3       0.6401217000      0.8137573184
 S 1 
   1       0.1612778000      1.0000000000
  end;

 # Basis set for element : C 
 NewGTO C 
 S 6 
   1    3047.5249000000      0.0018347002
   2     457.3695100000      0.0140373012
   3     103.9486900000      0.0688426061
   4      29.2101550000      0.2321844206
   5       9.2866630000      0.4679413416
   6       3.1639270000      0.3623120322
 S 3 
   1       7.8682724000     -0.1193324086
   2       1.8812885000     -0.1608542116
   3       0.5442493000      1.1434564826
 P 3 
   1       7.8682724000      0.0689990956
   2       1.8812885000      0.3164239798
   3       0.5442493000      0.7443082524
 S 1 
   1       0.1687144000      1.0000000000
 P 1 
   1       0.1687144000      1.0000000000
 D 1 
   1       0.8000000000      1.0000000000
  end;

 # Basis set for element : O 
 NewGTO O 
 S 6 
   1    5484.6717000000      0.0018310998
   2     825.2349500000      0.0139500985
   3     188.0469600000      0.0684450927
   4      52.9645000000      0.2327142753
   5      16.8975700000      0.4701929501
   6       5.7996353000      0.3585208619
 S 3 
   1      15.5396160000     -0.1107775038
   2       3.5999336000     -0.1480263051
   3       1.0137618000      1.1307670390
 P 3 
   1      15.5396160000      0.0708742995
   2       3.5999336000      0.3397527978
   3       1.0137618000      0.7271585953
 S 1 
   1       0.2700058000      1.0000000000
 P 1 
   1       0.2700058000      1.0000000000
 D 1 
   1       0.8000000000      1.0000000000
  end;

------------------------------------------------------------------------------
                           ORCA GTO INTEGRAL CALCULATION
------------------------------------------------------------------------------

                         BASIS SET STATISTICS AND STARTUP INFO

 # of primitive gaussian shells          ...   84
 # of primitive gaussian functions       ...  132
 # of contracted shells                  ...   36
 # of contracted basis functions         ...   68
 Highest angular momentum                ...    2
 Maximum contraction depth               ...    6
 Integral package used                   ... LIBINT
 Integral threshhold            Thresh   ...  2.500e-11
 Primitive cut-off              TCut     ...  2.500e-12


------------------------------ INTEGRAL EVALUATION ----------------------------


 * One electron integrals 
 Pre-screening matrix                    ... done
 Shell pair data                         ... done (   0.000 sec)

-------------------------------------------------------------------------------
                                 ORCA SCF
-------------------------------------------------------------------------------

------------
SCF SETTINGS
------------
Hamiltonian:
 Density Functional     Method          .... DFT(GTOs)
 Exchange Functional    Exchange        .... B88
   X-Alpha parameter    XAlpha          ....  0.666667
   Becke's b parameter  XBeta           ....  0.004200
 Correlation Functional Correlation     .... LYP
 LDA part of GGA corr.  LDAOpt          .... VWN-5
 Gradients option       PostSCFGGA      .... off
 Hybrid DFT is turned on
   Fraction HF Exchange ScalHFX         ....  0.200000
   Scaling of DF-GGA-X  ScalDFX         ....  0.720000
   Scaling of DF-GGA-C  ScalDFC         ....  0.810000
   Scaling of DF-LDA-C  ScalLDAC        ....  1.000000
   Perturbative correction              ....  0.000000
   Density functional embedding theory  .... OFF
   NL short-range parameter             ....  4.800000


General Settings:
 Integral files         IntName         .... /Users/lailaal-madhagi/Desktop/Testing_XAS_Analysis_code/Acetone//Results_dir_Acetone_geom_element_O_2019-11-03_21-09-28//GTE1_Acetone_geom_2019-11-03_21-09-47//TDDFT_O-edge
 Hartree-Fock type      HFTyp           .... RHF
 Total Charge           Charge          ....    0
 Multiplicity           Mult            ....    1
 Number of Electrons    NEL             ....   32
 Basis Dimension        Dim             ....   68
 Nuclear Repulsion      ENuc            ....    118.9187458623 Eh

Convergence Acceleration:
 DIIS                   CNVDIIS         .... on
   Start iteration      DIISMaxIt       ....    12
   Startup error        DIISStart       ....  0.200000
   # of expansion vecs  DIISMaxEq       ....     5
   Bias factor          DIISBfac        ....   1.050
   Max. coefficient     DIISMaxC        ....  10.000
 Newton-Raphson         CNVNR           .... off
 SOSCF                  CNVSOSCF        .... on
   Start iteration      SOSCFMaxIt      ....   150
   Startup grad/error   SOSCFStart      ....  0.003300
 Level Shifting         CNVShift        .... on
   Level shift para.    LevelShift      ....    0.2500
   Turn off err/grad.   ShiftErr        ....    0.0010
 Zerner damping         CNVZerner       .... off
 Static damping         CNVDamp         .... on
   Fraction old density DampFac         ....    0.7000
   Max. Damping (<1)    DampMax         ....    0.9800
   Min. Damping (>=0)   DampMin         ....    0.0000
   Turn off err/grad.   DampErr         ....    0.1000
 Fernandez-Rico         CNVRico         .... off

SCF Procedure:
 Maximum # iterations   MaxIter         ....   125
 SCF integral mode      SCFMode         .... Direct
   Integral package                     .... LIBINT
 Reset frequency        DirectResetFreq ....    20
 Integral Threshold     Thresh          ....  2.500e-11 Eh
 Primitive CutOff       TCut            ....  2.500e-12 Eh

Convergence Tolerance:
 Convergence Check Mode ConvCheckMode   .... Total+1el-Energy
 Convergence forced     ConvForced      .... 1
 Energy Change          TolE            ....  1.000e-08 Eh
 1-El. energy change                    ....  1.000e-05 Eh
 Orbital Gradient       TolG            ....  1.000e-05
 Orbital Rotation angle TolX            ....  1.000e-05
 DIIS Error             TolErr          ....  5.000e-07


Diagonalization of the overlap matrix:
Smallest eigenvalue                        ... 6.352e-03
Time for diagonalization                   ...    0.002 sec
Threshold for overlap eigenvalues          ... 1.000e-08
Number of eigenvalues below threshold      ... 0
Time for construction of square roots      ...    0.001 sec
Total time needed                          ...    0.002 sec

-------------------
DFT GRID GENERATION
-------------------

General Integration Accuracy     IntAcc      ...  4.340
Radial Grid Type                 RadialGrid  ... Gauss-Chebyshev
Angular Grid (max. acc.)         AngularGrid ... Lebedev-194
Angular grid pruning method      GridPruning ... 3 (G Style)
Weight generation scheme         WeightScheme... Becke
Basis function cutoff            BFCut       ...    1.0000e-11
Integration weight cutoff        WCut        ...    1.0000e-14
Grids for H and He will be reduced by one unit

# of grid points (after initial pruning)     ...  22360 (   0.0 sec)
# of grid points (after weights+screening)   ...  21221 (   0.0 sec)
nearest neighbour list constructed           ...    0.0 sec
Grid point re-assignment to atoms done       ...    0.0 sec
Grid point division into batches done        ...    0.1 sec
Reduced shell lists constructed in    0.2 sec

Total number of grid points                  ...    21221
Total number of batches                      ...      336
Average number of points per batch           ...       63
Average number of grid points per atom       ...     2122
Average number of shells per batch           ...    28.67 (79.64%)
Average number of basis functions per batch  ...    55.85 (82.13%)
Average number of large shells per batch     ...    24.06 (83.91%)
Average number of large basis fcns per batch ...    46.65 (83.52%)
Maximum spatial batch extension              ...  20.52, 19.00, 21.28 au
Average spatial batch extension              ...   3.38,  3.46,  3.40 au

Time for grid setup =    0.194 sec

------------------------------
INITIAL GUESS: MODEL POTENTIAL
------------------------------
Loading Hartree-Fock densities                     ... done
Calculating cut-offs                               ... done
Setting up the integral package                    ... done
Initializing the effective Hamiltonian             ... done
Starting the Coulomb interaction                   ... done (   0.0 sec)
Reading the grid                                   ... done
Mapping shells                                     ... done
Starting the XC term evaluation                    ... done (   0.1 sec)
  promolecular density results
     # of electrons  =     31.998172199
     EX              =    -25.361092960
     EC              =     -1.048686420
     EX+EC           =    -26.409779379
Transforming the Hamiltonian                       ... done (   0.0 sec)
Diagonalizing the Hamiltonian                      ... done (   0.0 sec)
Back transforming the eigenvectors                 ... done (   0.0 sec)
Now organizing SCF variables                       ... done
                      ------------------
                      INITIAL GUESS DONE (   0.4 sec)
                      ------------------
--------------
SCF ITERATIONS
--------------
               ***  Starting incremental Fock matrix formation  ***

                         ----------------------------
                         !        ITERATION     0   !
                         ----------------------------
   Total Energy        :    -192.859742444277 Eh
   Energy Change       :    -192.859742444277 Eh
   MAX-DP              :       0.101381883181
   RMS-DP              :       0.004996413105
   Actual Damping      :       0.7000
   Actual Level Shift  :       0.2500 Eh
   Int. Num. El.       :    32.00054649 (UP=   16.00027324 DN=   16.00027324)
   Exchange            :   -20.97042087
   Correlation         :    -1.26338705


                         ----------------------------
                         !        ITERATION     1   !
                         ----------------------------
   Total Energy        :    -192.943545843319 Eh
   Energy Change       :      -0.083803399042 Eh
   MAX-DP              :       0.061447557232
   RMS-DP              :       0.003305355974
   Actual Damping      :       0.7000
   Actual Level Shift  :       0.2500 Eh
   Int. Num. El.       :    32.00062046 (UP=   16.00031023 DN=   16.00031023)
   Exchange            :   -20.76183197
   Correlation         :    -1.25564133

                               ***Turning on DIIS***

                         ----------------------------
                         !        ITERATION     2   !
                         ----------------------------
   Total Energy        :    -192.974060195933 Eh
   Energy Change       :      -0.030514352614 Eh
   MAX-DP              :       0.069519682565
   RMS-DP              :       0.004811065214
   Actual Damping      :       0.0000
   Actual Level Shift  :       0.2500 Eh
   Int. Num. El.       :    32.00066246 (UP=   16.00033123 DN=   16.00033123)
   Exchange            :   -20.63466793
   Correlation         :    -1.25040564
   DIIS-Error          :       0.041799668624


                         ----------------------------
                         !        ITERATION     3   !
                         ----------------------------
   Total Energy        :    -193.022432831415 Eh
   Energy Change       :      -0.048372635482 Eh
   MAX-DP              :       0.040004469199
   RMS-DP              :       0.002404599238
   Actual Damping      :       0.0000
   Actual Level Shift  :       0.2500 Eh
   Int. Num. El.       :    32.00070830 (UP=   16.00035415 DN=   16.00035415)
   Exchange            :   -20.46852849
   Correlation         :    -1.24255167
   DIIS-Error          :       0.050805773703
   DIIS coefficients:
      0.59895   0.40105


                         ----------------------------
                         !        ITERATION     4   !
                         ----------------------------
   Total Energy        :    -193.033275129744 Eh
   Energy Change       :      -0.010842298329 Eh
   MAX-DP              :       0.008806235327
   RMS-DP              :       0.000716182565
   Actual Damping      :       0.0000
   Actual Level Shift  :       0.2500 Eh
   Int. Num. El.       :    32.00067859 (UP=   16.00033930 DN=   16.00033930)
   Exchange            :   -20.54745709
   Correlation         :    -1.24604258
   DIIS-Error          :       0.016599026385
   DIIS coefficients:
      0.32969   0.11760   0.55271

                      *** Initiating the SOSCF procedure ***
                           *** Shutting down DIIS ***
                      *** Re-Reading the Fockian *** 
                      *** Removing any level shift *** 

                         ----------------------------
                         !        ITERATION     5   !
                         ----------------------------
   Total Energy        :    -193.034346217024 Eh
   Energy Change       :      -0.001071087280 Eh
   MAX-DP              :       0.002777065077
   RMS-DP              :       0.000210433401
   Orbital gradient    :       0.000844664550
   Orbital Rotation    :       0.000844664550
   Actual Damping      :       0.0000
   Int. Num. El.       :    32.00067656 (UP=   16.00033828 DN=   16.00033828)
   Exchange            :   -20.55691521
   Correlation         :    -1.24685709

               *** Restarting incremental Fock matrix formation ***

                         ----------------------------
                         !        ITERATION     6   !
                         ----------------------------
   Total Energy        :    -193.034378238477 Eh
   Energy Change       :      -0.000032021453 Eh
   MAX-DP              :       0.001458187153
   RMS-DP              :       0.000109033856
   Orbital gradient    :       0.000373322429
   Orbital Rotation    :       0.000728639674
   Actual Damping      :       0.0000
   Int. Num. El.       :    32.00067684 (UP=   16.00033842 DN=   16.00033842)
   Exchange            :   -20.56164199
   Correlation         :    -1.24706964


                         ----------------------------
                         !        ITERATION     7   !
                         ----------------------------
   Total Energy        :    -193.034379270862 Eh
   Energy Change       :      -0.000001032385 Eh
   MAX-DP              :       0.000434052780
   RMS-DP              :       0.000025523252
   Orbital gradient    :       0.000268838740
   Orbital Rotation    :       0.000187505911
   Actual Damping      :       0.0000
   Int. Num. El.       :    32.00067808 (UP=   16.00033904 DN=   16.00033904)
   Exchange            :   -20.56266335
   Correlation         :    -1.24713938


                         ----------------------------
                         !        ITERATION     8   !
                         ----------------------------
   Total Energy        :    -193.034380671495 Eh
   Energy Change       :      -0.000001400633 Eh
   MAX-DP              :       0.000243628637
   RMS-DP              :       0.000014368618
   Orbital gradient    :       0.000065064499
   Orbital Rotation    :       0.000187575201
   Actual Damping      :       0.0000
   Int. Num. El.       :    32.00067817 (UP=   16.00033909 DN=   16.00033909)
   Exchange            :   -20.56216600
   Correlation         :    -1.24710779


                         ----------------------------
                         !        ITERATION     9   !
                         ----------------------------
   Total Energy        :    -193.034380650143 Eh
   Energy Change       :       0.000000021352 Eh
   MAX-DP              :       0.000128717338
   RMS-DP              :       0.000004597870
   Orbital gradient    :       0.000102031348
   Orbital Rotation    :       0.000094535790
   Actual Damping      :       0.0000
   Int. Num. El.       :    32.00067815 (UP=   16.00033908 DN=   16.00033908)
   Exchange            :   -20.56202984
   Correlation         :    -1.24710386


                         ----------------------------
                         !        ITERATION    10   !
                         ----------------------------
   Total Energy        :    -193.034380696035 Eh
   Energy Change       :      -0.000000045892 Eh
   MAX-DP              :       0.000059254148
   RMS-DP              :       0.000003521266
   Orbital gradient    :       0.000011348431
   Orbital Rotation    :       0.000019863215
   Actual Damping      :       0.0000
   Int. Num. El.       :    32.00067810 (UP=   16.00033905 DN=   16.00033905)
   Exchange            :   -20.56214493
   Correlation         :    -1.24710706


                         ----------------------------
                         !        ITERATION    11   !
                         ----------------------------
   Total Energy        :    -193.034380697117 Eh
   Energy Change       :      -0.000000001082 Eh
   MAX-DP              :       0.000020531681
   RMS-DP              :       0.000001201869
   Orbital gradient    :       0.000004055746
   Orbital Rotation    :       0.000007240713
   Actual Damping      :       0.0000
   Int. Num. El.       :    32.00067811 (UP=   16.00033906 DN=   16.00033906)
   Exchange            :   -20.56214214
   Correlation         :    -1.24710742

                  ***Gradient check signals convergence***
              ***Rediagonalizing the Fockian in SOSCF/NRSCF***

               *****************************************************
               *                     SUCCESS                       *
               *           SCF CONVERGED AFTER  12 CYCLES          *
               *****************************************************

Setting up the final grid:

General Integration Accuracy     IntAcc      ...  5.010
Radial Grid Type                 RadialGrid  ... Gauss-Chebyshev
Angular Grid (max. acc.)         AngularGrid ... Lebedev-434
Angular grid pruning method      GridPruning ... 3 (G Style)
Weight generation scheme         WeightScheme... Becke
Basis function cutoff            BFCut       ...    1.0000e-11
Integration weight cutoff        WCut        ...    1.0000e-14
Grids for H and He will be reduced by one unit

# of grid points (after initial pruning)     ...  83088 (   0.0 sec)
# of grid points (after weights+screening)   ...  78176 (   0.1 sec)
nearest neighbour list constructed           ...    0.0 sec
Grid point re-assignment to atoms done       ...    0.0 sec
Grid point division into batches done        ...    0.8 sec
Reduced shell lists constructed in    1.0 sec

Total number of grid points                  ...    78176
Total number of batches                      ...     1226
Average number of points per batch           ...       63
Average number of grid points per atom       ...     7818
Average number of shells per batch           ...    26.76 (74.34%)
Average number of basis functions per batch  ...    52.00 (76.46%)
Average number of large shells per batch     ...    22.11 (82.62%)
Average number of large basis fcns per batch ...    42.64 (82.01%)
Maximum spatial batch extension              ...  18.81, 21.11, 21.63 au
Average spatial batch extension              ...   2.26,  2.28,  2.29 au

Final grid set up in    1.2 sec
Final integration                            ... done (   0.4 sec)
Change in XC energy                          ...     0.000000460
Integrated number of electrons               ...    31.999991738
Previous integrated no of electrons          ...    32.000678119

----------------
TOTAL SCF ENERGY
----------------

Total Energy       :         -193.03438024 Eh           -5252.73253 eV

Components:
Nuclear Repulsion  :          118.91874586 Eh            3235.94359 eV
Electronic Energy  :         -311.95312610 Eh           -8488.67612 eV
One Electron Energy:         -496.49208173 Eh          -13510.23639 eV
Two Electron Energy:          184.53895563 Eh            5021.56027 eV

Virial components:
Potential Energy   :         -384.91446299 Eh          -10474.05503 eV
Kinetic Energy     :          191.88008275 Eh            5221.32250 eV
Virial Ratio       :            2.00601572


DFT components:
N(Alpha)           :       15.999995869103 electrons
N(Beta)            :       15.999995869103 electrons
N(Total)           :       31.999991738206 electrons
E(X)               :      -20.562138296713 Eh       
E(C)               :       -1.247102584093 Eh       
E(XC)              :      -21.809240880806 Eh       
DFET-embed. en.    :        0.000000000000 Eh       

---------------
SCF CONVERGENCE
---------------

  Last Energy change         ...   -2.6114e-10  Tolerance :   1.0000e-08
  Last MAX-Density change    ...    3.0240e-06  Tolerance :   1.0000e-07
  Last RMS-Density change    ...    1.9015e-07  Tolerance :   5.0000e-09
  Last Orbital Gradient      ...    1.4787e-06  Tolerance :   1.0000e-05
  Last Orbital Rotation      ...    1.1237e-06  Tolerance :   1.0000e-05

             **** THE GBW FILE WAS UPDATED (/Users/lailaal-madhagi/Desktop/Testing_XAS_Analysis_code/Acetone//Results_dir_Acetone_geom_element_O_2019-11-03_21-09-28//GTE1_Acetone_geom_2019-11-03_21-09-47//TDDFT_O-edge.gbw) ****
             **** DENSITY FILE WAS UPDATED (/Users/lailaal-madhagi/Desktop/Testing_XAS_Analysis_code/Acetone//Results_dir_Acetone_geom_element_O_2019-11-03_21-09-28//GTE1_Acetone_geom_2019-11-03_21-09-47//TDDFT_O-edge.scfp.tmp) ****
             **** ENERGY FILE WAS UPDATED (/Users/lailaal-madhagi/Desktop/Testing_XAS_Analysis_code/Acetone//Results_dir_Acetone_geom_element_O_2019-11-03_21-09-28//GTE1_Acetone_geom_2019-11-03_21-09-47//TDDFT_O-edge.en.tmp) ****
----------------
ORBITAL ENERGIES
----------------

  NO   OCC          E(Eh)            E(eV) 
   0   2.0000     -19.128574      -520.5150 
   1   2.0000     -10.269709      -279.4530 
   2   2.0000     -10.179049      -276.9860 
   3   2.0000     -10.179008      -276.9849 
   4   2.0000      -1.031609       -28.0715 
   5   2.0000      -0.763025       -20.7630 
   6   2.0000      -0.705899       -19.2085 
   7   2.0000      -0.526937       -14.3387 
   8   2.0000      -0.454108       -12.3569 
   9   2.0000      -0.453825       -12.3492 
  10   2.0000      -0.443858       -12.0780 
  11   2.0000      -0.400361       -10.8944 
  12   2.0000      -0.389205       -10.5908 
  13   2.0000      -0.374844       -10.2000 
  14   2.0000      -0.343272        -9.3409 
  15   2.0000      -0.240375        -6.5409 
  16   0.0000      -0.007646        -0.2081 
  17   0.0000       0.091369         2.4863 
  18   0.0000       0.140709         3.8289 
  19   0.0000       0.151347         4.1184 
  20   0.0000       0.164342         4.4720 
  21   0.0000       0.173977         4.7341 
  22   0.0000       0.183607         4.9962 
  23   0.0000       0.201353         5.4791 
  24   0.0000       0.293493         7.9864 
  25   0.0000       0.328305         8.9336 
  26   0.0000       0.495791        13.4912 
  27   0.0000       0.540043        14.6953 
  28   0.0000       0.568551        15.4710 
  29   0.0000       0.577171        15.7056 
  30   0.0000       0.582275        15.8445 
  31   0.0000       0.696171        18.9438 
  32   0.0000       0.705242        19.1906 
  33   0.0000       0.710718        19.3396 
  34   0.0000       0.774362        21.0715 
  35   0.0000       0.791029        21.5250 
  36   0.0000       0.836384        22.7592 
  37   0.0000       0.888607        24.1802 
  38   0.0000       0.901516        24.5315 
  39   0.0000       0.902490        24.5580 
  40   0.0000       0.926960        25.2239 
  41   0.0000       0.945006        25.7149 
  42   0.0000       0.966194        26.2915 
  43   0.0000       1.021887        27.8070 
  44   0.0000       1.104536        30.0560 
  45   0.0000       1.196455        32.5572 
  46   0.0000       1.409056        38.3424 
  47   0.0000       1.426561        38.8187 
  48   0.0000       1.431363        38.9494 
  49   0.0000       1.674045        45.5531 
  50   0.0000       1.769388        48.1475 
  51   0.0000       1.780088        48.4386 
  52   0.0000       1.794124        48.8206 
  53   0.0000       1.808324        49.2070 
  54   0.0000       1.922952        52.3262 
  55   0.0000       1.936719        52.7008 
  56   0.0000       2.031303        55.2746 
  57   0.0000       2.075998        56.4908 
  58   0.0000       2.127152        57.8827 
  59   0.0000       2.201251        59.8991 
  60   0.0000       2.209989        60.1369 
  61   0.0000       2.364303        64.3360 
  62   0.0000       2.411314        65.6152 
  63   0.0000       2.493982        67.8647 
  64   0.0000       2.600261        70.7567 
  65   0.0000       2.696535        73.3764 
  66   0.0000       2.966341        80.7182 
  67   0.0000       2.981502        81.1308 
------------------
MOLECULAR ORBITALS
------------------
                      0         1         2         3         4         5   
                 -19.12857 -10.26971 -10.17905 -10.17901  -1.03161  -0.76302
                   2.00000   2.00000   2.00000   2.00000   2.00000   2.00000
                  --------  --------  --------  --------  --------  --------
  0C   1s        -0.000003 -0.000836 -0.551242 -0.828701 -0.018827 -0.125025
  0C   2s        -0.000282  0.000866 -0.021724 -0.030736  0.035958  0.238931
  0C   1pz       -0.000004  0.000019 -0.000001 -0.000001  0.000651  0.000638
  0C   1px       -0.000123  0.000628 -0.000401 -0.000081  0.019879  0.047315
  0C   1py       -0.000119  0.000469  0.000215 -0.000005  0.017445 -0.001963
  0C   3s         0.001737 -0.006205  0.021964  0.026075  0.011681  0.207964
  0C   2pz       -0.000018 -0.000062  0.000044  0.000025  0.000103 -0.000016
  0C   2px        0.001776 -0.003759  0.002538  0.000596 -0.006111  0.007947
  0C   2py       -0.002034 -0.000427  0.000376  0.000794  0.009117 -0.005637
  0C   1dz2       0.000058 -0.000661 -0.000067  0.000021 -0.002661 -0.000266
  0C   1dxz      -0.000004  0.000040  0.000001 -0.000000  0.000164  0.000035
  0C   1dyz      -0.000014  0.000030  0.000006  0.000000  0.000146 -0.000040
  0C   1dx2y2     0.000355  0.000334 -0.000109 -0.000021  0.000557  0.002304
  0C   1dxy      -0.000342  0.000876  0.000065  0.000029  0.004279 -0.000177
  1C   1s         0.000261 -0.995205 -0.000219  0.001088 -0.118944 -0.085375
  1C   2s         0.000600 -0.036526 -0.000270  0.001343  0.225729  0.170766
  1C   1pz       -0.000003 -0.000043 -0.000009 -0.000008  0.003999 -0.004016
  1C   1px       -0.000009 -0.000149 -0.000778 -0.000179  0.013895 -0.013997
  1C   1py       -0.000112 -0.001934  0.000117 -0.000270  0.180088 -0.181266
  1C   3s         0.008954  0.017719  0.001738 -0.008637  0.083071  0.119662
  1C   2pz        0.000248 -0.000211  0.000097  0.000054 -0.000736 -0.001006
  1C   2px        0.000861 -0.000735  0.008179  0.001765 -0.002588 -0.003368
  1C   2py        0.011157 -0.009537 -0.000934  0.001358 -0.033145 -0.045274
  1C   1dz2       0.000194  0.001199  0.000135 -0.000669 -0.014815 -0.004735
  1C   1dxz       0.000004 -0.000013  0.000023  0.000029  0.000105  0.000276
  1C   1dyz      -0.000026 -0.000079  0.000011  0.000013  0.001096 -0.000166
  1C   1dx2y2     0.000799  0.001501  0.000060  0.000653 -0.023797  0.014481
  1C   1dxy      -0.000124 -0.000233  0.001203  0.000142  0.003692 -0.002258
  2H   1s        -0.000056  0.000451  0.000066  0.000522  0.006038  0.078258
  2H   2s        -0.000583 -0.000461 -0.003712 -0.004512  0.000462  0.016779
  3H   1s         0.000023  0.000233  0.000192  0.000476  0.008204  0.064784
  3H   2s         0.000994 -0.000567 -0.002540 -0.005046 -0.002341  0.010124
  4H   1s        -0.000056  0.000451  0.000066  0.000522  0.006039  0.078259
  4H   2s        -0.000583 -0.000462 -0.003712 -0.004512  0.000464  0.016797
  5C   1s        -0.000003 -0.000836  0.828809 -0.551080 -0.018826 -0.124996
  5C   2s        -0.000282  0.000866  0.031919 -0.019944  0.035955  0.238893
  5C   1pz       -0.000001  0.000004 -0.000009 -0.000003  0.000187 -0.000554
  5C   1px        0.000103 -0.000549 -0.000426 -0.000093 -0.016969 -0.047086
  5C   1py       -0.000137  0.000560 -0.000132 -0.000074  0.020300  0.005356
  5C   3s         0.001737 -0.006205 -0.030338  0.015554  0.011721  0.207784
  5C   2pz       -0.000066  0.000031  0.000013  0.000018  0.000274 -0.000228
  5C   2px       -0.002067  0.003648  0.002441  0.000516  0.007430 -0.008539
  5C   2py       -0.001736 -0.001001 -0.001042  0.000513  0.008086 -0.004389
  5C   1dz2       0.000059 -0.000662  0.000053  0.000045 -0.002666 -0.000262
  5C   1dxz       0.000010 -0.000003  0.000001 -0.000001 -0.000035  0.000028
  5C   1dyz      -0.000008  0.000010 -0.000004 -0.000002  0.000053 -0.000043
  5C   1dx2y2     0.000442  0.000052  0.000125  0.000021 -0.000770  0.002252
  5C   1dxy       0.000218 -0.000937  0.000035 -0.000009 -0.004249 -0.000519
  6H   1s        -0.000056  0.000451 -0.000262  0.000456  0.006036  0.078239
  6H   2s        -0.000583 -0.000461  0.005168 -0.002726  0.000464  0.016786
  7H   1s        -0.000056  0.000451 -0.000262  0.000456  0.006037  0.078241
  7H   2s        -0.000583 -0.000462  0.005168 -0.002726  0.000466  0.016805
  8H   1s         0.000023  0.000233 -0.000361  0.000365  0.008204  0.064763
  8H   2s         0.000994 -0.000567  0.004294 -0.003672 -0.002352  0.010026
  9O   1s         0.995157  0.000009 -0.000001  0.000007 -0.192463  0.064382
  9O   2s         0.030136 -0.000967 -0.000072  0.000360  0.421366 -0.148892
  9O   1pz       -0.000050 -0.000024  0.000001 -0.000004 -0.003576  0.000027
  9O   1px       -0.000172 -0.000082 -0.000010 -0.000018 -0.012424  0.000089
  9O   1py       -0.002239 -0.001069  0.000041 -0.000197 -0.161136  0.001202
  9O   3s        -0.023041  0.008162 -0.000054  0.000272  0.384820 -0.141665
  9O   2pz        0.000153 -0.000115 -0.000017  0.000001 -0.001153 -0.000231
  9O   2px        0.000530 -0.000398 -0.001275 -0.000241 -0.004004 -0.000844
  9O   2py        0.006872 -0.005163  0.000060  0.000210 -0.052074 -0.010494
  9O   1dz2       0.000134 -0.001178 -0.000057  0.000286 -0.003424 -0.001829
  9O   1dxz      -0.000000  0.000011  0.000009 -0.000006 -0.000039  0.000032
  9O   1dyz      -0.000012  0.000082  0.000005 -0.000009  0.000389  0.000095
  9O   1dx2y2     0.000295 -0.001665  0.000055 -0.000021 -0.011335 -0.001208
  9O   1dxy      -0.000046  0.000258  0.000312  0.000068  0.001755  0.000191
                      6         7         8         9        10        11   
                  -0.70590  -0.52694  -0.45411  -0.45383  -0.44386  -0.40036
                   2.00000   2.00000   2.00000   2.00000   2.00000   2.00000
                  --------  --------  --------  --------  --------  --------
  0C   1s         0.140941 -0.049373  0.000018 -0.012959 -0.010260 -0.000004
  0C   2s        -0.270750  0.097026 -0.000029  0.024872  0.023569  0.000001
  0C   1pz        0.000042 -0.004783  0.267232 -0.006368  0.001336 -0.324554
  0C   1px        0.011916 -0.210665 -0.003681 -0.105655 -0.174380  0.004598
  0C   1py       -0.005645 -0.085311 -0.005319 -0.246545  0.181752  0.006803
  0C   3s        -0.270558  0.123599 -0.000017  0.029913  0.019114  0.000045
  0C   2pz        0.000057 -0.001733  0.119201 -0.003061  0.000441 -0.160450
  0C   2px        0.003623 -0.066034 -0.001607 -0.049071 -0.107588  0.002255
  0C   2py       -0.000353 -0.037923 -0.002376 -0.119611  0.095311  0.003378
  0C   1dz2      -0.001634  0.006782 -0.000342  0.011506 -0.006468  0.000733
  0C   1dxz       0.000127 -0.000532  0.004565 -0.000411 -0.000022  0.002393
  0C   1dyz       0.000017 -0.000197 -0.012255 -0.000383  0.000186  0.018692
  0C   1dx2y2     0.003265 -0.009674 -0.000314 -0.004494 -0.002492  0.000356
  0C   1dxy       0.001899 -0.010756  0.000085 -0.003166 -0.006952 -0.000320
  1C   1s        -0.000014  0.134697 -0.000004  0.000013 -0.018659 -0.000002
  1C   2s         0.000008 -0.291902  0.000027 -0.000012  0.045425  0.000004
  1C   1pz        0.002260  0.002046  0.241058  0.004431  0.005160  0.000017
  1C   1px        0.179218  0.007125 -0.003817  0.329029  0.018217  0.000032
  1C   1py       -0.013892  0.092044 -0.005040 -0.025571  0.233574  0.000018
  1C   3s         0.000210 -0.253886 -0.000010 -0.000234  0.024056  0.000034
  1C   2pz        0.000281  0.001779  0.117968  0.001239  0.000292 -0.000004
  1C   2px        0.022383  0.006404 -0.001742  0.086719  0.001063  0.000032
  1C   2py       -0.001766  0.079974 -0.002410 -0.006753  0.012650  0.000019
  1C   1dz2      -0.000012  0.000096  0.000036  0.000012 -0.002127  0.000311
  1C   1dxz      -0.000291 -0.000035  0.000068  0.000232  0.000131  0.014264
  1C   1dyz      -0.000138  0.000064  0.000914  0.000110 -0.000091 -0.001107
  1C   1dx2y2    -0.001953 -0.002906  0.000016  0.001547  0.007242 -0.000229
  1C   1dxy      -0.012555  0.000446 -0.000027  0.009964 -0.001120 -0.000284
  2H   1s        -0.094166  0.081312 -0.131760  0.104755 -0.045258  0.172723
  2H   2s        -0.022995  0.045814 -0.104411  0.069306 -0.036795  0.139692
  3H   1s        -0.099011  0.094020  0.000031 -0.040039  0.156669  0.000031
  3H   2s        -0.024409  0.060862  0.000038 -0.034441  0.088251  0.000013
  4H   1s        -0.094172  0.081321  0.131529  0.105048 -0.045227 -0.172735
  4H   2s        -0.023021  0.045828  0.104273  0.069539 -0.036754 -0.139734
  5C   1s        -0.140958 -0.049378 -0.000012  0.012972 -0.010259  0.000005
  5C   2s         0.270771  0.097030  0.000034 -0.024860  0.023522 -0.000001
  5C   1pz        0.000265  0.000332  0.267190  0.004815  0.006057  0.324508
  5C   1px        0.012587  0.195023 -0.003727 -0.066734  0.200032 -0.004644
  5C   1py        0.003774 -0.116668 -0.005908  0.259694  0.152999 -0.006826
  5C   3s         0.270554  0.123435  0.000015 -0.029993  0.019181 -0.000044
  5C   2pz        0.000034 -0.000146  0.119285  0.002329  0.003326  0.160569
  5C   2px        0.003804  0.059605 -0.001682 -0.030466  0.120722 -0.002311
  5C   2py       -0.000262 -0.047954 -0.002704  0.125827  0.077609 -0.003434
  5C   1dz2       0.001640  0.006805 -0.000553 -0.011512 -0.006469 -0.000690
  5C   1dxz      -0.000017  0.000025 -0.006390  0.000229  0.000309 -0.000499
  5C   1dyz       0.000036  0.000065 -0.011403  0.000272  0.000344 -0.018836
  5C   1dx2y2    -0.002535 -0.005953 -0.000151  0.003319 -0.000267 -0.000389
  5C   1dxy       0.002817  0.013211  0.000299 -0.004416  0.007366  0.000275
  6H   1s         0.094166  0.081299 -0.131506 -0.105007 -0.045355 -0.172695
  6H   2s         0.022998  0.045744 -0.104210 -0.069459 -0.036886 -0.139610
  7H   1s         0.094174  0.081313  0.131770 -0.104689 -0.045327  0.172737
  7H   2s         0.023023  0.045749  0.104362 -0.069202 -0.036863  0.139625
  8H   1s         0.099006  0.093998 -0.000067  0.039916  0.156642 -0.000051
  8H   2s         0.024308  0.060860 -0.000022  0.034386  0.088259 -0.000001
  9O   1s         0.000008 -0.073128  0.000009 -0.000031  0.066678  0.000004
  9O   2s        -0.000009  0.172340 -0.000017  0.000063 -0.153222 -0.000006
  9O   1pz        0.000636  0.004008  0.185707  0.003385 -0.006788  0.000014
  9O   1px        0.050441  0.013934 -0.002939  0.250709 -0.023396  0.000022
  9O   1py       -0.003909  0.180442 -0.003932 -0.019285 -0.305065 -0.000033
  9O   3s        -0.000060  0.214519 -0.000074  0.000185 -0.244203 -0.000040
  9O   2pz        0.000297  0.002302  0.102508  0.001982 -0.003654  0.000006
  9O   2px        0.023456  0.007980 -0.001639  0.147702 -0.012586  0.000013
  9O   2py       -0.001791  0.103612 -0.002159 -0.011378 -0.163824 -0.000010
  9O   1dz2      -0.000001  0.006602 -0.000567 -0.000000 -0.009252  0.000025
  9O   1dxz      -0.000141 -0.000054 -0.001129 -0.000439  0.000105  0.001164
  9O   1dyz      -0.000066 -0.000473 -0.014723 -0.000222  0.000602 -0.000092
  9O   1dx2y2    -0.000938  0.009931 -0.000293 -0.002918 -0.011218 -0.000019
  9O   1dxy      -0.006036 -0.001537  0.000256 -0.018721  0.001729 -0.000025
                     12        13        14        15        16        17   
                  -0.38921  -0.37484  -0.34327  -0.24037  -0.00765   0.09137
                   2.00000   2.00000   2.00000   2.00000   0.00000   0.00000
                  --------  --------  --------  --------  --------  --------
  0C   1s        -0.008067  0.005802  0.000001 -0.036169 -0.000004  0.096155
  0C   2s         0.015892 -0.010472 -0.000003  0.066649  0.000028 -0.116252
  0C   1pz        0.005342 -0.000282  0.149574  0.005426  0.004599  0.003396
  0C   1px        0.023262 -0.272974 -0.002121  0.183616 -0.000053  0.054746
  0C   1py        0.238650  0.169902 -0.003148  0.133567 -0.000098  0.124824
  0C   3s         0.045229 -0.034572  0.000010  0.281282  0.000014 -1.498156
  0C   2pz        0.002546 -0.000465  0.061750  0.004241  0.118710  0.011196
  0C   2px        0.023659 -0.142051 -0.000850  0.138151 -0.001682  0.288681
  0C   2py        0.106699  0.074612 -0.001315  0.109280 -0.002561  0.332874
  0C   1dz2      -0.009969 -0.008159 -0.000700 -0.002286  0.001298  0.004097
  0C   1dxz       0.000253 -0.000120 -0.006182  0.000206  0.024109 -0.000209
  0C   1dyz       0.000040 -0.000057 -0.015132  0.000015  0.019408 -0.000185
  0C   1dx2y2     0.010603  0.004281 -0.000228  0.005499  0.000064 -0.001205
  0C   1dxy      -0.006906 -0.018185  0.000348  0.003375 -0.000787 -0.004224
  1C   1s         0.001220 -0.000006 -0.000001 -0.000011  0.000000 -0.005022
  1C   2s        -0.007588  0.000018  0.000018  0.000027  0.000010 -0.055939
  1C   1pz       -0.006462  0.002794 -0.267851 -0.001852  0.511723  0.000610
  1C   1px       -0.022395  0.221586  0.003817 -0.146696 -0.007292  0.002055
  1C   1py       -0.291579 -0.017083  0.005644  0.011357 -0.010799  0.028063
  1C   3s         0.037798  0.000011 -0.000028  0.000346  0.000082  0.260659
  1C   2pz       -0.000356  0.000806 -0.162414  0.001365  0.489411  0.003484
  1C   2px       -0.001523  0.063639  0.002312  0.108541 -0.006934  0.011299
  1C   2py       -0.016827 -0.004968  0.003466 -0.008334 -0.010291  0.162444
  1C   1dz2       0.001589 -0.000004 -0.001264  0.000013 -0.001059  0.010085
  1C   1dxz       0.000220 -0.000171 -0.002527  0.001055 -0.002106 -0.000254
  1C   1dyz      -0.000607 -0.000081 -0.032890  0.000498 -0.027352 -0.000351
  1C   1dx2y2     0.023529 -0.001157 -0.000659  0.007050 -0.000549 -0.000708
  1C   1dxy      -0.003655 -0.007325  0.000523  0.045321  0.000433  0.000134
  2H   1s        -0.092782 -0.057232 -0.097874 -0.037726  0.092002  0.017130
  2H   2s        -0.089161 -0.046178 -0.112403 -0.065825  0.276016  0.878838
  3H   1s         0.107070  0.209934 -0.000020 -0.006034  0.000025  0.021513
  3H   2s         0.099357  0.176698 -0.000012 -0.079311  0.000110  0.496567
  4H   1s        -0.092754 -0.057154  0.097891 -0.037714 -0.092021  0.017130
  4H   2s        -0.089119 -0.046098  0.112430 -0.065785 -0.276192  0.878650
  5C   1s        -0.008080 -0.005781  0.000001  0.036170  0.000003  0.096042
  5C   2s         0.015914  0.010444 -0.000009 -0.066652  0.000047 -0.116323
  5C   1pz        0.005262 -0.006894  0.149585 -0.001087  0.004540  0.002321
  5C   1px        0.013385 -0.295936 -0.002132  0.160949 -0.000083 -0.034894
  5C   1py        0.239277 -0.126189 -0.003140 -0.160154 -0.000093  0.131530
  5C   3s         0.045464  0.034461  0.000039 -0.281309 -0.000160 -1.495341
  5C   2pz        0.002185 -0.003263  0.061852 -0.000965  0.118675  0.004788
  5C   2px       -0.007449 -0.151751 -0.000913  0.119869 -0.001685 -0.235595
  5C   2py        0.109256 -0.051857 -0.001335 -0.129636 -0.002544  0.373485
  5C   1dz2      -0.009966  0.008150 -0.000482  0.002298  0.000317  0.004088
  5C   1dxz       0.000487 -0.000673  0.003793 -0.000013 -0.020859 -0.000005
  5C   1dyz       0.000149 -0.000318 -0.015908  0.000075  0.022901 -0.000090
  5C   1dx2y2     0.012189 -0.009607 -0.000388 -0.004218  0.000780  0.000124
  5C   1dxy       0.003320 -0.016031  0.000144  0.004902  0.000116  0.004362
  6H   1s        -0.092755  0.057343 -0.097892  0.037694  0.092043  0.017167
  6H   2s        -0.089071  0.046294 -0.112361  0.065687  0.275977  0.877998
  7H   1s        -0.092679  0.057266  0.097907  0.037678 -0.092060  0.017178
  7H   2s        -0.088993  0.046241  0.112340  0.065601 -0.276012  0.877309
  8H   1s         0.106895 -0.210106 -0.000019  0.006045  0.000026  0.021516
  8H   2s         0.099250 -0.176904  0.000005  0.079463  0.000129  0.497263
  9O   1s        -0.040612  0.000010 -0.000001  0.000009  0.000001  0.019506
  9O   2s         0.085811 -0.000021  0.000008 -0.000004  0.000006 -0.035810
  9O   1pz        0.008603  0.001786 -0.485273  0.007264 -0.417351  0.000755
  9O   1px        0.029909  0.142177  0.006915  0.575446  0.005941  0.002696
  9O   1py        0.387126 -0.011134  0.010246 -0.044574  0.008800  0.034156
  9O   3s         0.169148 -0.000028 -0.000020 -0.000160 -0.000053 -0.260220
  9O   2pz        0.004846  0.001061 -0.319046  0.005096 -0.423582  0.002873
  9O   2px        0.016918  0.084711  0.004554  0.403875  0.006030  0.010156
  9O   2py        0.218094 -0.006627  0.006742 -0.031178  0.008953  0.127823
  9O   1dz2       0.007505 -0.000005  0.001129  0.000004 -0.000089  0.004881
  9O   1dxz      -0.000026 -0.000253  0.002252 -0.000402 -0.000181 -0.000016
  9O   1dyz      -0.000613 -0.000118  0.029359 -0.000188 -0.002321 -0.000403
  9O   1dx2y2     0.014508 -0.001693  0.000590 -0.002684 -0.000043  0.009542
  9O   1dxy      -0.002257 -0.010844 -0.000467 -0.017162  0.000037 -0.001493
                     18        19        20        21        22        23   
                   0.14071   0.15135   0.16434   0.17398   0.18361   0.20135
                   0.00000   0.00000   0.00000   0.00000   0.00000   0.00000
                  --------  --------  --------  --------  --------  --------
  0C   1s         0.029409  0.102307  0.000069 -0.000049  0.002215  0.072687
  0C   2s        -0.061734 -0.105152 -0.000014  0.000116 -0.015653 -0.057741
  0C   1pz       -0.002434  0.003999  0.325010  0.280936  0.001715 -0.004959
  0C   1px        0.113283  0.140939 -0.004605 -0.003934 -0.226659 -0.168038
  0C   1py       -0.191058  0.101825 -0.006756 -0.005961  0.233062 -0.124605
  0C   3s        -0.307586 -1.796678 -0.001316  0.000680  0.132026 -1.279693
  0C   2pz       -0.008104  0.008091  1.001423  0.961276  0.005987 -0.024409
  0C   2px        0.509947  0.190222 -0.014427 -0.013130 -0.677508 -1.161810
  0C   2py       -0.729706  0.267131 -0.020860 -0.020542  0.731737 -0.379183
  0C   1dz2      -0.015915  0.004864 -0.000463  0.000787  0.002497 -0.006830
  0C   1dxz       0.000146 -0.000098 -0.016053  0.004880  0.000201  0.000906
  0C   1dyz       0.000124 -0.000090 -0.001839  0.018511 -0.000017  0.000072
  0C   1dx2y2     0.009109 -0.002321  0.000190  0.000313  0.003690  0.022156
  0C   1dxy      -0.018034  0.001937  0.000367 -0.000378  0.009881  0.019836
  1C   1s         0.014761 -0.000032 -0.000033  0.000053 -0.000296 -0.155399
  1C   2s         0.009337  0.000092  0.000042 -0.000050  0.000359  0.189078
  1C   1pz       -0.001437 -0.000582 -0.182397  0.000098 -0.001397 -0.005532
  1C   1px       -0.004504 -0.057500  0.002576 -0.000008 -0.112536 -0.018402
  1C   1py       -0.063372  0.004009  0.003783  0.000085  0.008193 -0.251587
  1C   3s        -0.291206  0.000749  0.000680 -0.001073  0.005761  2.856840
  1C   2pz        0.001504 -0.002994 -0.561746  0.000645 -0.001411 -0.022010
  1C   2px        0.007184 -0.264694  0.007966 -0.000079 -0.106012 -0.072332
  1C   2py        0.070730  0.019936  0.011487  0.000454  0.005434 -1.003576
  1C   1dz2      -0.013134 -0.000065  0.000069 -0.000684 -0.000011  0.012406
  1C   1dxz      -0.000081  0.000054  0.000135 -0.031316 -0.000368 -0.000343
  1C   1dyz       0.001338  0.000033  0.002129  0.002430 -0.000166 -0.000401
  1C   1dx2y2    -0.036863  0.000266  0.000047  0.000495 -0.002353 -0.002183
  1C   1dxy       0.005691  0.002708 -0.000038  0.000637 -0.015223  0.000332
  2H   1s        -0.051510  0.041349  0.006405  0.097277  0.018370 -0.027933
  2H   2s        -0.375948  0.935529  1.039823  1.086312  0.479008  0.033948
  3H   1s         0.116410 -0.003665  0.000010  0.000085 -0.075585 -0.037053
  3H   2s         1.324875  0.631932  0.000372  0.000542 -1.406344 -0.001483
  4H   1s        -0.051482  0.041255 -0.006356 -0.097334  0.018281 -0.027974
  4H   2s        -0.375553  0.935915 -1.038779 -1.087368  0.478186  0.033560
  5C   1s         0.030224 -0.102071 -0.000064  0.000021 -0.001993  0.072984
  5C   2s        -0.062000  0.104826  0.000179 -0.000167  0.016163 -0.058227
  5C   1pz       -0.005663 -0.001144  0.324419 -0.281424 -0.007993 -0.001192
  5C   1px       -0.142187  0.122595 -0.004548  0.004002 -0.259293  0.147682
  5C   1py       -0.170350 -0.123941 -0.006954  0.006075 -0.196138 -0.147812
  5C   3s        -0.323272  1.793482  0.000802  0.000076 -0.137929 -1.285750
  5C   2pz       -0.022048 -0.005332  0.999798 -0.963387 -0.024377  0.003409
  5C   2px       -0.616128  0.144048 -0.013812  0.013331 -0.776811  1.096347
  5C   2py       -0.640897 -0.299030 -0.021580  0.020890 -0.621170 -0.556712
  5C   1dz2      -0.015858 -0.004993  0.000220 -0.000638 -0.002505 -0.006849
  5C   1dxz       0.000893  0.000180  0.015582  0.001970  0.000271 -0.000161
  5C   1dyz       0.000480  0.000137 -0.004320 -0.019051  0.000240 -0.000443
  5C   1dx2y2     0.014134  0.002933 -0.000309 -0.000431 -0.000475  0.015076
  5C   1dxy       0.014382  0.001246 -0.000264  0.000234  0.010435 -0.025682
  6H   1s        -0.051139 -0.041819  0.006248 -0.097394 -0.018371 -0.028257
  6H   2s        -0.368454 -0.940285  1.036371 -1.088113 -0.479415  0.034514
  7H   1s        -0.051179 -0.041769 -0.006343  0.097477 -0.018347 -0.028153
  7H   2s        -0.368341 -0.937862 -1.038131  1.089347 -0.478275  0.035567
  8H   1s         0.116302  0.004579  0.000000 -0.000010  0.075387 -0.037606
  8H   2s         1.329795 -0.622328 -0.000133 -0.000333  1.406502 -0.005146
  9O   1s        -0.013801 -0.000061 -0.000002 -0.000001 -0.000001  0.011325
  9O   2s         0.036787  0.000159 -0.000005  0.000009 -0.000063 -0.035073
  9O   1pz       -0.002572  0.001149  0.080963 -0.000072  0.000053  0.002276
  9O   1px       -0.009480  0.096835 -0.001095  0.000002  0.004773  0.007685
  9O   1py       -0.117365 -0.007917 -0.001704 -0.000034 -0.000228  0.103511
  9O   3s         0.093199  0.000490  0.000088 -0.000054  0.000521 -0.029127
  9O   2pz       -0.002568  0.001318  0.185767 -0.000183  0.000778  0.003237
  9O   2px       -0.009628  0.115283 -0.002600 -0.000003  0.061682  0.010382
  9O   2py       -0.117196 -0.009364 -0.003925 -0.000027 -0.004687  0.149180
  9O   1dz2      -0.001376 -0.000003 -0.000002 -0.000229  0.000015  0.009023
  9O   1dxz       0.000089 -0.000071 -0.000010 -0.010405  0.000138 -0.000272
  9O   1dyz      -0.000062 -0.000033 -0.000042  0.000814  0.000066 -0.000231
  9O   1dx2y2     0.004846 -0.000427 -0.000001  0.000168  0.000940 -0.004188
  9O   1dxy      -0.000736 -0.002857  0.000001  0.000206  0.006177  0.000668
                     24        25        26        27        28        29   
                   0.29349   0.32830   0.49579   0.54004   0.56855   0.57717
                   0.00000   0.00000   0.00000   0.00000   0.00000   0.00000
                  --------  --------  --------  --------  --------  --------
  0C   1s         0.053761 -0.003474  0.007531 -0.000012  0.000010 -0.019827
  0C   2s         0.005150 -0.054279 -0.201560  0.000217  0.000154  0.222088
  0C   1pz       -0.002572 -0.004237 -0.005456 -0.274115 -0.568252  0.015765
  0C   1px       -0.060862 -0.041641 -0.596091  0.004247  0.007985  0.473131
  0C   1py       -0.081479 -0.173352  0.153177  0.006262  0.011616  0.421381
  0C   3s        -1.335111  0.696709  0.706077  0.000226 -0.000695 -0.245871
  0C   2pz       -0.040606 -0.003663  0.003095  0.569876  1.080561 -0.025627
  0C   2px       -1.087715  0.564149  0.915899 -0.008214 -0.015434 -0.730602
  0C   2py       -1.189443 -0.557197 -0.491333 -0.012921 -0.021951 -0.706476
  0C   1dz2      -0.024249  0.009085 -0.052886  0.001322  0.002840 -0.027665
  0C   1dxz       0.001369 -0.000076  0.000781 -0.012526 -0.010980  0.000461
  0C   1dyz       0.001181  0.000483  0.000752  0.046650  0.085331 -0.000308
  0C   1dx2y2     0.007209 -0.023179  0.026516  0.001145  0.001962  0.036519
  0C   1dxy       0.031829  0.022682 -0.043094 -0.000381 -0.001014 -0.035720
  1C   1s        -0.000311 -0.043348 -0.032993  0.000036 -0.000027 -0.001139
  1C   2s         0.000607 -0.012708  0.092632  0.000374 -0.000116 -0.004980
  1C   1pz       -0.007492  0.004301 -0.001879 -0.836892 -0.001289  0.002849
  1C   1px       -0.592574  0.015644 -0.005967  0.011836  0.000032  0.233494
  1C   1py        0.045390  0.197003 -0.083937  0.017501  0.000006 -0.020220
  1C   3s         0.004202  1.362210 -0.508165  0.000142 -0.000534 -0.027027
  1C   2pz       -0.027643  0.058266  0.022475  0.651173  0.001527 -0.006030
  1C   2px       -2.191644  0.202492  0.078378 -0.009001 -0.000178 -0.407159
  1C   2py        0.168714  2.626323  1.021962 -0.012636 -0.001083 -0.016129
  1C   1dz2       0.000103  0.015444  0.057404 -0.000410 -0.000672  0.003370
  1C   1dxz       0.000094 -0.000504 -0.002076 -0.000558 -0.034092  0.002429
  1C   1dyz       0.000039 -0.000305 -0.000686 -0.007824  0.002612  0.001094
  1C   1dx2y2     0.000528 -0.011157 -0.060645 -0.000107  0.000511  0.015321
  1C   1dxy       0.003880  0.001717  0.009491  0.000112  0.000717  0.108293
  2H   1s        -0.073589  0.029573 -0.142335  0.217360  0.278330 -0.162911
  2H   2s        -0.334174 -0.355213 -0.115614  0.154570  0.102734 -0.063460
  3H   1s        -0.047690 -0.091538  0.281741  0.000050  0.000114  0.109991
  3H   2s         0.290489  0.434944 -0.027085  0.000275 -0.000143 -0.164514
  4H   1s        -0.073546  0.029521 -0.142428 -0.217559 -0.278190 -0.162679
  4H   2s        -0.333904 -0.355144 -0.115708 -0.154911 -0.102239 -0.063393
  5C   1s        -0.053505 -0.003453  0.007586 -0.000016  0.000017  0.021143
  5C   2s        -0.005071 -0.054175 -0.201322  0.000270 -0.000276 -0.227115
  5C   1pz        0.001314 -0.003586  0.009931 -0.275546  0.568337 -0.005311
  5C   1px       -0.046464  0.014407  0.612756  0.003687 -0.007992  0.415913
  5C   1py        0.088059 -0.177611  0.058341  0.006377 -0.012676 -0.530707
  5C   3s         1.330833  0.696622  0.705403  0.000007 -0.000010  0.213410
  5C   2pz        0.015557 -0.018762 -0.020968  0.572461 -1.080772  0.010502
  5C   2px       -0.890155 -0.642495 -0.980538 -0.008154  0.015582 -0.603548
  5C   2py        1.341889 -0.464906 -0.343069 -0.013050  0.024072  0.899571
  5C   1dz2       0.024212  0.009005 -0.052860  0.002046 -0.003522  0.031162
  5C   1dxz       0.000127 -0.000942  0.002536  0.019565 -0.023878 -0.001863
  5C   1dyz      -0.000478  0.000081  0.001588  0.044350 -0.082519 -0.000494
  5C   1dx2y2     0.002910 -0.028971  0.038323  0.000628 -0.001384 -0.044087
  5C   1dxy       0.032351 -0.014610  0.032855 -0.001054  0.001659 -0.022772
  6H   1s         0.073706  0.029414 -0.142119  0.218050 -0.277633  0.173069
  6H   2s         0.334165 -0.355565 -0.115378  0.154775 -0.102366  0.086422
  7H   1s         0.073709  0.029276 -0.142211 -0.218190  0.277897  0.172825
  7H   2s         0.333790 -0.355561 -0.115447 -0.155156  0.102928  0.086471
  8H   1s         0.047764 -0.091425  0.281677 -0.000009 -0.000114 -0.111342
  8H   2s        -0.289940  0.435353 -0.026808  0.000296 -0.000364  0.144423
  9O   1s         0.000058  0.113073  0.016003  0.000000 -0.000010 -0.000674
  9O   2s        -0.000144 -0.174578 -0.003581  0.000069 -0.000052 -0.001274
  9O   1pz        0.001799  0.003349 -0.000093 -0.080849 -0.000177 -0.003583
  9O   1px        0.141642  0.011528 -0.000537  0.001140 -0.000038 -0.286089
  9O   1py       -0.010757  0.150454 -0.004037  0.001659  0.000047  0.023598
  9O   3s        -0.000547 -2.336620 -0.559697 -0.000639  0.000775  0.035888
  9O   2pz        0.005845  0.022361  0.003951 -0.002075 -0.000074 -0.000225
  9O   2px        0.462979  0.077752  0.013570  0.000013 -0.000051  0.005222
  9O   2py       -0.035325  1.006345  0.175645  0.000168 -0.000254 -0.013538
  9O   1dz2       0.000042  0.029724  0.018897  0.002086 -0.000738 -0.000351
  9O   1dxz       0.000156 -0.000217 -0.000485  0.004207 -0.033625 -0.001193
  9O   1dyz       0.000073 -0.002181 -0.000658  0.054181  0.002703 -0.000546
  9O   1dx2y2     0.001029  0.047079 -0.001470  0.001093  0.000529 -0.008340
  9O   1dxy       0.006670 -0.007323  0.000186 -0.000857  0.000661 -0.051765
                     30        31        32        33        34        35   
                   0.58227   0.69617   0.70524   0.71072   0.77436   0.79103
                   0.00000   0.00000   0.00000   0.00000   0.00000   0.00000
                  --------  --------  --------  --------  --------  --------
  0C   1s         0.020407  0.005184  0.000059  0.029420  0.010982 -0.037026
  0C   2s        -0.105696  0.028357  0.000122 -0.054589  0.094219  0.068171
  0C   1pz       -0.017060  0.000556 -0.539293 -0.000124  0.005671 -0.001989
  0C   1px       -0.323980  0.024518  0.007339 -0.252749 -0.394332  0.131596
  0C   1py       -0.612673 -0.008671  0.011165  0.133423  0.544923 -0.169686
  0C   3s        -0.444842 -0.516637 -0.000015  0.646009 -1.570296 -0.714380
  0C   2pz        0.030215 -0.002485  1.697624  0.015900 -0.036783 -0.012521
  0C   2px        0.101615 -0.189618 -0.022788  1.186811  0.434007 -0.950856
  0C   2py        1.411313  0.065235 -0.034703  0.054928 -2.057368  0.002950
  0C   1dz2       0.056319  0.012810  0.000894 -0.061646 -0.011287  0.022793
  0C   1dxz      -0.001329 -0.001005 -0.041656  0.001731 -0.001684 -0.002136
  0C   1dyz      -0.002694  0.000220  0.055096  0.001621  0.002420 -0.002564
  0C   1dx2y2     0.021806 -0.039372  0.001759  0.019877 -0.110460  0.023192
  0C   1dxy      -0.011613 -0.007728  0.000102 -0.006599 -0.018395 -0.089419
  1C   1s        -0.033667 -0.070302 -0.000070  0.000269  0.000016  0.017621
  1C   2s        -0.178827  0.467535  0.000876 -0.003803 -0.000421 -1.320130
  1C   1pz       -0.002639  0.021318  0.592824 -0.010395  0.005865  0.010728
  1C   1px       -0.011830  0.073003 -0.009349 -0.764755  0.462622  0.037542
  1C   1py       -0.072997  0.985401 -0.011977  0.055933 -0.035830  0.477363
  1C   3s        -0.861704  0.067915 -0.001822  0.002232  0.001233  3.520468
  1C   2pz       -0.030831 -0.031228 -1.724276  0.029060 -0.035122 -0.022723
  1C   2px       -0.100394 -0.104862  0.026939  2.133539 -2.771157 -0.078967
  1C   2py       -1.451462 -1.470942  0.034560 -0.161860  0.214212 -0.990935
  1C   1dz2       0.104234  0.081585  0.001001 -0.000161 -0.000063  0.013272
  1C   1dxz      -0.003169 -0.000468  0.001750 -0.001205 -0.001016 -0.001505
  1C   1dyz      -0.002704 -0.006304  0.023939 -0.000572 -0.000487  0.002030
  1C   1dx2y2    -0.050280  0.141282  0.000619 -0.008749 -0.007009 -0.107599
  1C   1dxy       0.004368 -0.022205 -0.000451 -0.051675 -0.045178  0.016873
  2H   1s         0.157647  0.035325  0.152955  0.070891  0.070527 -0.343794
  2H   2s         0.354635 -0.021627  0.547286  0.128516 -0.527876  0.148329
  3H   1s        -0.020997  0.095618  0.000605  0.415806  0.063941  0.010960
  3H   2s        -0.321854  0.066559  0.000394  0.326205  1.079858 -0.480595
  4H   1s         0.157736  0.035462 -0.152501  0.071464  0.070743 -0.343925
  4H   2s         0.354745 -0.020836 -0.546413  0.129800 -0.528114  0.147520
  5C   1s         0.019205  0.004955 -0.000012 -0.029502 -0.011007 -0.036934
  5C   2s        -0.090835  0.029321  0.000167  0.053021 -0.094518  0.066704
  5C   1pz       -0.010638 -0.000135 -0.539250 -0.005252 -0.016929 -0.005688
  5C   1px        0.200550 -0.028072  0.007522 -0.269827 -0.473479 -0.155319
  5C   1py       -0.622758 -0.005371  0.011136 -0.094346 -0.477385 -0.147085
  5C   3s        -0.460424 -0.522708 -0.001336 -0.641661  1.570473 -0.710392
  5C   2pz        0.031363  0.002530  1.697073  0.009669  0.052245  0.011413
  5C   2px        0.153917  0.207360 -0.022928  1.164616  0.745485  0.936717
  5C   2py        1.354872  0.033166 -0.035264 -0.234475  1.965361 -0.142796
  5C   1dz2       0.054161  0.013259  0.003072  0.061829  0.011291  0.022854
  5C   1dxz      -0.000791 -0.000459  0.049575 -0.001865  0.000085  0.001812
  5C   1dyz      -0.002355  0.000517  0.047775 -0.001862 -0.003202 -0.000730
  5C   1dx2y2     0.027296 -0.035237  0.000218 -0.020577  0.099668  0.049212
  5C   1dxy       0.005796  0.019345 -0.001753 -0.000070 -0.051120  0.078267
  6H   1s         0.147098  0.034720  0.152259 -0.071840 -0.070736 -0.343187
  6H   2s         0.350474 -0.022429  0.547278 -0.129316  0.527874  0.147828
  7H   1s         0.146363  0.034811 -0.151807 -0.071473 -0.070736 -0.343240
  7H   2s         0.350314 -0.021610 -0.547504 -0.128066  0.527393  0.146851
  8H   1s        -0.013140  0.092529 -0.000606 -0.416673 -0.064542  0.011924
  8H   2s        -0.330817  0.063650 -0.000011 -0.328753 -1.079655 -0.479965
  9O   1s        -0.021882  0.030688 -0.000001 -0.000113 -0.000017  0.017143
  9O   2s        -0.034467 -0.154646 -0.000105  0.000455  0.000121 -0.029114
  9O   1pz        0.000853  0.009578  0.117643 -0.003190  0.002411 -0.004469
  9O   1px        0.012537  0.032834 -0.001950 -0.237813  0.193386 -0.015185
  9O   1py        0.039067  0.435514 -0.002022  0.016564 -0.015007 -0.199558
  9O   3s         1.108173  0.620855  0.001325 -0.001681 -0.000099 -0.400355
  9O   2pz       -0.009229  0.002511  0.224901 -0.002092  0.003367  0.012514
  9O   2px       -0.032112  0.008672 -0.003379 -0.143876  0.262937  0.042970
  9O   2py       -0.412263  0.121273 -0.005159  0.010802 -0.020404  0.555356
  9O   1dz2      -0.009152 -0.089958 -0.001739  0.000455 -0.000015  0.063407
  9O   1dxz       0.000217  0.000552 -0.003284  0.001146 -0.000960 -0.001251
  9O   1dyz       0.000577  0.006892 -0.042435  0.000553 -0.000465 -0.002999
  9O   1dx2y2    -0.006802 -0.152751 -0.000966  0.008225 -0.006459  0.028757
  9O   1dxy       0.002688  0.023926  0.000754  0.048892 -0.041809 -0.004517
                     36        37        38        39        40        41   
                   0.83638   0.88861   0.90152   0.90249   0.92696   0.94501
                   0.00000   0.00000   0.00000   0.00000   0.00000   0.00000
                  --------  --------  --------  --------  --------  --------
  0C   1s         0.000001 -0.000003 -0.005581  0.025283  0.031966  0.021123
  0C   2s         0.000158  0.000165 -0.059528  0.166163 -0.739559 -0.588226
  0C   1pz       -0.522270 -0.574633  0.008465 -0.000683  0.004224  0.006939
  0C   1px        0.007498  0.008203  0.002901  0.173019  0.375593 -0.122252
  0C   1py        0.010837  0.012165  0.392537 -0.158359 -0.052920  0.416686
  0C   3s        -0.000009  0.000159  1.009646 -0.301522  1.401728  0.515049
  0C   2pz        0.604968  0.985879  0.004424  0.005602 -0.008849 -0.016101
  0C   2px       -0.008583 -0.013920  0.254183 -0.027641 -0.500360 -0.348721
  0C   2py       -0.012317 -0.020408  0.045594  0.299627 -0.085643 -0.542317
  0C   1dz2      -0.005578 -0.006332  0.130130 -0.031574 -0.032275  0.150556
  0C   1dxz      -0.027644 -0.039836 -0.000371  0.000247 -0.001554 -0.003877
  0C   1dyz      -0.135372 -0.149573 -0.003401 -0.000430  0.000867 -0.005977
  0C   1dx2y2    -0.002411 -0.002526  0.024307  0.040103 -0.042230  0.015382
  0C   1dxy       0.002538  0.003039  0.119887 -0.053207 -0.083472 -0.016625
  1C   1s        -0.000003  0.000001  0.000235  0.023042 -0.025830 -0.003592
  1C   2s         0.000386 -0.000081  0.007242  0.747654 -0.478839 -0.571765
  1C   1pz       -0.102031  0.000257 -0.003365  0.001127 -0.002185  0.004754
  1C   1px        0.001429 -0.000217 -0.273556  0.006734 -0.007678  0.016654
  1C   1py        0.002177  0.000033  0.021691  0.046905 -0.099852  0.214933
  1C   3s        -0.000365  0.000414  0.002795  0.178536  0.550677  1.720959
  1C   2pz        0.109114 -0.000623  0.019899  0.014185  0.004372 -0.017687
  1C   2px       -0.001199  0.001168  1.584754  0.031808  0.015608 -0.060907
  1C   2py       -0.002092 -0.000100 -0.115737  0.650510  0.205309 -0.791764
  1C   1dz2       0.001890  0.002132 -0.001004 -0.102654  0.082238  0.038896
  1C   1dxz       0.003891  0.097630  0.000024  0.000718 -0.001948 -0.001978
  1C   1dyz       0.049880 -0.007597  0.000115  0.007587 -0.003183  0.000732
  1C   1dx2y2     0.000982 -0.001574 -0.001372 -0.164756  0.007683 -0.091893
  1C   1dxy      -0.000780 -0.001912  0.002900  0.025421 -0.000939  0.014413
  2H   1s        -0.502366 -0.503935  0.351617  0.090970  0.158774  0.369699
  2H   2s         0.807234  1.125850 -0.478948  0.255854 -0.374005 -0.734536
  3H   1s        -0.000048 -0.000305 -0.575155  0.433230  0.593536 -0.266959
  3H   2s         0.000013  0.000422  0.709029 -0.461225 -1.016988  0.260164
  4H   1s         0.502447  0.504256  0.350981  0.090734  0.158773  0.369528
  4H   2s        -0.807021 -1.125974 -0.477956  0.256367 -0.374040 -0.734571
  5C   1s         0.000006  0.000020  0.006164  0.025114  0.032114  0.021261
  5C   2s         0.000288 -0.000434  0.060912  0.165176 -0.744054 -0.590492
  5C   1pz       -0.521439  0.574727 -0.009440 -0.005301 -0.005469  0.010776
  5C   1px        0.007549 -0.008361 -0.062220 -0.194259 -0.380397  0.184191
  5C   1py        0.010933 -0.012151 -0.390775 -0.121645  0.006347  0.393394
  5C   3s        -0.000648  0.000140 -1.011974 -0.278986  1.411044  0.519392
  5C   2pz        0.603625 -0.985232  0.002582  0.007156  0.003865 -0.008354
  5C   2px       -0.008974  0.014457  0.246891  0.068520  0.483030  0.262072
  5C   2py       -0.012809  0.020312 -0.078601  0.294557 -0.162357 -0.590387
  5C   1dz2      -0.004847  0.005124 -0.130660 -0.028848 -0.031780  0.150720
  5C   1dxz       0.006574 -0.016435  0.005984  0.002227  0.002509 -0.003157
  5C   1dyz      -0.137894  0.154158  0.006099  0.000419  0.002750 -0.005715
  5C   1dx2y2    -0.002993  0.003465  0.014360  0.054193 -0.015102  0.019577
  5C   1dxy       0.001817 -0.001741  0.122420  0.035759  0.092442  0.011533
  6H   1s        -0.501826  0.504671 -0.349295  0.097858  0.160778  0.371066
  6H   2s         0.805924 -1.126419  0.483346  0.246559 -0.377758 -0.736752
  7H   1s         0.501923 -0.504808 -0.348799  0.097811  0.161030  0.371091
  7H   2s        -0.805851  1.126296  0.481998  0.246548 -0.378462 -0.737126
  8H   1s         0.000053  0.000504  0.585019  0.420586  0.594182 -0.265798
  8H   2s         0.000378 -0.000799 -0.720558 -0.446506 -1.019306  0.258515
  9O   1s         0.000018  0.000005  0.000576  0.055129 -0.012579  0.008390
  9O   2s        -0.000082 -0.000016 -0.002165 -0.208492  0.058985 -0.041920
  9O   1pz       -0.291522  0.000335 -0.002075 -0.012955  0.006017 -0.007224
  9O   1px        0.004138 -0.000032 -0.161099 -0.044224  0.021644 -0.024760
  9O   1py        0.006075 -0.000075  0.006293 -0.591848  0.275507 -0.320146
  9O   3s        -0.000106 -0.000103 -0.006745 -0.621214 -0.147284  0.015746
  9O   2pz        0.225852 -0.000220 -0.001636  0.028581 -0.009911  0.011538
  9O   2px       -0.003248 -0.000179 -0.148289  0.102141 -0.035491  0.039541
  9O   2py       -0.004502  0.000171  0.025054  1.294221 -0.452918  0.512760
  9O   1dz2      -0.000539 -0.000428  0.000278  0.021342  0.040085  0.025552
  9O   1dxz      -0.001070 -0.020142 -0.000054 -0.000352 -0.000992 -0.000552
  9O   1dyz      -0.013759  0.001557 -0.000049 -0.001140 -0.001455 -0.001105
  9O   1dx2y2    -0.000278  0.000325 -0.000248  0.015406 -0.000602  0.007453
  9O   1dxy       0.000222  0.000399 -0.002638 -0.002311  0.000005 -0.001195
                     42        43        44        45        46        47   
                   0.96619   1.02189   1.10454   1.19645   1.40906   1.42656
                   0.00000   0.00000   0.00000   0.00000   0.00000   0.00000
                  --------  --------  --------  --------  --------  --------
  0C   1s         0.038354 -0.000003 -0.013482  0.067384 -0.000183  0.087083
  0C   2s        -0.937997 -0.000092 -0.145075  1.398732 -0.003346  1.587115
  0C   1pz        0.006115  0.125366 -0.002944  0.002635 -0.075799  0.000818
  0C   1px        0.380155 -0.001729 -0.099983 -0.043254  0.000584  0.235476
  0C   1py        0.041644 -0.002641 -0.069150  0.152752  0.001848 -0.115297
  0C   3s         1.585573  0.000611 -0.769251 -4.132903  0.010001 -4.741462
  0C   2pz       -0.016726  0.064586 -0.012686 -0.020070 -0.186389 -0.020313
  0C   2px       -0.851072 -0.000775 -0.153029 -0.437301  0.005154 -1.180568
  0C   2py       -0.233678 -0.001242 -0.509247 -0.655193  0.004151 -0.137076
  0C   1dz2       0.030535  0.000926  0.038742  0.076915  0.011626 -0.046810
  0C   1dxz      -0.002716 -0.056038 -0.002222 -0.002990  0.469216  0.000780
  0C   1dyz      -0.000641  0.064744 -0.000563 -0.003031 -0.003860  0.005293
  0C   1dx2y2    -0.059383  0.002153 -0.055606 -0.016969 -0.006427 -0.150315
  0C   1dxy      -0.052505  0.000273 -0.022377 -0.040764 -0.009847  0.033220
  1C   1s        -0.000071  0.000015 -0.000040 -0.057241 -0.000001  0.000004
  1C   2s        -0.002783  0.000368 -0.000782 -0.844642  0.000002  0.000244
  1C   1pz        0.001924  0.214803  0.004343  0.000382 -0.000045  0.001257
  1C   1px        0.152426 -0.003105  0.343697  0.000875 -0.000205  0.100430
  1C   1py       -0.011528 -0.004577 -0.026669  0.014901  0.000015 -0.007689
  1C   3s         0.006613 -0.001071  0.001981  4.349102  0.000022 -0.000582
  1C   2pz       -0.009959 -0.853399 -0.027276 -0.015310  0.000190 -0.034481
  1C   2px       -0.790636  0.012373 -2.156353 -0.051686  0.005770 -2.736723
  1C   2py        0.059766  0.018258  0.166239 -0.687140 -0.000443  0.212603
  1C   1dz2       0.000233 -0.001501  0.000022  0.118927 -0.012791 -0.000074
  1C   1dxz      -0.001451 -0.002906 -0.003987 -0.003105 -0.585474 -0.001941
  1C   1dyz      -0.000695 -0.037931 -0.001874 -0.004002  0.045545 -0.000278
  1C   1dx2y2    -0.009868 -0.000743 -0.026497 -0.015557  0.009301 -0.004841
  1C   1dxy      -0.062896  0.000613 -0.170761  0.002557  0.011743 -0.030485
  2H   1s         0.368824  0.147053 -0.101419  0.302303 -0.128931  0.378114
  2H   2s        -0.790617 -0.211659 -0.103084  0.319248 -0.033935  0.570312
  3H   1s         0.400629  0.000018 -0.084906  0.276742 -0.000669  0.316968
  3H   2s        -0.975299 -0.000103  0.247879  0.844399 -0.000249  0.126966
  4H   1s         0.369064 -0.147067 -0.101393  0.302251  0.127350  0.378684
  4H   2s        -0.791222  0.211628 -0.103303  0.319416  0.031493  0.570604
  5C   1s        -0.038185 -0.000014  0.013527  0.067371  0.000184 -0.087105
  5C   2s         0.934013 -0.000011  0.145737  1.397996  0.003363 -1.587399
  5C   1pz        0.003334  0.125452  0.000595  0.004024  0.075806  0.005290
  5C   1px        0.368024 -0.001769 -0.088399  0.065823 -0.001615  0.250658
  5C   1py       -0.098195 -0.002713  0.083820  0.144228 -0.001776  0.077789
  5C   3s        -1.580861  0.000220  0.766711 -4.132353 -0.010041  4.742605
  5C   2pz       -0.004176  0.064382  0.009828 -0.010383  0.186295 -0.009037
  5C   2px       -0.800896 -0.001153 -0.072101  0.332998 -0.000204 -1.146724
  5C   2py        0.358210 -0.001231  0.526136 -0.715351 -0.004519  0.316991
  5C   1dz2      -0.030290  0.003563 -0.038714  0.076919  0.008764  0.046888
  5C   1dxz      -0.000111  0.065291  0.000822 -0.001047  0.464266  0.001746
  5C   1dyz      -0.000684  0.055381 -0.000095 -0.002109 -0.068708 -0.005241
  5C   1dx2y2     0.040648  0.000227  0.046174 -0.003803 -0.008379  0.153319
  5C   1dxy      -0.067695 -0.002166 -0.038189  0.044070 -0.008702 -0.013784
  6H   1s        -0.367381  0.147063  0.101626  0.302159  0.128899 -0.378135
  6H   2s         0.787014 -0.211827  0.103121  0.318898  0.033903 -0.570610
  7H   1s        -0.367625 -0.147360  0.101555  0.302082 -0.127314 -0.378628
  7H   2s         0.787626  0.212143  0.103422  0.319127 -0.031428 -0.571016
  8H   1s        -0.399049 -0.000021  0.085261  0.276867  0.000683 -0.317215
  8H   2s         0.971974  0.000013 -0.247911  0.843326  0.000233 -0.126328
  9O   1s        -0.000025  0.000007 -0.000043 -0.008183  0.000000 -0.000008
  9O   2s         0.000156 -0.000097  0.000316  0.203924  0.000002  0.000375
  9O   1pz        0.000452 -0.892978 -0.010196  0.001434  0.000004 -0.000960
  9O   1px        0.028423  0.012791 -0.801626  0.005696  0.000204 -0.077302
  9O   1py       -0.001976  0.018778  0.062419  0.069767 -0.000013  0.006079
  9O   3s        -0.000537  0.000178 -0.000106 -0.741531 -0.000014 -0.000878
  9O   2pz        0.001642  1.294667  0.019862  0.002366 -0.000065  0.007346
[...]
  FA   - Mayer's free valence

  ATOM       NA         ZA         QA         VA         BVA        FA
  0 C      6.5271     6.0000    -0.5271     3.7728     3.7728    -0.0000
  1 C      5.5758     6.0000     0.4242     3.9191     3.9191    -0.0000
  2 H      0.8344     1.0000     0.1656     0.9316     0.9316     0.0000
  3 H      0.8204     1.0000     0.1796     0.9387     0.9387    -0.0000
  4 H      0.8344     1.0000     0.1656     0.9316     0.9316     0.0000
  5 C      6.5276     6.0000    -0.5276     3.7729     3.7729    -0.0000
  6 H      0.8342     1.0000     0.1658     0.9316     0.9316    -0.0000
  7 H      0.8342     1.0000     0.1658     0.9316     0.9316     0.0000
  8 H      0.8203     1.0000     0.1797     0.9386     0.9386    -0.0000
  9 O      8.3915     8.0000    -0.3915     2.1103     2.1103     0.0000

  Mayer bond orders larger than 0.1
B(  0-C ,  1-C ) :   0.9656 B(  0-C ,  2-H ) :   0.9326 B(  0-C ,  3-H ) :   0.9421 
B(  0-C ,  4-H ) :   0.9326 B(  1-C ,  5-C ) :   0.9659 B(  1-C ,  9-O ) :   2.0016 
B(  5-C ,  6-H ) :   0.9326 B(  5-C ,  7-H ) :   0.9326 B(  5-C ,  8-H ) :   0.9420 


-------
TIMINGS
-------

Total SCF time: 0 days 0 hours 0 min 12 sec 

Total time                  ....      12.293 sec
Sum of individual times     ....      12.039 sec  ( 97.9%)

Fock matrix formation       ....      10.435 sec  ( 84.9%)
  XC integration            ....       2.734 sec  ( 26.2% of F)
    Basis function eval.    ....       0.961 sec  ( 35.1% of XC)
    Density eval.           ....       0.695 sec  ( 25.4% of XC)
    XC-Functional eval.     ....       0.293 sec  ( 10.7% of XC)
    XC-Potential eval.      ....       0.628 sec  ( 23.0% of XC)
Diagonalization             ....       0.009 sec  (  0.1%)
Density matrix formation    ....       0.001 sec  (  0.0%)
Population analysis         ....       0.013 sec  (  0.1%)
Initial guess               ....       0.192 sec  (  1.6%)
Orbital Transformation      ....       0.000 sec  (  0.0%)
Orbital Orthonormalization  ....       0.000 sec  (  0.0%)
DIIS solution               ....       0.003 sec  (  0.0%)
SOSCF solution              ....       0.004 sec  (  0.0%)
Grid generation             ....       1.382 sec  ( 11.2%)
------------------------------------------------------------------------------
                        ORCA TD-DFT/TDA CALCULATION
------------------------------------------------------------------------------

Input orbitals are from        ... /Users/lailaal-madhagi/Desktop/Testing_XAS_Analysis_code/Acetone//Results_dir_Acetone_geom_element_O_2019-11-03_21-09-28//GTE1_Acetone_geom_2019-11-03_21-09-47//TDDFT_O-edge.gbw
CI-vector output               ... /Users/lailaal-madhagi/Desktop/Testing_XAS_Analysis_code/Acetone//Results_dir_Acetone_geom_element_O_2019-11-03_21-09-28//GTE1_Acetone_geom_2019-11-03_21-09-47//TDDFT_O-edge.cis
Tamm-Dancoff approximation     ... operative
CIS-Integral strategy          ... AO-integrals
Integral handling              ... AO integral Direct
Max. core memory used          ... 512 MB
Reference state                ... RHF
Generation of triplets         ... off
Follow IRoot                   ... off
Number of operators            ... 1
Orbital ranges used for CIS calculation:
 Operator 0:  Orbitals   0...  0  to  16... 67
XAS localization array:
 Operator 0:  Orbitals  -1... -1
-------------------
XC-INTEGRATION GRID
-------------------

General Integration Accuracy     IntAcc      ...  3.670
Radial Grid Type                 RadialGrid  ... Gauss-Chebyshev
Angular Grid (max. acc.)         AngularGrid ... Lebedev-50
Angular grid pruning method      GridPruning ... 3 (G Style)
Weight generation scheme         WeightScheme... Becke
Basis function cutoff            BFCut       ...    1.0000e-11
Integration weight cutoff        WCut        ...    1.0000e-14
Grids for H and He will be reduced by one unit

# of grid points (after initial pruning)     ...   5464 (   0.0 sec)
# of grid points (after weights+screening)   ...   5168 (   0.0 sec)
nearest neighbour list constructed           ...    0.0 sec
Grid point re-assignment to atoms done       ...    0.0 sec
Grid point division into batches done        ...    0.0 sec
Reduced shell lists constructed in    0.0 sec

Total number of grid points                  ...     5168
Total number of batches                      ...       85
Average number of points per batch           ...       60
Average number of grid points per atom       ...      517
Average number of shells per batch           ...    31.17 (86.60%)
Average number of basis functions per batch  ...    60.64 (89.18%)
Average number of large shells per batch     ...    26.71 (85.68%)
Average number of large basis fcns per batch ...    52.15 (86.00%)
Maximum spatial batch extension              ...  16.84, 18.32, 22.67 au
Average spatial batch extension              ...   5.21,  5.15,  5.44 au


---------------
TD-DFT XC SETUP
---------------

DFT calculation                         ... on
Name of the grid file                   ... /Users/lailaal-madhagi/Desktop/Testing_XAS_Analysis_code/Acetone//Results_dir_Acetone_geom_element_O_2019-11-03_21-09-28//GTE1_Acetone_geom_2019-11-03_21-09-47//TDDFT_O-edge.grid_cis.tmp
Exchange functional (SCF)               ... B88
Exchange functional (TD-DFT)            ... B88
   X-Alpha parameter    XAlpha (SCF)    ...  0.666667
   X-Alpha parameter    XAlpha (TD-DFT) ...  0.666667
   Becke's b parameter  XBeta (SCF)     ...  0.004200
   Becke's b parameter  XBeta (TD-DFT)  ...  0.004200
Correlation functional (SCF)            ... LYP
Correlation functional (TD-DFT)         ... LYP
 LDA part of GGA corr.  LDAOpt (SCF)    ... VWN-5
 LDA part of GGA corr.  LDAOpt (TD-DFT) ... VWN-5
Hybrid DFT                              ... on
   Exchange mixing (SCF)                ...  0.200
   Exchange mixing (TD-DFT)             ...  0.200
   GGA exch. scaling(SCF)               ...  0.720
   GGA exch. scaling (TD-DFT)           ...  0.720
   GGA corr. scaling (SCF)              ...  0.810
   GGA corr. scaling (TD-DFT)           ...  0.810

Building densities             ... done
Calculating rho(r) on the grid ... done
Building xc-kernel on the grid ... done
                    *** TD-DFT CALCULATION INITIALIZED ***


------------------------
DAVIDSON-DIAGONALIZATION
------------------------

Dimension of the eigenvalue problem            ...     52
Number of roots to be determined               ...     20
Maximum size of the expansion space            ...     52
Maximum number of iterations                   ...    100
Convergence tolerance for the residual         ...    2.500e-07
Convergence tolerance for the energies         ...    2.500e-07
Orthogonality tolerance                        ...    1.000e-14
Level Shift                                    ...    0.000e+00
Constructing the preconditioner                ... o.k.
Building the initial guess                     ... o.k.
Number of trial vectors determined             ...     52


                       ****Iteration    0****

   Memory handling for direct AO based CIS:
   Memory per vector needed      ...     1 MB
   Memory needed                 ...     7 MB
   Memory available              ...   512 MB
   Number of vectors per batch   ...   512
   Number of batches             ...     1
   Time for densities:     0.007
   Using LibInt in JK Direct
   Time for J+K (Direct):    10.950
   Time for XC-Integration:     1.564
   Time for Sigma-Completion:     0.054
   Size of expansion space: 52
   Lowest Energy          :    19.018648167995
   Maximum Energy change  :    19.863779018529 (vector 19)
   Maximum residual norm  :     0.000000000000

      *** CONVERGENCE OF RESIDUAL NORM REACHED ***

Storing the converged CI vectors               ... /Users/lailaal-madhagi/Desktop/Testing_XAS_Analysis_code/Acetone//Results_dir_Acetone_geom_element_O_2019-11-03_21-09-28//GTE1_Acetone_geom_2019-11-03_21-09-47//TDDFT_O-edge.cis1

                 *** DAVIDSON DONE ***

Total time for solving the CIS problem:    12.652sec

------------------------------------
TD-DFT/TDA EXCITED STATES (SINGLETS)
------------------------------------

the weight of the individual excitations are printed if larger than 1.0e-02

STATE  1:  E=  19.018648 au    517.524 eV  4174110.8 cm**-1
     0a ->  16a  :     0.993169 (c=  0.99657870)

STATE  2:  E=  19.185168 au    522.055 eV  4210657.7 cm**-1
     0a ->  17a  :     0.998279 (c=  0.99913934)

STATE  3:  E=  19.225970 au    523.165 eV  4219612.7 cm**-1
     0a ->  18a  :     0.993823 (c=  0.99690688)

STATE  4:  E=  19.244066 au    523.658 eV  4223584.4 cm**-1
     0a ->  19a  :     0.995421 (c=  0.99770779)

STATE  5:  E=  19.255139 au    523.959 eV  4226014.6 cm**-1
     0a ->  20a  :     0.994402 (c=  0.99719687)

STATE  6:  E=  19.266128 au    524.258 eV  4228426.4 cm**-1
     0a ->  21a  :     0.999805 (c= -0.99990225)

STATE  7:  E=  19.273301 au    524.453 eV  4230000.7 cm**-1
     0a ->  22a  :     0.995299 (c=  0.99764673)

STATE  8:  E=  19.280244 au    524.642 eV  4231524.4 cm**-1
     0a ->  23a  :     0.993754 (c=  0.99687217)

STATE  9:  E=  19.364853 au    526.944 eV  4250094.0 cm**-1
     0a ->  24a  :     0.989938 (c= -0.99495621)

STATE 10:  E=  19.393513 au    527.724 eV  4256384.2 cm**-1
     0a ->  25a  :     0.992931 (c= -0.99645935)

STATE 11:  E=  19.583915 au    532.905 eV  4298172.6 cm**-1
     0a ->  26a  :     0.998396 (c= -0.99919749)

STATE 12:  E=  19.608419 au    533.572 eV  4303550.5 cm**-1
     0a ->  27a  :     0.993187 (c=  0.99658784)

STATE 13:  E=  19.645523 au    534.582 eV  4311693.8 cm**-1
     0a ->  29a  :     0.983998 (c=  0.99196671)

STATE 14:  E=  19.654602 au    534.829 eV  4313686.5 cm**-1
     0a ->  28a  :     0.999668 (c=  0.99983410)

STATE 15:  E=  19.669111 au    535.224 eV  4316870.9 cm**-1
     0a ->  30a  :     0.996590 (c= -0.99829335)

STATE 16:  E=  19.711873 au    536.387 eV  4326256.1 cm**-1
     0a ->  31a  :     0.984740 (c= -0.99234050)

STATE 17:  E=  19.774140 au    538.082 eV  4339922.1 cm**-1
     0a ->  33a  :     0.957506 (c= -0.97852227)
     0a ->  34a  :     0.030005 (c=  0.17321863)

STATE 18:  E=  19.783839 au    538.346 eV  4342050.9 cm**-1
     0a ->  32a  :     0.989615 (c= -0.99479380)

STATE 19:  E=  19.858192 au    540.369 eV  4358369.4 cm**-1
     0a ->  33a  :     0.032443 (c=  0.18011892)
     0a ->  34a  :     0.963972 (c=  0.98182061)

STATE 20:  E=  19.863779 au    540.521 eV  4359595.6 cm**-1
     0a ->  35a  :     0.957606 (c=  0.97857332)
     0a ->  39a  :     0.023886 (c=  0.15454959)


-----------------------------
TD-DFT/TDA-EXCITATION SPECTRA
-----------------------------

Center of mass = ( -2.2416,  1.0064,  0.0226)
Calculating the Dipole integrals                  ... done
Transforming integrals                            ... done
Calculating the Linear Momentum integrals         ... done
Transforming integrals                            ... done
Calculating angular momentum integrals            ... done
Transforming integrals                            ... done

-----------------------------------------------------------------------------
         ABSORPTION SPECTRUM VIA TRANSITION ELECTRIC DIPOLE MOMENTS
-----------------------------------------------------------------------------
State   Energy    Wavelength  fosc         T2        TX        TY        TZ  
        (cm-1)      (nm)                 (au**2)    (au)      (au)      (au) 
-----------------------------------------------------------------------------
   1 4174110.8      2.4   0.038244728   0.00302   0.00078   0.00116  -0.05490
   2 4210657.7      2.4   0.000413396   0.00003   0.00045   0.00567   0.00013
   3 4219612.7      2.4   0.004102873   0.00032  -0.00142  -0.01783  -0.00039
   4 4223584.4      2.4   0.002563118   0.00020   0.01409  -0.00113   0.00017
   5 4226014.6      2.4   0.000751164   0.00006  -0.00010  -0.00016   0.00765
   6 4228426.4      2.4   0.000000002   0.00000   0.00000   0.00001   0.00001
   7 4230000.7      2.4   0.000152755   0.00001   0.00344  -0.00022   0.00004
   8 4231524.4      2.4   0.002828619   0.00022   0.00109   0.01479   0.00033
   9 4250094.0      2.4   0.005346304   0.00041  -0.02029   0.00153  -0.00026
  10 4256384.2      2.3   0.003998898   0.00031  -0.00134  -0.01753  -0.00039
  11 4298172.6      2.3   0.000085665   0.00001   0.00023   0.00255   0.00006
  12 4303550.5      2.3   0.001422596   0.00011   0.00015   0.00021  -0.01043
  13 4311693.8      2.3   0.015607178   0.00119  -0.03441   0.00275  -0.00043
  14 4313686.5      2.3   0.000000006   0.00000   0.00001   0.00001  -0.00002
  15 4316870.9      2.3   0.000534383   0.00004  -0.00076  -0.00634  -0.00013
  16 4326256.1      2.3   0.039767195   0.00303  -0.00425  -0.05483  -0.00122
  17 4339922.1      2.3   0.012077131   0.00092   0.03018  -0.00230   0.00037
  18 4342050.9      2.3   0.003331196   0.00025   0.00020   0.00032  -0.01589
  19 4358369.4      2.3   0.003326145   0.00025   0.01580  -0.00129   0.00019
  20 4359595.6      2.3   0.009614861   0.00073  -0.00209  -0.02686  -0.00060

-----------------------------------------------------------------------------
         ABSORPTION SPECTRUM VIA TRANSITION VELOCITY DIPOLE MOMENTS
-----------------------------------------------------------------------------
State   Energy    Wavelength   fosc        P2         PX        PY        PZ  
        (cm-1)      (nm)                 (au**2)     (au)      (au)      (au) 
-----------------------------------------------------------------------------
   1 4174110.8      2.4   0.037668558   1.07461  -0.01476  -0.02185   1.03630
   2 4210657.7      2.4   0.000405618   0.01167  -0.00850  -0.10768  -0.00238
   3 4219612.7      2.4   0.004029571   0.11621   0.02694   0.33975   0.00747
   4 4223584.4      2.4   0.002447333   0.07064  -0.26492   0.02125  -0.00321
   5 4226014.6      2.4   0.000584401   0.01688   0.00164   0.00270  -0.12988
   6 4228426.4      2.4   0.000000001   0.00000  -0.00003  -0.00016  -0.00011
   7 4230000.7      2.4   0.000075163   0.00217  -0.04653   0.00277  -0.00059
   8 4231524.4      2.4   0.002601303   0.07523  -0.02014  -0.27348  -0.00602
   9 4250094.0      2.4   0.004835882   0.14047   0.37370  -0.02823   0.00474
  10 4256384.2      2.3   0.004943399   0.14380   0.02889   0.37802   0.00841
  11 4298172.6      2.3   0.000030414   0.00089  -0.00300  -0.02973  -0.00067
  12 4303550.5      2.3   0.001762017   0.05183  -0.00320  -0.00468   0.22758
  13 4311693.8      2.3   0.015426191   0.45458   0.67206  -0.05335   0.00845
  14 4313686.5      2.3   0.000000006   0.00000  -0.00022  -0.00011   0.00034
  15 4316870.9      2.3   0.000219812   0.00649   0.01147   0.07970   0.00151
  16 4326256.1      2.3   0.036007055   1.06465   0.07974   1.02848   0.02282
  17 4339922.1      2.3   0.011187982   0.33185  -0.57437   0.04362  -0.00700
  18 4342050.9      2.3   0.003609061   0.10710  -0.00419  -0.00654   0.32717
  19 4358369.4      2.3   0.003816501   0.11368  -0.33603   0.02738  -0.00411
  20 4359595.6      2.3   0.010076511   0.30024   0.04253   0.54615   0.01218

-------------------------------------------------------------------
                             CD SPECTRUM
-------------------------------------------------------------------
State  Energy     Wavelength     R         MX        MY        MZ   
       (cm-1)       (nm)     (1e40*cgs)   (au)      (au)      (au)  
-------------------------------------------------------------------
   1 4174110.8      2.4      0.00000  -1.28507   0.09949  -0.01620
   2 4210657.7      2.4      0.00000  -0.00001   0.00001  -0.00025
   3 4219612.7      2.4     -0.00000   0.00008  -0.00003   0.00092
   4 4223584.4      2.4      0.00010   0.00456   0.00698  -0.33059
   5 4226014.6      2.4     -0.00008   0.16220  -0.01255   0.00179
   6 4228426.4      2.4      0.00000   0.00018   0.00061  -0.00000
   7 4230000.7      2.4     -0.00000   0.00083   0.00124  -0.05900
   8 4231524.4      2.4     -0.00000  -0.00005  -0.00002   0.00119
   9 4250094.0      2.4     -0.00000  -0.00667  -0.00984   0.46699
  10 4256384.2      2.3      0.00000  -0.00004   0.00001  -0.00033
  11 4298172.6      2.3      0.00000   0.00001   0.00002  -0.00087
  12 4303550.5      2.3      0.00002  -0.28168   0.02181  -0.00352
  13 4311693.8      2.3      0.00001  -0.01194  -0.01767   0.83834
  14 4313686.5      2.3     -0.00000  -0.00045  -0.00028  -0.00027
  15 4316870.9      2.3     -0.00000   0.00032  -0.00017   0.00660
  16 4326256.1      2.3      0.00000  -0.00002  -0.00001   0.00051
  17 4339922.1      2.3     -0.00037   0.00990   0.01515  -0.71772
  18 4342050.9      2.3      0.00037  -0.40646   0.03145  -0.00458
  19 4358369.4      2.3      0.00007   0.00585   0.00884  -0.41914
  20 4359595.6      2.3     -0.00000  -0.00008  -0.00000   0.00050

Total run time:       12.886 sec

           *** ORCA-CIS/TD-DFT FINISHED WITHOUT ERROR ***

-----------------------
CIS/TD-DFT TOTAL ENERGY
-----------------------

    E(SCF)  =   -193.034380237 Eh
    DE(CIS) =     19.018648168 Eh (Root  1)
    ----------------------------- ---------
    E(tot)  =   -174.015732069 Eh


-------------------------   --------------------
FINAL SINGLE POINT ENERGY      -174.015732069276
-------------------------   --------------------


                            ***************************************
                            *     ORCA property calculations      *
                            ***************************************

                                    ---------------------
                                    Active property flags
                                    ---------------------
   (+) Dipole Moment


------------------------------------------------------------------------------
                       ORCA ELECTRIC PROPERTIES CALCULATION
------------------------------------------------------------------------------

Dipole Moment Calculation                       ... on
Quadrupole Moment Calculation                   ... off
Polarizability Calculation                      ... off
GBWName                                         ... /Users/lailaal-madhagi/Desktop/Testing_XAS_Analysis_code/Acetone//Results_dir_Acetone_geom_element_O_2019-11-03_21-09-28//GTE1_Acetone_geom_2019-11-03_21-09-47//TDDFT_O-edge.gbw
Electron density file                           ... /Users/lailaal-madhagi/Desktop/Testing_XAS_Analysis_code/Acetone//Results_dir_Acetone_geom_element_O_2019-11-03_21-09-28//GTE1_Acetone_geom_2019-11-03_21-09-47//TDDFT_O-edge.scfp.tmp
The origin for moment calculation is the CENTER OF MASS  = (-2.241639,  1.006433  0.022647)

-------------
DIPOLE MOMENT
-------------
                                X             Y             Z
Electronic contribution:      0.30623       3.97663       0.08812
Nuclear contribution   :     -0.39176      -5.07634      -0.11240
                        -----------------------------------------
Total Dipole Moment    :     -0.08553      -1.09970      -0.02429
                        -----------------------------------------
Magnitude (a.u.)       :      1.10329
Magnitude (Debye)      :      2.80435



--------------------
Rotational spectrum 
--------------------
 
Rotational constants in cm-1:     0.336285     0.281357     0.162435 
Rotational constants in MHz : 10081.578124  8434.859407  4869.690767 

 Dipole components along the rotational axes: 
x,y,z [a.u.] :    -0.000689    -1.103292     0.000107 
x,y,z [Debye]:    -0.001751    -2.804347     0.000273 

 

Timings for individual modules:

Sum of individual times         ...       26.532 sec (=   0.442 min)
GTO integral calculation        ...        0.300 sec (=   0.005 min)   1.1 %
SCF iterations                  ...       12.327 sec (=   0.205 min)  46.5 %
CIS module                      ...       13.905 sec (=   0.232 min)  52.4 %
                             ****ORCA TERMINATED NORMALLY****
TOTAL RUN TIME: 0 days 0 hours 0 minutes 26 seconds 673 msec
