
                                 *****************
                                 * O   R   C   A *
                                 *****************

           --- An Ab Initio, DFT and Semiempirical electronic structure package ---

                  #######################################################
                  #                        -***-                        #
                  #          Department of theory and spectroscopy      #
                  #               Directorship: Frank Neese             #
                  #        Max Planck Institute fuer Kohlenforschung    #
                  #                Kaiser Wilhelm Platz 1               #
                  #                 D-45470 Muelheim/Ruhr               #
                  #                      Germany                        #
                  #                                                     #
                  #                  All rights reserved                #
                  #                        -***-                        #
                  #######################################################


                         Program Version 4.1.0  - RELEASE  -


 With contributions from (in alphabetic order):
   Daniel Aravena         : Magnetic Properties
   Michael Atanasov       : Ab Initio Ligand Field Theory
   Alexander A. Auer      : GIAO ZORA
   Ute Becker             : Parallelization
   Giovanni Bistoni       : ED, Open-shell LED
   Martin Brehm           : Molecular dynamics
   Dmytro Bykov           : SCF Hessian
   Vijay G. Chilkuri      : MRCI spin determinant printing
   Dipayan Datta          : RHF DLPNO-CCSD density
   Achintya Kumar Dutta   : EOM-CC, STEOM-CC
   Dmitry Ganyushin       : Spin-Orbit,Spin-Spin,Magnetic field MRCI
   Miquel Garcia          : C-PCM Hessian
   Yang Guo               : DLPNO-NEVPT2, CIM, IAO-localization
   Andreas Hansen         : Spin unrestricted coupled pair/coupled cluster methods
   Benjamin Helmich-Paris : CASSCF linear response (MC-RPA)
   Lee Huntington         : MR-EOM, pCC
   Robert Izsak           : Overlap fitted RIJCOSX, COSX-SCS-MP3, EOM
   Christian Kollmar      : KDIIS, OOCD, Brueckner-CCSD(T), CCSD density
   Simone Kossmann        : Meta GGA functionals, TD-DFT gradient, OOMP2, MP2 Hessian
   Martin Krupicka        : AUTO-CI
   Lucas Lang             : DCDCAS
   Dagmar Lenk            : GEPOL surface, SMD
   Dimitrios Liakos       : Extrapolation schemes; parallel MDCI
   Dimitrios Manganas     : ROCIS; embedding schemes
   Dimitrios Pantazis     : SARC Basis sets
   Taras Petrenko         : DFT Hessian,TD-DFT gradient, ASA, ECA, R-Raman, ABS, FL, XAS/XES, NRVS
   Peter Pinski           : DLPNO-MP2, DLPNO-MP2 Gradient
   Christoph Reimann      : Effective Core Potentials
   Marius Retegan         : Local ZFS, SOC
   Christoph Riplinger    : Optimizer, TS searches, QM/MM, DLPNO-CCSD(T), (RO)-DLPNO pert. Triples
   Tobias Risthaus        : Range-separated hybrids, TD-DFT gradient, RPA, STAB
   Michael Roemelt        : Restricted open shell CIS
   Masaaki Saitow         : Open-shell DLPNO
   Barbara Sandhoefer     : DKH picture change effects
   Avijit Sen             : IP-ROCIS
   Kantharuban Sivalingam : CASSCF convergence, NEVPT2, FIC-MRCI
   Bernardo de Souza      : ESD, SOC TD-DFT
   Georgi Stoychev        : AutoAux, RI-MP2 NMR
   Willem Van den Heuvel  : Paramagnetic NMR
   Boris Wezisla          : Elementary symmetry handling
   Frank Wennmohs         : Technical directorship


 We gratefully acknowledge several colleagues who have allowed us to
 interface, adapt or use parts of their codes:
   Stefan Grimme, W. Hujo, H. Kruse,             : VdW corrections, initial TS optimization,
                  C. Bannwarth                     DFT functionals, gCP, sTDA/sTD-DF
   Ed Valeev                                     : LibInt (2-el integral package), F12 methods
   Garnet Chan, S. Sharma, J. Yang, R. Olivares  : DMRG
   Ulf Ekstrom                                   : XCFun DFT Library
   Mihaly Kallay                                 : mrcc  (arbitrary order and MRCC methods)
   Andreas Klamt, Michael Diedenhofen            : otool_cosmo (COSMO solvation model)
   Jiri Pittner, Ondrej Demel                    : Mk-CCSD
   Frank Weinhold                                : gennbo (NPA and NBO analysis)
   Christopher J. Cramer and Donald G. Truhlar   : smd solvation model
   Lars Goerigk                                  : TD-DFT with DH, B97 family of functionals
   V. Asgeirsson, H. Jonsson                     : NEB implementation
   FAccTs GmbH                                   : IRC, NEB, NEB-TS, Multilevel


 Your calculation uses the libint2 library for the computation of 2-el integrals
 For citations please refer to: http://libint.valeyev.net

 This ORCA versions uses:
   CBLAS   interface :  Fast vector & matrix operations
   LAPACKE interface :  Fast linear algebra routines
   SCALAPACK package :  Parallel linear algebra routines




***************************************
The coordinates will be read from file: /Users/lailaal-madhagi/Desktop/Testing_XAS_Analysis_code/Benzonitrile/Benzonitrile_geom.xyz
***************************************


----- Orbital basis set information -----
Your calculation utilizes the basis: 6-31G*
   H-He, Li-Ne : W. J. Hehre, R. Ditchfield and J.A. Pople, J. Chem. Phys. 56, 2257 (1972).
                 Note: He and Ne are unpublished basis sets taken from the Gaussian program.
                 Note: Li and B from J. D. Dill and J. A. Pople, J. Chem. Phys. 62, 2921 (1975).
   Na - Ar     : M. M. Francl, W. J. Pietro, W. J. Hehre, J. S. Binkley, M. S. Gordon, 
                 D. J. DeFrees and J. A. Pople, J. Chem. Phys. 77, 3654 (1982).
   K - Zn      : V. A. Rassolov, J. A. Pople, M. A. Ratner, and T. L. Windus, J. Chem. Phys. 109, 1223 (1998).

================================================================================
                                        WARNINGS
                       Please study these warnings very carefully!
================================================================================


WARNING: Geometry Optimization
  ===> : Switching off AutoStart
         For restart on a previous wavefunction, please use MOREAD

INFO   : the flag for use of LIBINT has been found!

================================================================================
                                       INPUT FILE
================================================================================
NAME = /Users/lailaal-madhagi/Desktop/Testing_XAS_Analysis_code/Benzonitrile//Results_dir_Benzonitrile_geom_element_C_2019-11-05_19-31-48//GTE1_Benzonitrile_geom_2019-11-05_19-32-02//opt.inp
|  1> ! B3LYP 6-31G* TIGHTSCF Grid3 FinalGrid5 Opt 
|  2> !NormalPrint 
|  3> %output 
|  4> Print[P_Basis] 2 
|  5> Print[P_MOS] 1 
|  6> end 
|  7> *xyzfile 0 1 /Users/lailaal-madhagi/Desktop/Testing_XAS_Analysis_code/Benzonitrile/Benzonitrile_geom.xyz                           ****END OF INPUT****
================================================================================

                       *****************************
                       * Geometry Optimization Run *
                       *****************************

Geometry optimization settings:
Update method            Update   .... BFGS
Choice of coordinates    CoordSys .... Z-matrix Internals
Initial Hessian          InHess   .... Almoef's Model

Convergence Tolerances:
Energy Change            TolE     ....  5.0000e-06 Eh
Max. Gradient            TolMAXG  ....  3.0000e-04 Eh/bohr
RMS Gradient             TolRMSG  ....  1.0000e-04 Eh/bohr
Max. Displacement        TolMAXD  ....  4.0000e-03 bohr
RMS Displacement         TolRMSD  ....  2.0000e-03 bohr

------------------------------------------------------------------------------
                        ORCA OPTIMIZATION COORDINATE SETUP
------------------------------------------------------------------------------

The optimization will be done in new redundant internal coordinates
Making redundant internal coordinates   ...  (new redundants) done
Evaluating the initial hessian          ...  (Almloef) done
Evaluating the coordinates              ...  done
Calculating the B-matrix                .... done
Calculating the G-matrix                .... done
Diagonalizing the G-matrix              .... done
The first mode is                       ....   24
The number of degrees of freedom        ....   33

    -----------------------------------------------------------------
                    Redundant Internal Coordinates


    -----------------------------------------------------------------
         Definition                    Initial Value    Approx d2E/dq
    -----------------------------------------------------------------
      1. B(C   1,C   0)                  1.3989         0.604645   
      2. B(C   2,C   1)                  1.3978         0.607200   
      3. B(C   3,C   0)                  1.4009         0.600249   
      4. B(C   4,C   3)                  1.4042         0.593108   
      5. B(C   5,C   4)                  1.3996         0.603081   
      6. B(C   5,C   2)                  1.3969         0.609049   
      7. B(C   6,C   4)                  1.4395         0.520881   
      8. B(N   7,C   6)                  1.1573         1.315707   
      9. B(H   8,C   1)                  1.0823         0.370447   
     10. B(H   9,C   2)                  1.0818         0.371091   
     11. B(H  10,C   3)                  1.0838         0.368369   
     12. B(H  11,C   0)                  1.0829         0.369653   
     13. B(H  12,C   5)                  1.0831         0.369369   
     14. A(C   3,C   0,H  11)          120.1876         0.352539   
     15. A(C   1,C   0,C   3)          120.0558         0.429608   
     16. A(C   1,C   0,H  11)          119.7566         0.352975   
     17. A(C   2,C   1,H   8)          119.8575         0.353355   
     18. A(C   0,C   1,H   8)          120.1235         0.353103   
     19. A(C   0,C   1,C   2)          120.0190         0.430497   
     20. A(C   5,C   2,H   9)          119.7806         0.353641   
     21. A(C   1,C   2,C   5)          120.0741         0.431058   
     22. A(C   1,C   2,H   9)          120.1453         0.353459   
     23. A(C   0,C   3,H  10)          119.3809         0.352332   
     24. A(C   0,C   3,C   4)          119.8667         0.428126   
     25. A(C   4,C   3,H  10)          120.7524         0.351619   
     26. A(C   3,C   4,C   6)          121.0339         0.417413   
     27. A(C   3,C   4,C   5)          119.8142         0.428488   
     28. A(C   5,C   4,C   6)          119.1519         0.418655   
     29. A(C   2,C   5,C   4)          120.1701         0.430532   
     30. A(C   4,C   5,H  12)          120.2907         0.352774   
     31. A(C   2,C   5,H  12)          119.5391         0.353363   
     32. L(C   4,C   6,N   7,C   5, 2) 180.0031         0.479077   
     33. L(C   4,C   6,N   7,C   5, 1) 179.0229         0.479077   
     34. D(H   8,C   1,C   0,C   3)   -179.9756         0.025225   
     35. D(H   8,C   1,C   0,H  11)      0.0096         0.025225   
     36. D(C   2,C   1,C   0,H  11)   -179.9912         0.025225   
     37. D(C   2,C   1,C   0,C   3)      0.0235         0.025225   
     38. D(H   9,C   2,C   1,C   0)    179.9930         0.025450   
     39. D(C   5,C   2,C   1,C   0)     -0.0210         0.025450   
     40. D(C   5,C   2,C   1,H   8)    179.9782         0.025450   
     41. D(H   9,C   2,C   1,H   8)     -0.0078         0.025450   
     42. D(H  10,C   3,C   0,H  11)      0.0000         0.024839   
     43. D(H  10,C   3,C   0,C   1)    179.9852         0.024839   
     44. D(C   4,C   3,C   0,H  11)   -179.9828         0.024839   
     45. D(C   4,C   3,C   0,C   1)      0.0024         0.024839   
     46. D(C   6,C   4,C   3,C   0)    179.9402         0.024221   
     47. D(C   5,C   4,C   3,H  10)    179.9866         0.024221   
     48. D(C   5,C   4,C   3,C   0)     -0.0308         0.024221   
     49. D(C   6,C   4,C   3,H  10)     -0.0424         0.024221   
     50. D(H  12,C   5,C   4,C   6)      0.0440         0.025087   
     51. D(C   2,C   5,C   4,C   6)   -179.9381         0.025087   
     52. D(C   2,C   5,C   4,C   3)      0.0334         0.025087   
     53. D(H  12,C   5,C   2,H   9)     -0.0037         0.025614   
     54. D(H  12,C   5,C   2,C   1)   -179.9897         0.025614   
     55. D(H  12,C   5,C   4,C   3)   -179.9846         0.025087   
     56. D(C   4,C   5,C   2,H   9)    179.9785         0.025614   
     57. D(C   4,C   5,C   2,C   1)     -0.0075         0.025614   
    -----------------------------------------------------------------

Number of atoms                         .... 13
Number of degrees of freedom            .... 57

         *************************************************************
         *                GEOMETRY OPTIMIZATION CYCLE   1            *
         *************************************************************
---------------------------------
CARTESIAN COORDINATES (ANGSTROEM)
---------------------------------
  C     -3.071490    1.348760   -0.003600
  C     -2.405900    2.579190    0.000920
  C     -1.008680    2.618440   -0.002860
  C     -2.338820    0.154740   -0.011420
  C     -0.935250    0.195600   -0.014660
  C     -0.274990    1.429700   -0.010710
  C     -0.157550   -1.015740   -0.021390
  N      0.484190   -1.978780   -0.026820
  H     -2.970840    3.502310    0.007360
  H     -0.491870    3.568820    0.000510
  H     -2.865680   -0.792400   -0.014620
  H     -4.154060    1.323310   -0.000790
  H      0.807330    1.470220   -0.013420

----------------------------
CARTESIAN COORDINATES (A.U.)
----------------------------
  NO LB      ZA    FRAG     MASS         X           Y           Z
   0 C     6.0000    0    12.011   -5.804275    2.548787   -0.006803
   1 C     6.0000    0    12.011   -4.546492    4.873963    0.001739
   2 C     6.0000    0    12.011   -1.906129    4.948134   -0.005405
   3 C     6.0000    0    12.011   -4.419729    0.292416   -0.021581
   4 C     6.0000    0    12.011   -1.767366    0.369630   -0.027703
   5 C     6.0000    0    12.011   -0.519656    2.701741   -0.020239
   6 C     6.0000    0    12.011   -0.297726   -1.919470   -0.040421
   7 N     7.0000    0    14.007    0.914986   -3.739352   -0.050682
   8 H     1.0000    0     1.008   -5.614074    6.618407    0.013908
   9 H     1.0000    0     1.008   -0.929500    6.744092    0.000964
  10 H     1.0000    0     1.008   -5.415350   -1.497419   -0.027628
  11 H     1.0000    0     1.008   -7.850036    2.500693   -0.001493
  12 H     1.0000    0     1.008    1.525633    2.778313   -0.025360

--------------------------------
INTERNAL COORDINATES (ANGSTROEM)
--------------------------------
 C      0   0   0     0.000000000000     0.00000000     0.00000000
 C      1   0   0     1.398924037752     0.00000000     0.00000000
 C      2   1   0     1.397776298018   120.01900060     0.00000000
 C      1   2   3     1.400910504529   120.05578056     0.02352100
 C      4   1   2     1.404168359599   119.86670892     0.00000000
 C      3   2   1     1.396948612584   120.07413321     0.00000000
 C      5   4   1     1.439516300186   121.03388227   179.94017680
 N      7   5   4     1.157283782873   179.02287519   179.93425960
 H      2   1   3     1.082288876225   120.12353382   180.00083512
 H      3   2   1     1.081816101470   120.14529817   179.99304856
 H      4   1   2     1.083820040044   119.38087075   179.98524695
 H      1   2   3     1.082872754990   119.75664815   180.00881481
 H      6   3   2     1.083081620609   119.53914135   180.01027681

---------------------------
INTERNAL COORDINATES (A.U.)
---------------------------
 C      0   0   0     0.000000000000     0.00000000     0.00000000
 C      1   0   0     2.643583313510     0.00000000     0.00000000
 C      2   1   0     2.641414399740   120.01900060     0.00000000
 C      1   2   3     2.647337191693   120.05578056     0.02352100
 C      4   1   2     2.653493645560   119.86670892     0.00000000
 C      3   2   1     2.639850300945   120.07413321     0.00000000
 C      5   4   1     2.720291572666   121.03388227   179.94017680
 N      7   5   4     2.186949408858   179.02287519   179.93425960
 H      2   1   3     2.045229573854   120.12353382   180.00083512
 H      3   2   1     2.044336159045   120.14529817   179.99304856
 H      4   1   2     2.048123054138   119.38087075   179.98524695
 H      1   2   3     2.046332944816   119.75664815   180.00881481
 H      6   3   2     2.046727643634   119.53914135   180.01027681

---------------------
BASIS SET INFORMATION
---------------------
There are 3 groups of distinct atoms

 Group   1 Type C   : 10s4p1d contracted to 3s2p1d pattern {631/31/1}
 Group   2 Type N   : 10s4p1d contracted to 3s2p1d pattern {631/31/1}
 Group   3 Type H   : 4s contracted to 2s pattern {31}

Atom   0C    basis set group =>   1
Atom   1C    basis set group =>   1
Atom   2C    basis set group =>   1
Atom   3C    basis set group =>   1
Atom   4C    basis set group =>   1
Atom   5C    basis set group =>   1
Atom   6C    basis set group =>   1
Atom   7N    basis set group =>   2
Atom   8H    basis set group =>   3
Atom   9H    basis set group =>   3
Atom  10H    basis set group =>   3
Atom  11H    basis set group =>   3
Atom  12H    basis set group =>   3

-------------------------
BASIS SET IN INPUT FORMAT
-------------------------

 # Basis set for element : H 
 NewGTO H 
 S 3 
   1      18.7311370000      0.0334945995
   2       2.8253937000      0.2347269467
   3       0.6401217000      0.8137573184
 S 1 
   1       0.1612778000      1.0000000000
  end;

 # Basis set for element : C 
 NewGTO C 
 S 6 
   1    3047.5249000000      0.0018347002
   2     457.3695100000      0.0140373012
   3     103.9486900000      0.0688426061
   4      29.2101550000      0.2321844206
   5       9.2866630000      0.4679413416
   6       3.1639270000      0.3623120322
 S 3 
   1       7.8682724000     -0.1193324086
   2       1.8812885000     -0.1608542116
   3       0.5442493000      1.1434564826
 P 3 
   1       7.8682724000      0.0689990956
   2       1.8812885000      0.3164239798
   3       0.5442493000      0.7443082524
 S 1 
   1       0.1687144000      1.0000000000
 P 1 
   1       0.1687144000      1.0000000000
 D 1 
   1       0.8000000000      1.0000000000
  end;

 # Basis set for element : N 
 NewGTO N 
 S 6 
   1    4173.5110000000      0.0018347994
   2     627.4579000000      0.0139949958
   3     142.9021000000      0.0685869792
   4      40.2343300000      0.2322409295
   5      12.8202100000      0.4690698576
   6       4.3904370000      0.3604548906
 S 3 
   1      11.6263580000     -0.1149610229
   2       2.7162800000     -0.1691180337
   3       0.7722180000      1.1458522281
 P 3 
   1      11.6263580000      0.0675800232
   2       2.7162800000      0.3239071114
   3       0.7722180000      0.7408952549
 S 1 
   1       0.2120313000      1.0000000000
 P 1 
   1       0.2120313000      1.0000000000
 D 1 
   1       0.8000000000      1.0000000000
  end;

------------------------------------------------------------------------------
                           ORCA GTO INTEGRAL CALCULATION
------------------------------------------------------------------------------

                         BASIS SET STATISTICS AND STARTUP INFO

 # of primitive gaussian shells          ...  140
 # of primitive gaussian functions       ...  236
 # of contracted shells                  ...   58
 # of contracted basis functions         ...  122
 Highest angular momentum                ...    2
 Maximum contraction depth               ...    6
 Integral package used                   ... LIBINT
 Integral threshhold            Thresh   ...  2.500e-11
 Primitive cut-off              TCut     ...  2.500e-12


------------------------------ INTEGRAL EVALUATION ----------------------------


 * One electron integrals 
 Pre-screening matrix                    ... done
 Shell pair data                         ... done (   0.002 sec)

-------------------------------------------------------------------------------
                                 ORCA SCF
-------------------------------------------------------------------------------

------------
SCF SETTINGS
------------
Hamiltonian:
 Density Functional     Method          .... DFT(GTOs)
 Exchange Functional    Exchange        .... B88
   X-Alpha parameter    XAlpha          ....  0.666667
   Becke's b parameter  XBeta           ....  0.004200
 Correlation Functional Correlation     .... LYP
 LDA part of GGA corr.  LDAOpt          .... VWN-5
 Gradients option       PostSCFGGA      .... off
 Hybrid DFT is turned on
   Fraction HF Exchange ScalHFX         ....  0.200000
   Scaling of DF-GGA-X  ScalDFX         ....  0.720000
   Scaling of DF-GGA-C  ScalDFC         ....  0.810000
   Scaling of DF-LDA-C  ScalLDAC        ....  1.000000
   Perturbative correction              ....  0.000000
   Density functional embedding theory  .... OFF
   NL short-range parameter             ....  4.800000


General Settings:
 Integral files         IntName         .... /Users/lailaal-madhagi/Desktop/Testing_XAS_Analysis_code/Benzonitrile//Results_dir_Benzonitrile_geom_element_C_2019-11-05_19-31-48//GTE1_Benzonitrile_geom_2019-11-05_19-32-02//opt
 Hartree-Fock type      HFTyp           .... RHF
 Total Charge           Charge          ....    0
 Multiplicity           Mult            ....    1
 Number of Electrons    NEL             ....   54
 Basis Dimension        Dim             ....  122
 Nuclear Repulsion      ENuc            ....    298.9881941356 Eh

Convergence Acceleration:
 DIIS                   CNVDIIS         .... on
   Start iteration      DIISMaxIt       ....    12
   Startup error        DIISStart       ....  0.200000
   # of expansion vecs  DIISMaxEq       ....     5
   Bias factor          DIISBfac        ....   1.050
   Max. coefficient     DIISMaxC        ....  10.000
 Newton-Raphson         CNVNR           .... off
 SOSCF                  CNVSOSCF        .... on
   Start iteration      SOSCFMaxIt      ....   150
   Startup grad/error   SOSCFStart      ....  0.003300
 Level Shifting         CNVShift        .... on
   Level shift para.    LevelShift      ....    0.2500
   Turn off err/grad.   ShiftErr        ....    0.0010
 Zerner damping         CNVZerner       .... off
 Static damping         CNVDamp         .... on
   Fraction old density DampFac         ....    0.7000
   Max. Damping (<1)    DampMax         ....    0.9800
   Min. Damping (>=0)   DampMin         ....    0.0000
   Turn off err/grad.   DampErr         ....    0.1000
 Fernandez-Rico         CNVRico         .... off

SCF Procedure:
 Maximum # iterations   MaxIter         ....   125
 SCF integral mode      SCFMode         .... Direct
   Integral package                     .... LIBINT
 Reset frequency        DirectResetFreq ....    20
 Integral Threshold     Thresh          ....  2.500e-11 Eh
 Primitive CutOff       TCut            ....  2.500e-12 Eh

Convergence Tolerance:
 Convergence Check Mode ConvCheckMode   .... Total+1el-Energy
 Convergence forced     ConvForced      .... 0
 Energy Change          TolE            ....  1.000e-08 Eh
 1-El. energy change                    ....  1.000e-05 Eh
 Orbital Gradient       TolG            ....  1.000e-05
 Orbital Rotation angle TolX            ....  1.000e-05
 DIIS Error             TolErr          ....  5.000e-07


Diagonalization of the overlap matrix:
Smallest eigenvalue                        ... 4.895e-04
Time for diagonalization                   ...    0.003 sec
Threshold for overlap eigenvalues          ... 1.000e-08
Number of eigenvalues below threshold      ... 0
Time for construction of square roots      ...    0.003 sec
Total time needed                          ...    0.006 sec

-------------------
DFT GRID GENERATION
-------------------

General Integration Accuracy     IntAcc      ...  4.340
Radial Grid Type                 RadialGrid  ... Gauss-Chebyshev
Angular Grid (max. acc.)         AngularGrid ... Lebedev-194
Angular grid pruning method      GridPruning ... 3 (G Style)
Weight generation scheme         WeightScheme... Becke
Basis function cutoff            BFCut       ...    1.0000e-11
Integration weight cutoff        WCut        ...    1.0000e-14
Grids for H and He will be reduced by one unit

# of grid points (after initial pruning)     ...  33902 (   0.0 sec)
# of grid points (after weights+screening)   ...  31563 (   0.1 sec)
nearest neighbour list constructed           ...    0.0 sec
Grid point re-assignment to atoms done       ...    0.0 sec
Grid point division into batches done        ...    0.0 sec
Reduced shell lists constructed in    0.2 sec

Total number of grid points                  ...    31563
Total number of batches                      ...      501
Average number of points per batch           ...       63
Average number of grid points per atom       ...     2428
Average number of shells per batch           ...    40.45 (69.75%)
Average number of basis functions per batch  ...    87.07 (71.37%)
Average number of large shells per batch     ...    31.65 (78.23%)
Average number of large basis fcns per batch ...    68.13 (78.24%)
Maximum spatial batch extension              ...  19.77, 18.80, 22.17 au
Average spatial batch extension              ...   3.16,  3.19,  3.81 au

Time for grid setup =    0.279 sec

------------------------------
INITIAL GUESS: MODEL POTENTIAL
------------------------------
Loading Hartree-Fock densities                     ... done
Calculating cut-offs                               ... done
Setting up the integral package                    ... done
Initializing the effective Hamiltonian             ... done
Starting the Coulomb interaction                   ... done (   0.1 sec)
Reading the grid                                   ... done
Mapping shells                                     ... done
Starting the XC term evaluation                    ... done (   0.2 sec)
  promolecular density results
     # of electrons  =     53.997493822
     EX              =    -43.961307950
     EC              =     -1.804688488
     EX+EC           =    -45.765996438
Transforming the Hamiltonian                       ... done (   0.0 sec)
Diagonalizing the Hamiltonian                      ... done (   0.0 sec)
Back transforming the eigenvectors                 ... done (   0.0 sec)
Now organizing SCF variables                       ... done
                      ------------------
                      INITIAL GUESS DONE (   0.6 sec)
                      ------------------
--------------
SCF ITERATIONS
--------------
               ***  Starting incremental Fock matrix formation  ***

                         ----------------------------
                         !        ITERATION     0   !
                         ----------------------------
   Total Energy        :    -324.097814574559 Eh
   Energy Change       :    -324.097814574559 Eh
   MAX-DP              :       0.085783681498
   RMS-DP              :       0.003112897109
   Actual Damping      :       0.7000
   Actual Level Shift  :       0.2500 Eh
   Int. Num. El.       :    53.99985248 (UP=   26.99992624 DN=   26.99992624)
   Exchange            :   -35.94503835
   Correlation         :    -2.15763709


                         ----------------------------
                         !        ITERATION     1   !
                         ----------------------------
   Total Energy        :    -324.185462192014 Eh
   Energy Change       :      -0.087647617455 Eh
   MAX-DP              :       0.053275355389
   RMS-DP              :       0.002046266719
   Actual Damping      :       0.7000
   Actual Level Shift  :       0.2500 Eh
   Int. Num. El.       :    53.99981794 (UP=   26.99990897 DN=   26.99990897)
   Exchange            :   -35.72944488
   Correlation         :    -2.14889707

                               ***Turning on DIIS***

                         ----------------------------
                         !        ITERATION     2   !
                         ----------------------------
   Total Energy        :    -324.217829002694 Eh
   Energy Change       :      -0.032366810680 Eh
   MAX-DP              :       0.066094658420
   RMS-DP              :       0.003107861055
   Actual Damping      :       0.0000
   Actual Level Shift  :       0.2500 Eh
   Int. Num. El.       :    53.99979801 (UP=   26.99989901 DN=   26.99989901)
   Exchange            :   -35.58237281
   Correlation         :    -2.14258601
   DIIS-Error          :       0.034660621491


                         ----------------------------
                         !        ITERATION     3   !
                         ----------------------------
   Total Energy        :    -324.274680971133 Eh
   Energy Change       :      -0.056851968439 Eh
   MAX-DP              :       0.038163491643
   RMS-DP              :       0.001518605419
   Actual Damping      :       0.0000
   Actual Level Shift  :       0.2500 Eh
   Int. Num. El.       :    53.99976745 (UP=   26.99988373 DN=   26.99988373)
   Exchange            :   -35.34770884
   Correlation         :    -2.13183583
   DIIS-Error          :       0.044666296852
   DIIS coefficients:
      0.51639   0.48361


                         ----------------------------
                         !        ITERATION     4   !
                         ----------------------------
   Total Energy        :    -324.283224532189 Eh
   Energy Change       :      -0.008543561056 Eh
   MAX-DP              :       0.012590913204
   RMS-DP              :       0.000475881620
   Actual Damping      :       0.0000
   Actual Level Shift  :       0.2500 Eh
   Int. Num. El.       :    53.99977666 (UP=   26.99988833 DN=   26.99988833)
   Exchange            :   -35.43789619
   Correlation         :    -2.13598265
   DIIS-Error          :       0.033051106375
   DIIS coefficients:
      0.28980   0.20192   0.50828

                      *** Initiating the SOSCF procedure ***
                           *** Shutting down DIIS ***
                      *** Re-Reading the Fockian *** 
                      *** Removing any level shift *** 

                         ----------------------------
                         !        ITERATION     5   !
                         ----------------------------
   Total Energy        :    -324.284873802587 Eh
   Energy Change       :      -0.001649270398 Eh
   MAX-DP              :       0.002067847897
   RMS-DP              :       0.000131831342
   Orbital gradient    :       0.000952500741
   Orbital Rotation    :       0.000952500741
   Actual Damping      :       0.0000
   Int. Num. El.       :    53.99977572 (UP=   26.99988786 DN=   26.99988786)
   Exchange            :   -35.45257925
   Correlation         :    -2.13684517

               *** Restarting incremental Fock matrix formation ***

                         ----------------------------
                         !        ITERATION     6   !
                         ----------------------------
   Total Energy        :    -324.284912174192 Eh
   Energy Change       :      -0.000038371604 Eh
   MAX-DP              :       0.002790632262
   RMS-DP              :       0.000072333084
   Orbital gradient    :       0.000740496263
   Orbital Rotation    :       0.002000264502
   Actual Damping      :       0.0000
   Int. Num. El.       :    53.99977522 (UP=   26.99988761 DN=   26.99988761)
   Exchange            :   -35.45728747
   Correlation         :    -2.13702384


                         ----------------------------
                         !        ITERATION     7   !
                         ----------------------------
   Total Energy        :    -324.284897465874 Eh
   Energy Change       :       0.000014708317 Eh
   MAX-DP              :       0.001877492329
   RMS-DP              :       0.000050636187
   Orbital gradient    :       0.001932249410
   Orbital Rotation    :       0.001451696807
   Actual Damping      :       0.0000
   Int. Num. El.       :    53.99977491 (UP=   26.99988745 DN=   26.99988745)
   Exchange            :   -35.45682003
   Correlation         :    -2.13703153


                         ----------------------------
                         !        ITERATION     8   !
                         ----------------------------
   Total Energy        :    -324.284915841298 Eh
   Energy Change       :      -0.000018375423 Eh
   MAX-DP              :       0.000299147611
   RMS-DP              :       0.000011312655
   Orbital gradient    :       0.000074359259
   Orbital Rotation    :       0.000366102141
   Actual Damping      :       0.0000
   Int. Num. El.       :    53.99977489 (UP=   26.99988745 DN=   26.99988745)
   Exchange            :   -35.45746520
   Correlation         :    -2.13703786


                         ----------------------------
                         !        ITERATION     9   !
                         ----------------------------
   Total Energy        :    -324.284915658188 Eh
   Energy Change       :       0.000000183110 Eh
   MAX-DP              :       0.000195222661
   RMS-DP              :       0.000007476519
   Orbital gradient    :       0.000146672311
   Orbital Rotation    :       0.000255292821
   Actual Damping      :       0.0000
   Int. Num. El.       :    53.99977483 (UP=   26.99988742 DN=   26.99988742)
   Exchange            :   -35.45727744
   Correlation         :    -2.13702730


                         ----------------------------
                         !        ITERATION    10   !
                         ----------------------------
   Total Energy        :    -324.284915970145 Eh
   Energy Change       :      -0.000000311957 Eh
   MAX-DP              :       0.000052302467
   RMS-DP              :       0.000002174724
   Orbital gradient    :       0.000015515726
   Orbital Rotation    :       0.000041738292
   Actual Damping      :       0.0000
   Int. Num. El.       :    53.99977482 (UP=   26.99988741 DN=   26.99988741)
   Exchange            :   -35.45734634
   Correlation         :    -2.13703228


                         ----------------------------
                         !        ITERATION    11   !
                         ----------------------------
   Total Energy        :    -324.284915965365 Eh
   Energy Change       :       0.000000004779 Eh
   MAX-DP              :       0.000029276442
   RMS-DP              :       0.000001274441
   Orbital gradient    :       0.000016451045
   Orbital Rotation    :       0.000020944110
   Actual Damping      :       0.0000
   Int. Num. El.       :    53.99977484 (UP=   26.99988742 DN=   26.99988742)
   Exchange            :   -35.45738771
   Correlation         :    -2.13703447

                  ***Gradient check signals convergence***
              ***Rediagonalizing the Fockian in SOSCF/NRSCF***

               *****************************************************
               *                     SUCCESS                       *
               *           SCF CONVERGED AFTER  12 CYCLES          *
               *****************************************************

Setting up the final grid:

General Integration Accuracy     IntAcc      ...  5.010
Radial Grid Type                 RadialGrid  ... Gauss-Chebyshev
Angular Grid (max. acc.)         AngularGrid ... Lebedev-434
Angular grid pruning method      GridPruning ... 3 (G Style)
Weight generation scheme         WeightScheme... Becke
Basis function cutoff            BFCut       ...    1.0000e-11
Integration weight cutoff        WCut        ...    1.0000e-14
Grids for H and He will be reduced by one unit

# of grid points (after initial pruning)     ... 118936 (   0.0 sec)
# of grid points (after weights+screening)   ... 109861 (   0.1 sec)
nearest neighbour list constructed           ...    0.0 sec
Grid point re-assignment to atoms done       ...    0.0 sec
Grid point division into batches done        ...    0.6 sec
Reduced shell lists constructed in    1.1 sec

Total number of grid points                  ...   109861
Total number of batches                      ...     1723
Average number of points per batch           ...       63
Average number of grid points per atom       ...     8451
Average number of shells per batch           ...    37.36 (64.41%)
Average number of basis functions per batch  ...    80.13 (65.68%)
Average number of large shells per batch     ...    29.03 (77.71%)
Average number of large basis fcns per batch ...    62.32 (77.77%)
Maximum spatial batch extension              ...  21.04, 20.09, 24.00 au
Average spatial batch extension              ...   2.13,  2.17,  2.41 au

Final grid set up in    1.3 sec
Final integration                            ... done (   0.8 sec)
Change in XC energy                          ...    -0.000096351
Integrated number of electrons               ...    53.999999631
Previous integrated no of electrons          ...    53.999774832

----------------
TOTAL SCF ENERGY
----------------

Total Energy       :         -324.28501233 Eh           -8824.24380 eV

Components:
Nuclear Repulsion  :          298.98819414 Eh            8135.88238 eV
Electronic Energy  :         -623.27320646 Eh          -16960.12618 eV
One Electron Energy:        -1028.38473119 Eh          -27983.77120 eV
Two Electron Energy:          405.11152472 Eh           11023.64502 eV

Virial components:
Potential Energy   :         -646.59181925 Eh          -17594.65790 eV
Kinetic Energy     :          322.30680692 Eh            8770.41410 eV
Virial Ratio       :            2.00613765


DFT components:
N(Alpha)           :       26.999999815440 electrons
N(Beta)            :       26.999999815440 electrons
N(Total)           :       53.999999630879 electrons
E(X)               :      -35.457467247733 Eh       
E(C)               :       -2.137022712362 Eh       
E(XC)              :      -37.594489960095 Eh       
DFET-embed. en.    :        0.000000000000 Eh       

---------------
SCF CONVERGENCE
---------------

  Last Energy change         ...   -1.1046e-08  Tolerance :   1.0000e-08
  Last MAX-Density change    ...    4.4076e-06  Tolerance :   1.0000e-07
  Last RMS-Density change    ...    1.7387e-07  Tolerance :   5.0000e-09
  Last Orbital Gradient      ...    1.1921e-06  Tolerance :   1.0000e-05
  Last Orbital Rotation      ...    2.3646e-06  Tolerance :   1.0000e-05

             **** THE GBW FILE WAS UPDATED (/Users/lailaal-madhagi/Desktop/Testing_XAS_Analysis_code/Benzonitrile//Results_dir_Benzonitrile_geom_element_C_2019-11-05_19-31-48//GTE1_Benzonitrile_geom_2019-11-05_19-32-02//opt.gbw) ****
             **** DENSITY FILE WAS UPDATED (/Users/lailaal-madhagi/Desktop/Testing_XAS_Analysis_code/Benzonitrile//Results_dir_Benzonitrile_geom_element_C_2019-11-05_19-31-48//GTE1_Benzonitrile_geom_2019-11-05_19-32-02//opt.scfp.tmp) ****
             **** ENERGY FILE WAS UPDATED (/Users/lailaal-madhagi/Desktop/Testing_XAS_Analysis_code/Benzonitrile//Results_dir_Benzonitrile_geom_element_C_2019-11-05_19-31-48//GTE1_Benzonitrile_geom_2019-11-05_19-32-02//opt.en.tmp) ****
----------------
ORBITAL ENERGIES
----------------

  NO   OCC          E(Eh)            E(eV) 
   0   2.0000     -14.330255      -389.9461 
   1   2.0000     -10.234012      -278.4816 
   2   2.0000     -10.220241      -278.1069 
   3   2.0000     -10.211818      -277.8777 
   4   2.0000     -10.210345      -277.8376 
   5   2.0000     -10.206705      -277.7386 
   6   2.0000     -10.205588      -277.7082 
   7   2.0000     -10.204624      -277.6819 
   8   2.0000      -0.904692       -24.6179 
   9   2.0000      -0.873575       -23.7712 
  10   2.0000      -0.781560       -21.2673 
  11   2.0000      -0.766613       -20.8606 
  12   2.0000      -0.649924       -17.6853 
  13   2.0000      -0.627766       -17.0824 
  14   2.0000      -0.563086       -15.3224 
  15   2.0000      -0.505152       -13.7459 
  16   2.0000      -0.474694       -12.9171 
  17   2.0000      -0.458346       -12.4722 
  18   2.0000      -0.442074       -12.0294 
  19   2.0000      -0.400986       -10.9114 
  20   2.0000      -0.381384       -10.3780 
  21   2.0000      -0.371780       -10.1167 
  22   2.0000      -0.352440        -9.5904 
  23   2.0000      -0.344254        -9.3676 
  24   2.0000      -0.328095        -8.9279 
  25   2.0000      -0.271346        -7.3837 
  26   2.0000      -0.264301        -7.1920 
  27   0.0000      -0.047179        -1.2838 
  28   0.0000      -0.021974        -0.5979 
  29   0.0000       0.042116         1.1460 
  30   0.0000       0.076736         2.0881 
  31   0.0000       0.081572         2.2197 
  32   0.0000       0.129332         3.5193 
  33   0.0000       0.135282         3.6812 
  34   0.0000       0.168816         4.5937 
  35   0.0000       0.169018         4.5992 
  36   0.0000       0.179558         4.8860 
  37   0.0000       0.202093         5.4992 
  38   0.0000       0.279773         7.6130 
  39   0.0000       0.285131         7.7588 
  40   0.0000       0.298191         8.1142 
  41   0.0000       0.331781         9.0282 
  42   0.0000       0.386819        10.5259 
  43   0.0000       0.445368        12.1191 
  44   0.0000       0.497144        13.5280 
  45   0.0000       0.519534        14.1373 
  46   0.0000       0.532381        14.4868 
  47   0.0000       0.543457        14.7882 
  48   0.0000       0.543548        14.7907 
  49   0.0000       0.576414        15.6850 
  50   0.0000       0.579544        15.7702 
  51   0.0000       0.591805        16.1038 
  52   0.0000       0.603078        16.4106 
  53   0.0000       0.609432        16.5835 
  54   0.0000       0.622723        16.9452 
  55   0.0000       0.627282        17.0692 
  56   0.0000       0.644270        17.5315 
  57   0.0000       0.675715        18.3871 
  58   0.0000       0.691307        18.8114 
  59   0.0000       0.724129        19.7045 
  60   0.0000       0.757872        20.6227 
  61   0.0000       0.801520        21.8105 
  62   0.0000       0.824436        22.4340 
  63   0.0000       0.824717        22.4417 
  64   0.0000       0.845105        22.9965 
  65   0.0000       0.853303        23.2196 
  66   0.0000       0.879854        23.9420 
  67   0.0000       0.885642        24.0996 
  68   0.0000       0.898097        24.4385 
  69   0.0000       0.938371        25.5344 
  70   0.0000       0.964932        26.2571 
  71   0.0000       0.991948        26.9923 
  72   0.0000       1.071656        29.1612 
  73   0.0000       1.111470        30.2446 
  74   0.0000       1.132503        30.8170 
  75   0.0000       1.171038        31.8656 
  76   0.0000       1.186755        32.2933 
  77   0.0000       1.227787        33.4098 
  78   0.0000       1.275667        34.7127 
  79   0.0000       1.326430        36.0940 
  80   0.0000       1.414670        38.4951 
  81   0.0000       1.418694        38.6046 
  82   0.0000       1.425797        38.7979 
  83   0.0000       1.442020        39.2393 
  84   0.0000       1.469886        39.9976 
  85   0.0000       1.487341        40.4726 
  86   0.0000       1.538024        41.8518 
  87   0.0000       1.552989        42.2590 
  88   0.0000       1.612338        43.8740 
  89   0.0000       1.755807        47.7779 
  90   0.0000       1.781968        48.4898 
  91   0.0000       1.803359        49.0719 
  92   0.0000       1.822998        49.6063 
  93   0.0000       1.887229        51.3541 
  94   0.0000       1.920682        52.2644 
  95   0.0000       1.954657        53.1889 
  96   0.0000       1.961612        53.3782 
  97   0.0000       1.979204        53.8569 
  98   0.0000       2.016374        54.8683 
  99   0.0000       2.039743        55.5042 
 100   0.0000       2.065005        56.1916 
 101   0.0000       2.121485        57.7285 
 102   0.0000       2.122858        57.7659 
 103   0.0000       2.136557        58.1387 
 104   0.0000       2.146209        58.4013 
 105   0.0000       2.270901        61.7944 
 106   0.0000       2.280577        62.0577 
 107   0.0000       2.286726        62.2250 
 108   0.0000       2.486941        67.6731 
 109   0.0000       2.504226        68.1435 
 110   0.0000       2.572268        69.9950 
 111   0.0000       2.626689        71.4759 
 112   0.0000       2.634104        71.6776 
 113   0.0000       2.705947        73.6326 
 114   0.0000       2.712023        73.7979 
 115   0.0000       2.720424        74.0265 
 116   0.0000       2.804003        76.3008 
 117   0.0000       2.840587        77.2963 
 118   0.0000       2.861759        77.8724 
 119   0.0000       3.146758        85.6277 
 120   0.0000       3.278477        89.2119 
 121   0.0000       3.476846        94.6098 
------------------
MOLECULAR ORBITALS
------------------
                      0         1         2         3         4         5   
                 -14.33025 -10.23401 -10.22024 -10.21182 -10.21035 -10.20671
                   2.00000   2.00000   2.00000   2.00000   2.00000   2.00000
                  --------  --------  --------  --------  --------  --------
  0C   1s         0.000041 -0.000058  0.000393 -0.033823 -0.001514  0.192434
  0C   2s         0.000349  0.000081  0.000716  0.000850 -0.000580  0.005025
  0C   1pz       -0.000001 -0.000001 -0.000000 -0.000007  0.000000 -0.000005
  0C   1px        0.000150  0.000139  0.000054  0.000664 -0.000127 -0.000465
  0C   1py       -0.000036 -0.000091  0.000021 -0.001048 -0.000020 -0.001146
  0C   3s         0.000424  0.002485 -0.006494 -0.012897  0.005335  0.006586
  0C   2pz        0.000001 -0.000003  0.000018  0.000026 -0.000009  0.000000
  0C   2px       -0.001028  0.001461 -0.003676 -0.006172  0.003364  0.004175
  0C   2py       -0.000437  0.000278  0.001541  0.002013 -0.000048  0.002333
  0C   1dz2       0.000098  0.000055  0.000209 -0.000597 -0.000085  0.000484
  0C   1dxz       0.000001 -0.000000  0.000001 -0.000006 -0.000000 -0.000004
  0C   1dyz      -0.000001 -0.000000 -0.000002  0.000011  0.000001 -0.000005
  0C   1dx2y2    -0.000045  0.000000  0.000072 -0.000590 -0.000016  0.000611
  0C   1dxy       0.000013 -0.000056  0.000089 -0.000969 -0.000000 -0.000903
  1C   1s         0.000015  0.000290  0.000027 -0.001412  0.002241  0.970982
  1C   2s         0.000175  0.000414 -0.000075 -0.000052  0.000072  0.035007
  1C   1pz       -0.000001 -0.000001 -0.000000 -0.000001  0.000001 -0.000004
  1C   1px        0.000068  0.000061  0.000026 -0.000056 -0.000265  0.000440
  1C   1py       -0.000128 -0.000106 -0.000053 -0.000266  0.000071 -0.000515
  1C   3s         0.000870 -0.002826  0.003202  0.005689 -0.005672 -0.028358
  1C   2pz        0.000001  0.000011 -0.000016 -0.000018  0.000018  0.000033
  1C   2px       -0.000029 -0.001006  0.001351  0.001511 -0.001705 -0.003132
  1C   2py        0.000103  0.001654 -0.002391 -0.002703  0.002546  0.004664
  1C   1dz2       0.000051  0.000072 -0.000003  0.000015 -0.000016 -0.000411
  1C   1dxz       0.000000  0.000000  0.000000  0.000001  0.000000 -0.000002
  1C   1dyz      -0.000000 -0.000001  0.000000  0.000000  0.000000  0.000002
  1C   1dx2y2    -0.000010 -0.000004  0.000007 -0.000086 -0.000102  0.000179
  1C   1dxy      -0.000015 -0.000007  0.000022  0.000062  0.000031  0.000162
  2C   1s         0.000035 -0.000065  0.000352  0.001143  0.038051  0.101468
  2C   2s         0.000311  0.000068  0.000692  0.000553 -0.000716  0.001686
  2C   1pz       -0.000001 -0.000001 -0.000000 -0.000000  0.000007 -0.000004
  2C   1px       -0.000021  0.000020 -0.000027 -0.000072 -0.000652  0.001298
  2C   1py       -0.000156 -0.000166 -0.000036 -0.000102  0.001082 -0.000020
  2C   3s         0.000728  0.002608 -0.006578 -0.005275  0.012808  0.009110
  2C   2pz       -0.000000 -0.000004  0.000021  0.000011 -0.000028 -0.000004
  2C   2px        0.000893 -0.000901 -0.000028  0.001470 -0.000969 -0.004180
  2C   2py        0.000482 -0.001262  0.003955  0.002979 -0.006367 -0.003054
  2C   1dz2       0.000085  0.000055  0.000200  0.000086  0.000603  0.000536
  2C   1dxz       0.000000  0.000000  0.000001  0.000000  0.000007  0.000006
  2C   1dyz      -0.000001 -0.000000 -0.000002 -0.000001 -0.000010  0.000001
  2C   1dx2y2     0.000029 -0.000048  0.000026 -0.000011  0.000429 -0.001115
  2C   1dxy      -0.000040 -0.000030  0.000101  0.000016  0.001059 -0.000013
  3C   1s         0.000036 -0.009117  0.001039 -0.994537  0.001776 -0.007814
  3C   2s         0.000313  0.001451  0.000440 -0.036505  0.000133 -0.000655
  3C   1pz       -0.000000 -0.000003 -0.000002 -0.000002  0.000000 -0.000003
  3C   1px        0.000010  0.001273  0.000392 -0.000558 -0.000195  0.000137
  3C   1py       -0.000047  0.000027 -0.000339 -0.000738 -0.000112 -0.000467
  3C   3s        -0.001801 -0.008954  0.003660  0.033974 -0.006224 -0.003137
  3C   2pz       -0.000009  0.000003  0.000018  0.000025 -0.000013 -0.000005
  3C   2px       -0.000403 -0.003591 -0.001915  0.004475 -0.001697 -0.001380
  3C   2py       -0.002406 -0.001035  0.002789  0.007215 -0.003565 -0.001972
  3C   1dz2       0.000105 -0.000661  0.000136  0.000546 -0.000043  0.000092
  3C   1dxz      -0.000000 -0.000005 -0.000001  0.000005 -0.000001  0.000001
  3C   1dyz      -0.000001 -0.000000  0.000000 -0.000004  0.000001 -0.000002
  3C   1dx2y2     0.000061  0.001097  0.000015 -0.000258 -0.000036  0.000139
  3C   1dxy      -0.000102  0.000068 -0.000414  0.000354 -0.000106  0.000191
  4C   1s         0.000192 -0.994979  0.008509  0.009198 -0.009020  0.000317
  4C   2s         0.000531 -0.036763  0.002840  0.002259 -0.002280 -0.000350
  4C   1pz        0.000003  0.000001 -0.000008  0.000004 -0.000004 -0.000002
  4C   1px       -0.000344 -0.000269  0.000910 -0.001397 -0.000569  0.000154
  4C   1py        0.000490  0.000358 -0.001490  0.000058 -0.001301 -0.000235
  4C   3s        -0.024190  0.031095 -0.021898 -0.011375  0.011441  0.001269
  4C   2pz        0.000087  0.000008  0.000056 -0.000047  0.000050  0.000028
  4C   2px       -0.009462 -0.000301 -0.005894  0.007769 -0.002615 -0.002931
  4C   2py        0.015586  0.000833  0.010562 -0.006444  0.009764  0.004800
  4C   1dz2       0.000565  0.000816 -0.000826 -0.000684  0.000692 -0.000078
  4C   1dxz       0.000004  0.000003 -0.000008 -0.000005 -0.000003 -0.000000
  4C   1dyz      -0.000007 -0.000006  0.000012  0.000000 -0.000006  0.000000
  4C   1dx2y2     0.000338 -0.000019 -0.000696  0.001113  0.000586  0.000044
  4C   1dxy       0.000712  0.000014 -0.001479  0.000094 -0.000950  0.000109
  5C   1s         0.000047 -0.008901  0.000866  0.001733  0.994377 -0.005759
  5C   2s         0.000365  0.001487  0.000537  0.000007  0.036548 -0.000436
  5C   1pz        0.000000 -0.000004 -0.000002 -0.000000  0.000002 -0.000002
  5C   1px        0.000029 -0.000603  0.000124 -0.000194 -0.000915  0.000303
  5C   1py        0.000013 -0.001129 -0.000494 -0.000120 -0.000180 -0.000232
  5C   3s        -0.002542 -0.009311  0.002741  0.005931 -0.033906 -0.004049
  5C   2pz       -0.000009  0.000005  0.000022  0.000011 -0.000021 -0.000006
  5C   2px        0.002504  0.002658 -0.001594 -0.003848  0.008412  0.002635
  5C   2py       -0.000739  0.002766  0.003755  0.000150  0.000723  0.000186
  5C   1dz2       0.000125 -0.000659  0.000169  0.000045 -0.000565  0.000026
  5C   1dxz       0.000001  0.000003  0.000000  0.000000 -0.000001  0.000001
  5C   1dyz      -0.000001  0.000006  0.000001 -0.000001  0.000007 -0.000001
  5C   1dx2y2    -0.000093 -0.000609 -0.000303  0.000065 -0.000466  0.000015
  5C   1dxy       0.000011  0.000910 -0.000211  0.000095 -0.000010  0.000134
  6C   1s        -0.000504 -0.008559 -0.995040 -0.000899  0.000712  0.000088
  6C   2s        -0.000669  0.001338 -0.037889  0.000477 -0.000496 -0.000214
  6C   1pz       -0.000012  0.000004  0.000004  0.000001 -0.000001  0.000000
  6C   1px        0.001427 -0.000493 -0.000508 -0.000110  0.000012 -0.000019
  6C   1py       -0.002116  0.000768  0.000661  0.000041 -0.000110  0.000033
  6C   3s        -0.007171 -0.007205  0.011996 -0.003663  0.003807  0.002930
  6C   2pz        0.000186 -0.000014  0.000141 -0.000018  0.000018  0.000014
  6C   2px       -0.022049  0.001478 -0.016455  0.001962 -0.002185 -0.001788
  6C   2py        0.033341 -0.002358  0.025170 -0.003278  0.003150  0.002686
  6C   1dz2      -0.001298 -0.001026  0.001733  0.000121 -0.000125 -0.000037
  6C   1dxz      -0.000012 -0.000008  0.000016  0.000000 -0.000000 -0.000000
  6C   1dyz       0.000018  0.000013 -0.000024 -0.000001  0.000001  0.000001
  6C   1dx2y2    -0.000914 -0.000611  0.001269  0.000047  0.000019 -0.000028
  6C   1dxy      -0.002130 -0.001318  0.002933 -0.000016 -0.000009 -0.000065
  7N   1s        -0.995518 -0.000040  0.000411  0.000014 -0.000012 -0.000011
  7N   2s        -0.035082 -0.000904 -0.000389  0.000159 -0.000138 -0.000154
  7N   1pz       -0.000018 -0.000003  0.000013 -0.000000  0.000000 -0.000000
  7N   1px        0.002111  0.000329 -0.001559  0.000014  0.000005  0.000003
  7N   1py       -0.003156 -0.000478  0.002346 -0.000005  0.000018 -0.000004
  7N   3s         0.049771  0.001037  0.026395 -0.001929  0.001849  0.001677
  7N   2pz        0.000071  0.000004  0.000047 -0.000002  0.000001  0.000002
  7N   2px       -0.008337 -0.000446 -0.005555  0.000197 -0.000229 -0.000186
  7N   2py        0.012438  0.000713  0.008142 -0.000325  0.000252  0.000284
  7N   1dz2       0.000484  0.000149 -0.000841 -0.000020  0.000024  0.000012
  7N   1dxz       0.000004  0.000001 -0.000008 -0.000000  0.000000  0.000000
  7N   1dyz      -0.000006 -0.000002  0.000011  0.000000 -0.000000 -0.000000
  7N   1dx2y2     0.000326  0.000070 -0.000537  0.000014  0.000023  0.000007
  7N   1dxy       0.000780  0.000219 -0.001369 -0.000018  0.000007  0.000020
  8H   1s        -0.000031 -0.000057  0.000171  0.000078 -0.000078 -0.001375
  8H   2s        -0.000218 -0.000582  0.000597  0.000501 -0.000484  0.002931
  9H   1s        -0.000069  0.000051 -0.000007 -0.000093 -0.000170 -0.000280
  9H   2s        -0.000592  0.000199 -0.001005 -0.000880  0.001382  0.001389
 10H   1s        -0.000143  0.000251  0.000351  0.001382 -0.000107 -0.000107
 10H   2s        -0.000816 -0.000179 -0.000227 -0.002257 -0.000863 -0.000521
 11H   1s        -0.000074  0.000051 -0.000029  0.000160  0.000095 -0.000402
 11H   2s        -0.000637  0.000184 -0.001067 -0.001382  0.000889  0.001665
 12H   1s        -0.000168  0.000244  0.000380  0.000101 -0.001381 -0.000086
 12H   2s        -0.000737 -0.000187 -0.000185  0.000855  0.002269 -0.000527
                      6         7         8         9        10        11   
                 -10.20559 -10.20462  -0.90469  -0.87357  -0.78156  -0.76661
                   2.00000   2.00000   2.00000   2.00000   2.00000   2.00000
                  --------  --------  --------  --------  --------  --------
  0C   1s         0.975516  0.022679 -0.024136 -0.083048 -0.076211  0.108860
  0C   2s         0.036262  0.001098  0.047302  0.156962  0.148393 -0.213022
  0C   1pz       -0.000001  0.000000 -0.000067 -0.000136  0.000346  0.000338
  0C   1px        0.001044 -0.000081  0.018342  0.054866  0.019215 -0.021828
  0C   1py        0.000210 -0.000039 -0.004137 -0.000064  0.078261  0.058880
  0C   3s        -0.034796 -0.007571  0.012756  0.110080  0.102528 -0.159298
  0C   2pz        0.000018  0.000007  0.000032 -0.000041  0.000079  0.000035
  0C   2px       -0.008540 -0.003665 -0.007433  0.012167 -0.004843  0.006793
  0C   2py       -0.000684 -0.000371  0.002021 -0.001882  0.012826  0.011085
  0C   1dz2      -0.000720 -0.000124 -0.002241 -0.008183 -0.005998  0.008269
  0C   1dxz      -0.000001 -0.000000 -0.000012 -0.000039  0.000010  0.000064
  0C   1dyz       0.000009  0.000002  0.000020  0.000071  0.000037 -0.000087
  0C   1dx2y2    -0.000582 -0.000100  0.000011  0.000136 -0.000594  0.000333
  0C   1dxy       0.000127  0.000033 -0.000433 -0.000257  0.007287  0.005450
  1C   1s        -0.189235 -0.108144 -0.021655 -0.082453 -0.125441 -0.002417
  1C   2s        -0.008911 -0.006106  0.040675  0.156626  0.244330  0.004705
  1C   1pz        0.000005  0.000004 -0.000097 -0.000317 -0.000200  0.000031
  1C   1px        0.000536 -0.001327  0.008836  0.028799  0.015903  0.094529
  1C   1py        0.001278  0.000112 -0.014090 -0.045995 -0.029077  0.057737
  1C   3s         0.018837  0.017191  0.033369  0.093438  0.179732  0.003695
  1C   2pz       -0.000042 -0.000040 -0.000048 -0.000017  0.000016  0.000006
  1C   2px        0.001594  0.005616  0.004291  0.001611 -0.001953  0.016021
  1C   2py       -0.007306 -0.004644 -0.006868 -0.002687  0.002138  0.009932
  1C   1dz2       0.000700  0.000703 -0.002245 -0.008003 -0.009883 -0.000190
  1C   1dxz      -0.000004  0.000006 -0.000011 -0.000040 -0.000046 -0.000049
  1C   1dyz      -0.000006  0.000000  0.000021  0.000072  0.000087 -0.000032
  1C   1dx2y2     0.000533 -0.001141 -0.000053 -0.000057  0.000119  0.008927
  1C   1dxy      -0.001067 -0.000243 -0.000122 -0.000178  0.000707 -0.004490
  2C   1s        -0.042863  0.988298 -0.024619 -0.083954 -0.072250 -0.111441
  2C   2s        -0.001143  0.036616  0.048013  0.158645  0.140570  0.217919
  2C   1pz        0.000001 -0.000003 -0.000078 -0.000171  0.000325 -0.000319
  2C   1px       -0.000017 -0.000533 -0.004262 -0.024262 -0.080304  0.039858
  2C   1py        0.000108 -0.000857 -0.018675 -0.049732  0.020156 -0.044583
  2C   3s        -0.006508 -0.034621  0.014299  0.111006  0.096169  0.162914
  2C   2pz        0.000009  0.000024  0.000031 -0.000046  0.000083 -0.000025
  2C   2px        0.002159  0.004186  0.001543 -0.003714 -0.010141  0.012808
  2C   2py        0.003021  0.007279  0.006522 -0.011505  0.010512  0.001376
  2C   1dz2      -0.000132 -0.000695 -0.002317 -0.008232 -0.005664 -0.008435
  2C   1dxz      -0.000001 -0.000006 -0.000012 -0.000039 -0.000026 -0.000046
  2C   1dyz       0.000001  0.000005  0.000022  0.000072  0.000007  0.000100
  2C   1dx2y2     0.000166  0.000357 -0.000405 -0.000295  0.006444 -0.003830
  2C   1dxy      -0.000037 -0.000412 -0.000311 -0.000044  0.004025 -0.003287
  3C   1s        -0.033114  0.000346 -0.038277 -0.086290  0.040311  0.116256
  3C   2s        -0.003286 -0.000499  0.073295  0.164581 -0.079241 -0.228213
  3C   1pz       -0.000007 -0.000000 -0.000015  0.000170  0.000459 -0.000305
  3C   1px        0.000636 -0.000071  0.026663  0.030062 -0.091004  0.034132
  3C   1py       -0.001106 -0.000124  0.008941  0.048287  0.048146 -0.040979
  3C   3s         0.015407  0.004628  0.055089  0.091318 -0.054170 -0.171077
  3C   2pz        0.000029  0.000012  0.000043 -0.000031  0.000112 -0.000001
  3C   2px        0.001318  0.001162  0.003059  0.000416 -0.011500  0.009201
  3C   2py        0.006448  0.002963  0.010124 -0.006746  0.017082  0.005542
  3C   1dz2       0.000629 -0.000050 -0.003899 -0.008399  0.003260  0.008851
  3C   1dxz       0.000007 -0.000000 -0.000021 -0.000036  0.000015  0.000045
  3C   1dyz      -0.000010  0.000001  0.000027  0.000070  0.000022 -0.000100
  3C   1dx2y2     0.000409  0.000003  0.001457  0.000232 -0.007952  0.003475
  3C   1dxy       0.001031 -0.000006 -0.000145  0.000095 -0.003567  0.003050
  4C   1s         0.000214  0.000284 -0.067127 -0.090097  0.127798  0.003400
  4C   2s         0.000281  0.000272  0.133369  0.173610 -0.253520 -0.006771
  4C   1pz       -0.000001 -0.000001 -0.000064  0.000311  0.000112  0.000037
  4C   1px        0.000108  0.000061  0.010458 -0.029594 -0.018390  0.107505
  4C   1py       -0.000093 -0.000160 -0.013455  0.050034  0.019834  0.066462
  4C   3s        -0.007957 -0.008196  0.002700  0.118965 -0.192733 -0.005056
  4C   2pz       -0.000010 -0.000009  0.000118  0.000149  0.000066  0.000008
  4C   2px        0.002048 -0.000203 -0.011955 -0.016045 -0.007163  0.016087
  4C   2py       -0.001016 -0.001997  0.022193  0.023800  0.012347  0.010411
  4C   1dz2      -0.000003 -0.000019 -0.006367 -0.007399  0.008221  0.000200
  4C   1dxz       0.000001 -0.000000 -0.000033 -0.000024  0.000028  0.000042
  4C   1dyz       0.000000 -0.000000  0.000057  0.000048 -0.000055  0.000028
  4C   1dx2y2    -0.000019  0.000097 -0.001075  0.001168 -0.000491 -0.008511
  4C   1dxy       0.000107  0.000073 -0.002521  0.002486 -0.001071  0.004230
  5C   1s         0.003512 -0.037714 -0.039500 -0.087642  0.046063 -0.113142
  5C   2s        -0.000249 -0.003528  0.075789  0.166850 -0.090257  0.221802
  5C   1pz        0.000000 -0.000007 -0.000034  0.000143  0.000490  0.000334
  5C   1px        0.000075  0.000754 -0.019930 -0.057043 -0.001827 -0.020422
  5C   1py        0.000090 -0.001110 -0.020512 -0.005291  0.103423  0.054158
  5C   3s         0.004210  0.015588  0.052981  0.094482 -0.063456  0.165787
  5C   2pz        0.000009  0.000027  0.000038 -0.000032  0.000122  0.000009
  5C   2px       -0.003111 -0.006358 -0.009309  0.005988 -0.011308  0.009511
  5C   2py        0.000163  0.001785  0.002233 -0.004066  0.019409  0.006292
  5C   1dz2      -0.000091  0.000641 -0.003949 -0.008513  0.003728 -0.008572
  5C   1dxz      -0.000001  0.000006 -0.000012 -0.000040 -0.000028 -0.000065
  5C   1dyz       0.000001 -0.000011  0.000034  0.000070 -0.000015  0.000087
  5C   1dx2y2    -0.000043  0.000596 -0.000968 -0.000157  0.002010 -0.000354
  5C   1dxy      -0.000068  0.000956  0.001086  0.000135 -0.008292 -0.005109
  6C   1s         0.000202  0.000187 -0.151818  0.040220  0.026037  0.000683
  6C   2s        -0.000273 -0.000290  0.274490 -0.070858 -0.057249 -0.001504
  6C   1pz        0.000000  0.000000 -0.000708  0.000652 -0.000763 -0.000005
  6C   1px        0.000013  0.000007  0.084705 -0.075893  0.088090  0.015049
  6C   1py       -0.000014 -0.000010 -0.125316  0.115601 -0.136734  0.006715
  6C   3s         0.000543  0.000873  0.116614 -0.012369 -0.035490 -0.000633
  6C   2pz        0.000008  0.000009  0.000500 -0.000010 -0.000019  0.000000
  6C   2px       -0.001261 -0.000777 -0.058589  0.000936  0.001743  0.003639
  6C   2py        0.001286  0.001878  0.089281 -0.000772 -0.003669  0.002029
  6C   1dz2      -0.000043 -0.000047 -0.012151  0.001840  0.003063  0.000062
  6C   1dxz      -0.000000 -0.000000 -0.000105  0.000017  0.000023  0.000010
  6C   1dyz       0.000001  0.000001  0.000161 -0.000024 -0.000039  0.000006
  6C   1dx2y2    -0.000015 -0.000047 -0.007805  0.001070  0.002051 -0.002053
  6C   1dxy      -0.000070 -0.000064 -0.018248  0.003133  0.003765  0.001096
  7N   1s        -0.000009 -0.000009 -0.158833  0.078817 -0.045187 -0.000503
  7N   2s        -0.000111 -0.000115  0.317430 -0.161785  0.094103  0.001082
  7N   1pz       -0.000000 -0.000000  0.000844 -0.000405  0.000197  0.000004
  7N   1px       -0.000006  0.000012 -0.099523  0.047971 -0.023729  0.002784
  7N   1py       -0.000008  0.000001  0.149752 -0.071717  0.034701  0.002424
  7N   3s         0.001188  0.001252  0.344420 -0.140277  0.087810  0.000742
  7N   2pz        0.000002  0.000002  0.000308 -0.000094  0.000034  0.000000
  7N   2px       -0.000045 -0.000262 -0.036392  0.011319 -0.004056  0.000750
  7N   2py        0.000285  0.000142  0.054347 -0.017112  0.006021  0.000458
  7N   1dz2       0.000010  0.000011 -0.008039  0.003979 -0.001954 -0.000029
  7N   1dxz       0.000000 -0.000000 -0.000072  0.000036 -0.000018  0.000002
  7N   1dyz      -0.000000 -0.000000  0.000108 -0.000053  0.000026  0.000002
  7N   1dx2y2    -0.000013  0.000031 -0.005279  0.002579 -0.001180 -0.000664
  7N   1dxy       0.000026  0.000011 -0.012617  0.006281 -0.003098  0.000229
  8H   1s         0.000138  0.000014  0.007330  0.030675  0.069416  0.001528
  8H   2s         0.000654  0.000958  0.001874  0.002784  0.012099  0.000304
  9H   1s         0.000024 -0.001347  0.008243  0.031307  0.039383  0.065998
  9H   2s        -0.000808  0.002405 -0.002154  0.004697  0.006213  0.011646
 10H   1s        -0.000097  0.000096  0.015737  0.031658 -0.024863 -0.069457
 10H   2s         0.000993  0.000842  0.004258 -0.001867 -0.001266 -0.011101
 11H   1s        -0.001312 -0.000075  0.008023  0.030918  0.041729 -0.064212
 11H   2s         0.002302 -0.000525 -0.002418  0.004773  0.006671 -0.011340
 12H   1s         0.000109 -0.000090  0.016470  0.032185 -0.028466  0.067628
 12H   2s         0.000860  0.000976  0.004482 -0.002256 -0.001254  0.010505
                     12        13        14        15        16        17   
                  -0.64992  -0.62777  -0.56309  -0.50515  -0.47469  -0.45835
                   2.00000   2.00000   2.00000   2.00000   2.00000   2.00000
                  --------  --------  --------  --------  --------  --------
  0C   1s        -0.023433 -0.092416 -0.042625  0.057007 -0.004751  0.015481
  0C   2s         0.047694  0.188114  0.088274 -0.115732  0.010461 -0.029697
  0C   1pz       -0.000885  0.000584  0.000146  0.000215  0.001408 -0.000406
  0C   1px        0.005842 -0.060312 -0.171736 -0.030195 -0.028134  0.231318
  0C   1py       -0.172546  0.083383 -0.063709  0.026383  0.261794  0.039941
  0C   3s         0.017802  0.139994  0.104112 -0.152108  0.013010 -0.025152
  0C   2pz       -0.000163  0.000262  0.000035  0.000156  0.000417 -0.000327
  0C   2px       -0.012924 -0.047315 -0.062554 -0.016240 -0.016647  0.077567
  0C   2py       -0.038982  0.026474 -0.026642  0.021374  0.072623 -0.023474
  0C   1dz2      -0.001000 -0.004336 -0.002506  0.001463 -0.000167  0.002312
  0C   1dxz      -0.000057 -0.000013 -0.000020  0.000027  0.000016  0.000081
  0C   1dyz       0.000019  0.000006  0.000017  0.000052 -0.000015  0.000020
  0C   1dx2y2     0.002390  0.004535  0.001124 -0.011459  0.001522 -0.012177
  0C   1dxy      -0.009015  0.003966 -0.000859 -0.001986  0.003835  0.007375
  1C   1s         0.107538  0.003719  0.027363 -0.056059  0.000718 -0.040272
  1C   2s        -0.219006 -0.007533 -0.054707  0.113670 -0.001454  0.084230
  1C   1pz       -0.000356 -0.000077  0.000476  0.001593 -0.000035 -0.001180
  1C   1px        0.037316 -0.168696 -0.041521 -0.140387 -0.227243  0.098157
  1C   1py       -0.049424 -0.106904  0.070463  0.229512 -0.130441 -0.175853
  1C   3s        -0.163235 -0.006778 -0.032468  0.137471 -0.002970  0.130379
  1C   2pz       -0.000320 -0.000024  0.000120  0.000510 -0.000013 -0.000376
  1C   2px        0.029765 -0.040124 -0.010483 -0.045525 -0.084013  0.031372
  1C   2py       -0.046022 -0.026235  0.018244  0.074149 -0.047792 -0.056710
  1C   1dz2       0.005404  0.000187  0.000391 -0.003438 -0.000029  0.000771
  1C   1dxz       0.000036  0.000045  0.000024 -0.000060  0.000021 -0.000007
  1C   1dyz      -0.000066  0.000028 -0.000036  0.000095  0.000015  0.000008
  1C   1dx2y2     0.001745 -0.007774  0.003027 -0.005846 -0.003651 -0.001490
  1C   1dxy       0.002655  0.004138  0.005998 -0.011378  0.001854 -0.002850
  2C   1s        -0.030174  0.089100 -0.043592  0.057276  0.004619  0.015463
  2C   2s         0.061279 -0.181437  0.090272 -0.116288 -0.010472 -0.029748
  2C   1pz       -0.000810 -0.000644  0.000275  0.000227 -0.001305 -0.000639
  2C   1px        0.150014  0.058770  0.133537 -0.011369  0.228559 -0.125832
  2C   1py       -0.078318 -0.095389  0.127996  0.039302 -0.130044 -0.198401
  2C   3s         0.027107 -0.132608  0.106003 -0.151711 -0.013370 -0.024816
  2C   2pz       -0.000126 -0.000293  0.000079  0.000155 -0.000380 -0.000391
  2C   2px        0.040349  0.005062  0.052225 -0.012338  0.057166 -0.009606
  2C   2py       -0.002533 -0.055224  0.044564  0.023438 -0.042858 -0.082957
  2C   1dz2      -0.001347  0.004135 -0.002543  0.001439 -0.000010  0.002340
  2C   1dxz       0.000004 -0.000007 -0.000004 -0.000062 -0.000007 -0.000053
  2C   1dyz       0.000063 -0.000015  0.000027 -0.000008  0.000024 -0.000070
  2C   1dx2y2    -0.008636 -0.001150 -0.001181  0.005206 -0.002808  0.012811
  2C   1dxy      -0.003069 -0.006172  0.000668 -0.010495 -0.003329 -0.005677
  3C   1s        -0.073741  0.081406 -0.003370 -0.052398  0.009352 -0.017842
  3C   2s         0.148597 -0.165502  0.009008  0.104703 -0.023421  0.035594
  3C   1pz        0.000478  0.000713 -0.000028 -0.000901 -0.001129  0.000014
  3C   1px       -0.095781 -0.079127 -0.172857  0.003021  0.248216 -0.159174
  3C   1py        0.051028  0.107449 -0.102546 -0.174470 -0.107600 -0.088264
  3C   3s         0.127595 -0.135114  0.000254  0.173880  0.020895  0.020038
  3C   2pz        0.000112  0.000332 -0.000114 -0.000162 -0.000490 -0.000210
  3C   2px       -0.032598 -0.015704 -0.051627  0.001235  0.114203 -0.025379
  3C   2py        0.007320  0.061293 -0.053009 -0.027356 -0.044502 -0.062092
  3C   1dz2      -0.003692  0.004076 -0.000899 -0.002942 -0.000521 -0.001537
  3C   1dxz       0.000006 -0.000008 -0.000026  0.000046 -0.000017  0.000047
  3C   1dyz       0.000050 -0.000006  0.000038 -0.000006 -0.000024  0.000080
  3C   1dx2y2    -0.005134 -0.002314 -0.003116 -0.000605  0.006042 -0.015260
  3C   1dxy       0.002592 -0.006019 -0.006522  0.012896 -0.000522  0.002391
  4C   1s         0.070327  0.003620  0.028550  0.010747 -0.002582  0.059537
  4C   2s        -0.145989 -0.007482 -0.060484 -0.021397  0.005154 -0.125799
  4C   1pz        0.000867  0.000089 -0.001293  0.000594 -0.000065 -0.000935
  4C   1px       -0.103187  0.187079  0.138895 -0.073699 -0.244638  0.097479
  4C   1py        0.148360  0.121638 -0.224288  0.122053 -0.146738 -0.171398
  4C   3s        -0.112982 -0.006163 -0.009987 -0.022287  0.008932 -0.191320
  4C   2pz        0.000284  0.000028 -0.000310 -0.000250 -0.000024  0.000002
  4C   2px       -0.030814  0.031898  0.033369  0.023103 -0.018765  0.000732
  4C   2py        0.049577  0.023528 -0.055581 -0.034145 -0.015213 -0.004600
  4C   1dz2       0.002365  0.000089 -0.000482  0.000747  0.000017 -0.000658
  4C   1dxz       0.000031  0.000026 -0.000013  0.000055  0.000009 -0.000011
  4C   1dyz      -0.000046  0.000015  0.000015 -0.000079  0.000006  0.000017
  4C   1dx2y2     0.003576 -0.005000 -0.001598  0.007879 -0.002166 -0.001290
  4C   1dxy       0.007499  0.002892 -0.004052  0.016171  0.001010 -0.002596
  5C   1s        -0.068501 -0.085374 -0.001376 -0.052902 -0.008575 -0.018166
  5C   2s         0.137985  0.173337  0.004795  0.105748  0.021780  0.036432
  5C   1pz        0.000574 -0.000678  0.000089 -0.000873  0.001198  0.000196
  5C   1px       -0.006998  0.062274  0.168992  0.154873  0.009335  0.147638
  5C   1py        0.119202 -0.108259  0.108246 -0.084103  0.261947  0.118974
  5C   3s         0.117101  0.139949 -0.002415  0.173540 -0.020485  0.019702
  5C   2pz        0.000157 -0.000321 -0.000077 -0.000163  0.000543 -0.000154
  5C   2px        0.004907  0.050849  0.070417  0.025057  0.007160  0.066195
  5C   2py        0.037179 -0.039062  0.021146 -0.014105  0.121418  0.000944
  5C   1dz2      -0.003330 -0.004248 -0.000892 -0.002930  0.000617 -0.001506
  5C   1dxz      -0.000042 -0.000006 -0.000025 -0.000005 -0.000022 -0.000092
  5C   1dyz       0.000016  0.000001  0.000041 -0.000043 -0.000008 -0.000014
  5C   1dx2y2     0.005035  0.003768 -0.003618  0.010798  0.003424  0.011095
  5C   1dxy      -0.002943  0.004879 -0.006501  0.007215 -0.003587 -0.011275
  6C   1s         0.063920  0.002090 -0.058160  0.056078  0.000828 -0.039778
  6C   2s        -0.134246 -0.004437  0.123966 -0.119170 -0.001775  0.080963
  6C   1pz       -0.000935 -0.000006  0.000710 -0.000634 -0.000054  0.000353
  6C   1px        0.108170  0.042565 -0.084303  0.073778 -0.085363 -0.043943
  6C   1py       -0.168760  0.021234  0.128774 -0.108151 -0.058622  0.061505
  6C   3s        -0.103011 -0.001999  0.126233 -0.156700 -0.006830  0.140908
  6C   2pz       -0.000119  0.000003  0.000016 -0.000386 -0.000030  0.000265
  6C   2px        0.013158  0.017177 -0.002769  0.046409 -0.053200 -0.034072
  6C   2py       -0.021851  0.010031  0.004219 -0.068564 -0.036122  0.048370
  6C   1dz2       0.003639  0.000085 -0.001681  0.000871  0.000079 -0.000436
  6C   1dxz       0.000030  0.000022 -0.000012  0.000016 -0.000028 -0.000002
  6C   1dyz      -0.000049  0.000014  0.000018 -0.000022 -0.000021  0.000001
  6C   1dx2y2     0.002798 -0.004967 -0.000836  0.001582  0.006665  0.000305
  6C   1dxy       0.005378  0.002598 -0.001914  0.003775 -0.003161  0.000045
  7N   1s        -0.039801 -0.000826  0.032462 -0.027111 -0.000798  0.024043
  7N   2s         0.084771  0.001894 -0.067645  0.061206  0.001419 -0.053507
  7N   1pz        0.000099  0.000009 -0.000012 -0.000070 -0.000028  0.000120
  7N   1px       -0.012379  0.012483  0.001383  0.008011 -0.044947 -0.015405
  7N   1py        0.016918  0.008803 -0.001300 -0.010115 -0.030819  0.020781
  7N   3s         0.086079  0.001005 -0.103839  0.044274  0.004165 -0.059612
  7N   2pz       -0.000002 -0.000000 -0.000012 -0.000092 -0.000005  0.000081
  7N   2px        0.000217  0.002713  0.001689  0.010367 -0.012376 -0.009226
  7N   2py       -0.000496  0.001295 -0.002009 -0.014527 -0.007620  0.013365
  7N   1dz2      -0.000961 -0.000027  0.000076  0.000243  0.000013 -0.000854
  7N   1dxz      -0.000009  0.000008  0.000002  0.000004 -0.000020 -0.000008
  7N   1dyz       0.000012  0.000007 -0.000002 -0.000005 -0.000017  0.000011
  7N   1dx2y2    -0.000457 -0.002034  0.000033  0.000145  0.005084 -0.000350
  7N   1dxy      -0.001469  0.000815  0.000229  0.000662 -0.002106 -0.001187
  8H   1s        -0.109231 -0.004332  0.013778  0.202813  0.003507 -0.074321
  8H   2s        -0.029920 -0.001569  0.010590  0.133128  0.002690 -0.071445
  9H   1s         0.024632 -0.096047  0.123993 -0.043874 -0.007896 -0.157955
  9H   2s         0.005122 -0.030520  0.063164 -0.021707 -0.001962 -0.124557
 10H   1s         0.058833 -0.089329  0.085544  0.135493 -0.025966  0.112695
 10H   2s         0.019059 -0.025371  0.042369  0.092307 -0.018618  0.080031
 11H   1s         0.017498  0.099799  0.121617 -0.043343  0.017625 -0.156804
 11H   2s         0.003016  0.032213  0.061906 -0.021681  0.009758 -0.123698
 12H   1s         0.052858  0.093602  0.083476  0.136136  0.020668  0.111746
 12H   2s         0.017743  0.025980  0.040994  0.092210  0.016122  0.079020
                     18        19        20        21        22        23   
                  -0.44207  -0.40099  -0.38138  -0.37178  -0.35244  -0.34425
                   2.00000   2.00000   2.00000   2.00000   2.00000   2.00000
                  --------  --------  --------  --------  --------  --------
  0C   1s         0.018475 -0.000026 -0.007419 -0.000145  0.003064 -0.000000
  0C   2s        -0.041326  0.000046  0.011595 -0.006321 -0.005261 -0.000003
  0C   1pz        0.000896 -0.159538  0.001580 -0.000315  0.000528  0.177938
  0C   1px       -0.265148 -0.000548 -0.090411 -0.187091 -0.051794  0.000423
  0C   1py        0.040045  0.001104  0.227445 -0.163700  0.087235 -0.000818
  0C   3s        -0.070840  0.000136  0.038952  0.038524 -0.014079  0.000028
  0C   2pz        0.000162 -0.086876  0.000539 -0.000263  0.000236  0.114341
  0C   2px       -0.081604 -0.000239 -0.018409 -0.037442 -0.023322  0.000304
  0C   2py       -0.009834  0.000516  0.074549 -0.072879  0.040399 -0.000553
  0C   1dz2      -0.002050  0.000042 -0.001373 -0.002818 -0.000354  0.000008
  0C   1dxz       0.000005 -0.007705  0.000042 -0.000084  0.000002  0.006238
  0C   1dyz      -0.000034  0.001224 -0.000072 -0.000060 -0.000031  0.004131
  0C   1dx2y2     0.006571 -0.000001  0.009226  0.018635  0.004550  0.000045
  0C   1dxy       0.006896  0.000061  0.012593 -0.004325  0.003527 -0.000016
  1C   1s         0.000325 -0.000004 -0.005475 -0.000114 -0.000484 -0.000001
  1C   2s        -0.000703  0.000028  0.019004  0.000242  0.004232  0.000002
  1C   1pz        0.000026 -0.147564 -0.001535  0.000064 -0.000512  0.216025
  1C   1px        0.065708 -0.000159  0.145854  0.245875  0.038766  0.000674
  1C   1py        0.041424  0.000387 -0.244655  0.145244 -0.062846 -0.001205
  1C   3s        -0.001129 -0.000037 -0.008294  0.001238 -0.008676 -0.000027
  1C   2pz       -0.000004 -0.083710 -0.000309  0.000026 -0.000151  0.131032
  1C   2px       -0.017549 -0.000186  0.034594  0.089237  0.009138  0.000385
  1C   2py       -0.010366  0.000368 -0.057826  0.052502 -0.015687 -0.000701
  1C   1dz2      -0.000016  0.000080  0.003692  0.000038  0.001128 -0.000073
  1C   1dxz      -0.000059 -0.003879  0.000103 -0.000051  0.000031  0.003778
  1C   1dyz      -0.000041  0.006176 -0.000156 -0.000039 -0.000047 -0.006111
  1C   1dx2y2     0.011374  0.000037  0.010696  0.009865  0.003635 -0.000015
  1C   1dxy      -0.005701  0.000067  0.021345 -0.004505  0.007183 -0.000026
  2C   1s        -0.018650 -0.000027 -0.007786 -0.000064  0.002878 -0.000001
  2C   2s         0.041518  0.000053  0.012208  0.006714 -0.005050 -0.000005
  2C   1pz       -0.001017 -0.161190  0.001560  0.000224  0.000531  0.177717
  2C   1px       -0.082664 -0.000697 -0.155147 -0.236127 -0.054378  0.000433
  2C   1py       -0.252111  0.001034  0.185662 -0.087538  0.085354 -0.000818
  2C   3s         0.071349  0.000127  0.041370 -0.039533 -0.013126  0.000047
  2C   2pz       -0.000205 -0.087245  0.000519  0.000247  0.000238  0.114080
  2C   2px       -0.045444 -0.000316 -0.054649 -0.082691 -0.027097  0.000286
  2C   2py       -0.067231  0.000480  0.049565  0.002103  0.038059 -0.000567
  2C   1dz2       0.002018  0.000050 -0.001429  0.002827 -0.000385 -0.000000
  2C   1dxz      -0.000033  0.002310  0.000057 -0.000090  0.000029 -0.006493
  2C   1dyz       0.000016  0.007526 -0.000062 -0.000064 -0.000013 -0.003709
  2C   1dx2y2    -0.001948  0.000053  0.004334  0.014670  0.000157 -0.000036
  2C   1dxy      -0.009374  0.000030  0.015295 -0.012079  0.005739  0.000030
  3C   1s         0.019222  0.000022  0.011809  0.005209 -0.001408  0.000005
  3C   2s        -0.042826 -0.000054 -0.030702 -0.005221  0.002964 -0.000005
  3C   1pz       -0.001035 -0.202616 -0.001050  0.000247 -0.000565  0.076572
  3C   1px       -0.091532 -0.000381  0.101859  0.158053  0.071066  0.000269
  3C   1py       -0.258829  0.000703 -0.216636  0.122852 -0.077706 -0.000441
  3C   3s        -0.077964 -0.000039 -0.001276 -0.052068  0.022327 -0.000046
  3C   2pz       -0.000239 -0.114482 -0.000285 -0.000054 -0.000174  0.043362
  3C   2px       -0.050821 -0.000187  0.068532  0.056968  0.027695  0.000152
  3C   2py       -0.074169  0.000474 -0.053969  0.011696 -0.022853 -0.000247
  3C   1dz2      -0.002013 -0.000021 -0.002010  0.002410 -0.000531  0.000083
  3C   1dxz       0.000032 -0.007776  0.000045 -0.000088  0.000026 -0.004734
  3C   1dyz      -0.000016 -0.005846 -0.000004 -0.000057 -0.000019  0.007384
  3C   1dx2y2     0.001217 -0.000046  0.000701  0.014562  0.001294  0.000025
  3C   1dxy       0.009597  0.000027  0.009864 -0.013361  0.006016  0.000046
  4C   1s        -0.000369 -0.000032 -0.019336 -0.000235  0.008023 -0.000003
  4C   2s         0.000761  0.000078  0.042626  0.000307 -0.008888 -0.000003
  4C   1pz        0.000035 -0.288435  0.000645 -0.000038  0.000784 -0.063341
  4C   1px        0.075361 -0.000711 -0.032779 -0.182881 -0.076648 -0.000209
  4C   1py        0.047264  0.001283  0.056136 -0.113571  0.122066  0.000359
  4C   3s         0.001887 -0.000025  0.061560  0.001447 -0.190630  0.000006
  4C   2pz       -0.000006 -0.154079 -0.000272 -0.000022  0.000644 -0.028117
  4C   2px       -0.018455 -0.000341  0.049129 -0.063055 -0.064408 -0.000073
  4C   2py       -0.012193  0.000612 -0.078269 -0.042863  0.110560  0.000148
  4C   1dz2      -0.000005 -0.000009  0.001248  0.000033  0.001277  0.000128
  4C   1dxz       0.000060 -0.000118  0.000052 -0.000018  0.000036 -0.008265
  4C   1dyz       0.000042 -0.000457 -0.000077 -0.000015 -0.000053  0.012896
  4C   1dx2y2    -0.011934  0.000002  0.007090  0.002878  0.003853  0.000039
  4C   1dxy       0.005889  0.000008  0.014036 -0.001206  0.007870  0.000073
  5C   1s        -0.019181  0.000021  0.012421 -0.005284 -0.001122  0.000005
  5C   2s         0.042756 -0.000053 -0.031957  0.005127  0.002946 -0.000001
  5C   1pz        0.000921 -0.205181 -0.001029 -0.000154 -0.000575  0.075515
[...]
 5 C  dxy             0.0       0.2       0.9       0.0       0.0       0.0
 6 C  s               0.0       0.2       0.0       0.0       0.0       0.0
 6 C  pz              0.0       0.0       0.0       0.5       0.0       0.1
 6 C  px              0.0       0.0       0.2       0.0       0.0       0.0
 6 C  py              0.0       0.1       0.1       0.0       0.0       0.0
 6 C  dz2             0.0       4.1       0.0       0.0       0.0       0.0
 6 C  dxz             0.5       0.0       0.0       0.3       1.9       0.0
 6 C  dyz             0.2       0.0       0.0       0.8       0.8       0.1
 6 C  dx2y2           0.0       0.2       0.0       0.0       0.0       0.0
 6 C  dxy             0.0       0.8       0.0       0.0       0.0       0.0
 7 N  s               0.0       0.1       0.0       0.0       0.0       0.0
 7 N  pz              0.0       0.0       0.0       0.2       0.0       0.0
 7 N  dz2             0.0       2.1       0.0       0.0       0.0       0.0
 7 N  dxz             0.3       0.0       0.0       1.7       0.6       0.2
 7 N  dyz             0.1       0.0       0.0       4.4       0.2       0.5
 7 N  dx2y2           0.0       0.1       2.6       0.0       0.0       0.0
 7 N  dxy             0.0       0.3       0.6       0.0       0.0       0.0
 8 H  s               0.0       0.2       0.0       0.0       0.0       0.0
10 H  s               0.0       0.0       0.1       0.0       0.0       0.0
12 H  s               0.0       0.0       0.1       0.0       0.0       0.0

                    108       109       110       111       112       113   
                   2.48398   2.49936   2.57406   2.62824   2.63245   2.70896
                   0.00000   0.00000   0.00000   0.00000   0.00000   0.00000
                  --------  --------  --------  --------  --------  --------
 0 C  s               0.3       1.0       5.8       0.0       1.1       0.6
 0 C  px              0.1       0.2       1.4       0.0       0.2       0.3
 0 C  py              0.0       0.2       0.0       0.0       1.8       2.7
 0 C  dz2             0.6       3.8      11.4       0.0       2.8       0.2
 0 C  dyz             0.0       0.0       0.0      17.0       0.0       0.0
 0 C  dx2y2           4.5       0.3       1.2       0.0       2.0       0.0
 0 C  dxy             0.6       2.9       0.0       0.0       0.1      18.4
 1 C  s               0.0       4.4       0.0       0.0       3.3       2.6
 1 C  px              0.5       0.2       1.1       0.0       0.2       0.3
 1 C  py              0.2       0.5       0.4       0.0       0.5       0.8
 1 C  dz2             0.0      14.3       0.0       0.0       8.8       0.9
 1 C  dxz             0.0       0.0       0.0      12.3       0.0       0.0
 1 C  dyz             0.0       0.0       0.0       4.7       0.0       0.0
 1 C  dx2y2           1.1       0.5      10.3       0.0       2.5       0.0
 1 C  dxy             0.3       2.1       2.5       0.0      10.3       0.1
 2 C  s               0.3       1.0       5.7       0.0       1.1       0.6
 2 C  px              0.1       0.3       0.3       0.0       1.8       1.5
 2 C  py              0.1       0.0       1.2       0.0       0.2       1.5
 2 C  dz2             0.5       3.9      11.4       0.0       2.8       0.2
 2 C  dxz             0.0       0.0       0.0      13.3       0.0       0.0
 2 C  dyz             0.0       0.0       0.0       3.7       0.0       0.0
 2 C  dx2y2           3.7       1.0       0.5       0.0       0.4      12.4
 2 C  dxy             1.4       2.2       0.7       0.0       1.7       6.0
 3 C  s               2.2       2.2       2.7       0.0       0.1       0.5
 3 C  px              1.3       0.5       0.3       0.0       1.2       1.6
 3 C  py              0.0       0.0       0.6       0.0       0.3       1.5
 3 C  dz2             5.3       6.1       7.8       0.0       0.0       0.1
 3 C  dxz             0.0       0.0       0.0      12.5       0.0       0.0
 3 C  dyz             0.0       0.0       0.0       3.7       0.0       0.0
 3 C  dx2y2           0.4       0.5       6.8       0.0       1.5      13.0
 3 C  dxy             5.3       4.2       0.3       0.0       7.3       5.6
 4 C  s               0.0       4.1       0.0       0.0       1.7       2.7
 4 C  px              2.1       0.7       0.2       0.0       0.0       0.4
 4 C  py              0.8       1.7       0.1       0.0       0.1       1.2
 4 C  dz2             0.0      13.8       0.0       0.0       3.4       0.7
 4 C  dxz             0.0       0.0       0.0      11.4       0.0       0.0
 4 C  dyz             0.0       0.0       0.0       4.4       0.0       0.0
 4 C  dx2y2           6.0       0.3       0.0       0.0       3.0       0.0
 4 C  dxy             1.4       1.4       0.0       0.0      12.4       0.0
 5 C  s               2.2       2.1       2.7       0.0       0.1       0.5
 5 C  px              0.2       0.2       0.3       0.0       0.1       0.3
 5 C  py              1.1       0.3       0.6       0.0       1.4       2.8
 5 C  dz2             5.4       6.0       7.7       0.0       0.0       0.1
 5 C  dyz             0.0       0.0       0.0      16.2       0.0       0.0
 5 C  dx2y2           2.1       1.4       1.3       0.0       8.4       0.1
 5 C  dxy             3.7       3.2       5.8       0.0       0.4      18.5
 6 C  s               0.0       1.5       0.0       0.0       1.4       0.4
 6 C  px              1.4       0.3       0.2       0.0       0.1       0.0
 6 C  py              0.5       0.7       0.1       0.0       0.2       0.1
 6 C  dz2             0.0       0.5       0.0       0.0       2.9       0.0
 6 C  dxz             0.0       0.0       0.0       0.4       0.0       0.0
 6 C  dyz             0.0       0.0       0.0       0.2       0.0       0.0
 6 C  dx2y2          12.5       0.4       1.3       0.0       0.5       0.1
 6 C  dxy             3.0       1.6       0.3       0.0       2.2       0.3
 7 N  s               0.0       2.0       0.0       0.0       4.2       0.1
 7 N  px              0.9       0.1       0.1       0.0       0.3       0.0
 7 N  py              0.3       0.4       0.0       0.0       0.7       0.1
 7 N  dz2             0.0       0.3       0.0       0.0       0.4       0.0
 7 N  dx2y2          19.3       0.1       3.2       0.0       0.5       0.0
 7 N  dxy             4.7       0.5       0.8       0.0       2.0       0.1
 8 H  s               0.0       1.6       0.0       0.0       0.3       0.1
 9 H  s               0.6       0.4       0.9       0.0       0.0       0.0
10 H  s               1.1       0.7       0.7       0.0       0.7       0.0
11 H  s               0.6       0.4       0.9       0.0       0.0       0.0
12 H  s               1.1       0.7       0.7       0.0       0.7       0.0

                    114       115       116       117       118       119   
                   2.71189   2.71801   2.80066   2.83544   2.86416   3.14511
                   0.00000   0.00000   0.00000   0.00000   0.00000   0.00000
                  --------  --------  --------  --------  --------  --------
 0 C  s               0.5       3.0       0.0       0.8       0.5       0.1
 0 C  px              0.1       0.2       0.0       0.1       0.2       0.0
 0 C  py              1.1       0.3       0.0       0.0       2.8       1.3
 0 C  dz2             1.7       5.3       0.0       1.4       0.1       0.0
 0 C  dxz             0.0       0.0       0.1       0.0       0.0       0.0
 0 C  dx2y2          14.4       6.1       0.0       0.0       1.3       0.1
 0 C  dxy             0.6       0.2       0.0       0.0      15.4       3.3
 1 C  s               0.0       2.8       0.0       0.8       0.0       0.0
 1 C  px              0.9       0.0       0.0       0.0       4.2       0.5
 1 C  py              0.3       0.1       0.0       0.1       1.6       0.2
 1 C  dz2             0.0       5.2       0.0       0.9       0.0       0.0
 1 C  dx2y2           3.4       2.5       0.0       0.0      17.8       2.0
 1 C  dxy             0.8      10.5       0.0       0.2       4.3       0.5
 2 C  s               0.5       3.0       0.0       0.8       0.5       0.1
 2 C  px              0.8       0.1       0.0       0.1       2.8       0.9
 2 C  py              0.4       0.4       0.0       0.0       0.2       0.5
 2 C  dz2             1.8       5.3       0.0       1.4       0.1       0.0
 2 C  dyz             0.0       0.0       0.1       0.0       0.0       0.0
 2 C  dx2y2           2.8       1.3       0.0       0.0      14.4       1.5
 2 C  dxy            12.1       5.0       0.0       0.0       2.3       1.9
 3 C  s               3.3       3.6       0.0       0.8       0.7       0.1
 3 C  px              0.4       0.4       0.0       0.0       0.2       2.5
 3 C  py              0.7       0.1       0.0       0.1       0.7       0.2
 3 C  dz2             4.1       7.1       0.0       1.0       0.1       0.0
 3 C  dxz             0.0       0.0       0.7       0.0       0.0       0.0
 3 C  dyz             0.0       0.0       0.7       0.0       0.0       0.0
 3 C  dx2y2           8.8       0.4       0.0       0.0       2.7       5.0
 3 C  dxy             7.3       0.0       0.0       0.7       0.1       5.5
 4 C  s               0.0       2.3       0.0       2.5       0.0       0.0
 4 C  pz              0.0       0.0       0.2       0.0       0.0       0.0
 4 C  px              3.0       0.3       0.0       0.0       0.3       1.0
 4 C  py              1.2       0.7       0.0       0.1       0.1       0.4
 4 C  dz2             0.0       4.8       0.0       3.4       0.0       0.0
 4 C  dxz             0.0       0.0       4.5       0.0       0.0       0.0
 4 C  dyz             0.0       0.0      11.6       0.0       0.0       0.0
 4 C  dx2y2           1.5       0.4       0.0       0.8       3.3      25.4
 4 C  dxy             0.4       1.8       0.0       3.4       0.8       6.2
 5 C  s               3.3       3.5       0.0       0.8       0.7       0.1
 5 C  px              0.8       0.3       0.0       0.1       0.5       0.1
 5 C  py              0.3       0.3       0.0       0.0       0.4       2.5
 5 C  dz2             4.1       7.1       0.0       1.0       0.1       0.0
 5 C  dxz             0.0       0.0       1.3       0.0       0.0       0.0
 5 C  dyz             0.0       0.0       0.1       0.0       0.0       0.0
 5 C  dx2y2          15.5       0.1       0.0       0.6       1.7       0.2
 5 C  dxy             0.5       0.3       0.0       0.1       1.2      10.2
 6 C  s               0.0       0.6       0.0       6.9       0.0       0.0
 6 C  pz              0.0       0.0       1.0       0.0       0.0       0.0
 6 C  px              0.0       0.1       0.0       3.2       0.1       0.0
 6 C  py              0.0       0.3       0.0       8.2       0.1       0.0
 6 C  dz2             0.0       0.3       0.0       0.1       0.0       0.0
 6 C  dxz             0.0       0.0      13.2       0.0       0.0       0.0
 6 C  dyz             0.0       0.0      33.9       0.0       0.0       0.0
 6 C  dx2y2           0.1       0.5       0.0       0.1       8.3      15.6
 6 C  dxy             0.0       2.1       0.0       0.3       2.0       3.8
 7 N  s               0.0       2.5       0.0      12.8       0.0       0.0
 7 N  pz              0.0       0.0       1.9       0.0       0.0       0.0
 7 N  px              0.0       0.2       0.0       1.4       0.3       0.5
 7 N  py              0.0       0.5       0.0       3.6       0.1       0.2
 7 N  dz2             0.0       1.1       0.0      10.3       0.0       0.0
 7 N  dxz             0.0       0.0       8.5       0.0       0.0       0.0
 7 N  dyz             0.0       0.0      22.0       0.0       0.0       0.0
 7 N  dx2y2           0.1       0.5       0.0       5.9       5.3       6.0
 7 N  dxy             0.0       2.0       0.0      24.7       1.2       1.5
 8 H  s               0.0       1.8       0.0       0.0       0.0       0.0
 9 H  s               0.8       1.1       0.0       0.0       0.0       0.0
10 H  s               0.6       0.2       0.0       0.1       0.1       0.0
11 H  s               0.8       1.1       0.0       0.0       0.0       0.0
12 H  s               0.6       0.2       0.0       0.1       0.1       0.0

                    120       121   
                   3.27637   3.47115
                   0.00000   0.00000
                  --------  --------
 0 C  s               2.0       0.4
 0 C  px              0.2       0.0
 0 C  dz2             1.6       0.2
 0 C  dx2y2           6.5       6.8
 0 C  dxy             0.2       0.0
 1 C  s               1.4       0.8
 1 C  dz2             0.9       0.5
 1 C  dx2y2           1.7       1.1
 1 C  dxy             6.9       4.5
 2 C  s               2.0       0.4
 2 C  py              0.1       0.0
 2 C  dz2             1.6       0.2
 2 C  dx2y2           1.5       2.6
 2 C  dxy             5.2       4.2
 3 C  s               1.5       0.6
 3 C  py              0.3       0.0
 3 C  dz2             1.2       0.3
 3 C  dx2y2           1.1       2.8
 3 C  dxy             2.8       5.7
 4 C  s               6.0       0.2
 4 C  px              0.3       0.6
 4 C  py              0.8       1.6
 4 C  dz2             4.6       0.2
 4 C  dx2y2           0.0       4.0
 4 C  dxy             0.0      16.4
 5 C  s               1.5       0.6
 5 C  px              0.2       0.0
 5 C  py              0.1       0.1
 5 C  dz2             1.2       0.3
 5 C  dx2y2           3.9       8.5
 6 C  s               5.5       4.9
 6 C  px              0.6       0.2
 6 C  py              1.5       0.6
 6 C  dz2             6.6       4.5
 6 C  dx2y2           3.2       3.3
 6 C  dxy            13.2      13.7
 7 N  s               3.6       3.0
 7 N  px              1.1       0.9
 7 N  py              2.9       2.3
 7 N  dz2             0.8       0.3
 7 N  dx2y2           0.4       0.2
 7 N  dxy             1.8       0.8
 8 H  s               0.4       0.2
 9 H  s               0.2       0.3
10 H  s               0.1       0.4
11 H  s               0.2       0.3
12 H  s               0.1       0.4


                      *****************************
                      * MAYER POPULATION ANALYSIS *
                      *****************************

  NA   - Mulliken gross atomic population
  ZA   - Total nuclear charge
  QA   - Mulliken gross atomic charge
  VA   - Mayer's total valence
  BVA  - Mayer's bonded valence
  FA   - Mayer's free valence

  ATOM       NA         ZA         QA         VA         BVA        FA
  0 C      6.1332     6.0000    -0.1332     3.9407     3.9407    -0.0000
  1 C      6.1131     6.0000    -0.1131     3.9384     3.9384    -0.0000
  2 C      6.1321     6.0000    -0.1321     3.9410     3.9410    -0.0000
  3 C      6.1302     6.0000    -0.1302     3.9291     3.9291    -0.0000
  4 C      5.8881     6.0000     0.1119     3.8969     3.8969     0.0000
  5 C      6.1315     6.0000    -0.1315     3.9291     3.9291    -0.0000
  6 C      5.9151     6.0000     0.0849     4.0463     4.0463    -0.0000
  7 N      7.3103     7.0000    -0.3103     3.1123     3.1123    -0.0000
  8 H      0.8559     1.0000     0.1441     0.9345     0.9345    -0.0000
  9 H      0.8543     1.0000     0.1457     0.9347     0.9347    -0.0000
 10 H      0.8413     1.0000     0.1587     0.9316     0.9316    -0.0000
 11 H      0.8539     1.0000     0.1461     0.9346     0.9346    -0.0000
 12 H      0.8409     1.0000     0.1591     0.9314     0.9314    -0.0000

  Mayer bond orders larger than 0.1
B(  0-C ,  1-C ) :   1.4444 B(  0-C ,  3-C ) :   1.4453 B(  0-C , 11-H ) :   0.9267 
B(  1-C ,  2-C ) :   1.4444 B(  1-C ,  8-H ) :   0.9284 B(  2-C ,  5-C ) :   1.4453 
B(  2-C ,  9-H ) :   0.9268 B(  3-C ,  4-C ) :   1.4039 B(  3-C , 10-H ) :   0.9226 
B(  4-C ,  5-C ) :   1.4038 B(  4-C ,  6-C ) :   0.9881 B(  5-C , 12-H ) :   0.9224 
B(  6-C ,  7-N ) :   3.0089 

-------
TIMINGS
-------

Total SCF time: 0 days 0 hours 0 min 14 sec 

Total time                  ....      14.820 sec
Sum of individual times     ....      14.560 sec  ( 98.2%)

Fock matrix formation       ....      13.028 sec  ( 87.9%)
  XC integration            ....       2.162 sec  ( 16.6% of F)
    Basis function eval.    ....       0.845 sec  ( 39.1% of XC)
    Density eval.           ....       0.526 sec  ( 24.3% of XC)
    XC-Functional eval.     ....       0.165 sec  (  7.7% of XC)
    XC-Potential eval.      ....       0.494 sec  ( 22.8% of XC)
Diagonalization             ....       0.003 sec  (  0.0%)
Density matrix formation    ....       0.002 sec  (  0.0%)
Population analysis         ....       0.034 sec  (  0.2%)
Initial guess               ....       0.002 sec  (  0.0%)
Orbital Transformation      ....       0.000 sec  (  0.0%)
Orbital Orthonormalization  ....       0.001 sec  (  0.0%)
DIIS solution               ....       0.001 sec  (  0.0%)
SOSCF solution              ....       0.009 sec  (  0.1%)
Grid generation             ....       1.481 sec  ( 10.0%)

-------------------------   --------------------
FINAL SINGLE POINT ENERGY      -324.285400889591
-------------------------   --------------------

                                *** OPTIMIZATION RUN DONE ***

                            ***************************************
                            *     ORCA property calculations      *
                            ***************************************

                                    ---------------------
                                    Active property flags
                                    ---------------------
   (+) Dipole Moment


------------------------------------------------------------------------------
                       ORCA ELECTRIC PROPERTIES CALCULATION
------------------------------------------------------------------------------

Dipole Moment Calculation                       ... on
Quadrupole Moment Calculation                   ... off
Polarizability Calculation                      ... off
GBWName                                         ... /Users/lailaal-madhagi/Desktop/Testing_XAS_Analysis_code/Benzonitrile//Results_dir_Benzonitrile_geom_element_C_2019-11-05_19-31-48//GTE1_Benzonitrile_geom_2019-11-05_19-32-02//opt.gbw
Electron density file                           ... /Users/lailaal-madhagi/Desktop/Testing_XAS_Analysis_code/Benzonitrile//Results_dir_Benzonitrile_geom_element_C_2019-11-05_19-31-48//GTE1_Benzonitrile_geom_2019-11-05_19-32-02//opt.scfp.tmp
The origin for moment calculation is the CENTER OF MASS  = (-2.305267,  1.270671 -0.021345)

-------------
DIPOLE MOMENT
-------------
                                X             Y             Z
Electronic contribution:      2.37006      -3.80813      -0.02376
Nuclear contribution   :     -3.31765       5.33000       0.03326
                        -----------------------------------------
Total Dipole Moment    :     -0.94758       1.52186       0.00950
                        -----------------------------------------
Magnitude (a.u.)       :      1.79278
Magnitude (Debye)      :      4.55689



--------------------
Rotational spectrum 
--------------------
 
Rotational constants in cm-1:     0.188182     0.051330     0.040329 
Rotational constants in MHz :  5641.540052  1538.835250  1209.045535 

 Dipole components along the rotational axes: 
x,y,z [a.u.] :     1.792783     0.000016    -0.000006 
x,y,z [Debye]:     4.556893     0.000042    -0.000014 

 

Timings for individual modules:

Sum of individual times         ...      247.651 sec (=   4.128 min)
GTO integral calculation        ...        3.922 sec (=   0.065 min)   1.6 %
SCF iterations                  ...      154.727 sec (=   2.579 min)  62.5 %
SCF Gradient evaluation         ...       87.717 sec (=   1.462 min)  35.4 %
Geometry relaxation             ...        1.285 sec (=   0.021 min)   0.5 %
                             ****ORCA TERMINATED NORMALLY****
TOTAL RUN TIME: 0 days 0 hours 4 minutes 9 seconds 200 msec
