
                                 *****************
                                 * O   R   C   A *
                                 *****************

           --- An Ab Initio, DFT and Semiempirical electronic structure package ---

                  #######################################################
                  #                        -***-                        #
                  #          Department of theory and spectroscopy      #
                  #               Directorship: Frank Neese             #
                  #        Max Planck Institute fuer Kohlenforschung    #
                  #                Kaiser Wilhelm Platz 1               #
                  #                 D-45470 Muelheim/Ruhr               #
                  #                      Germany                        #
                  #                                                     #
                  #                  All rights reserved                #
                  #                        -***-                        #
                  #######################################################


                         Program Version 4.1.0  - RELEASE  -


 With contributions from (in alphabetic order):
   Daniel Aravena         : Magnetic Properties
   Michael Atanasov       : Ab Initio Ligand Field Theory
   Alexander A. Auer      : GIAO ZORA
   Ute Becker             : Parallelization
   Giovanni Bistoni       : ED, Open-shell LED
   Martin Brehm           : Molecular dynamics
   Dmytro Bykov           : SCF Hessian
   Vijay G. Chilkuri      : MRCI spin determinant printing
   Dipayan Datta          : RHF DLPNO-CCSD density
   Achintya Kumar Dutta   : EOM-CC, STEOM-CC
   Dmitry Ganyushin       : Spin-Orbit,Spin-Spin,Magnetic field MRCI
   Miquel Garcia          : C-PCM Hessian
   Yang Guo               : DLPNO-NEVPT2, CIM, IAO-localization
   Andreas Hansen         : Spin unrestricted coupled pair/coupled cluster methods
   Benjamin Helmich-Paris : CASSCF linear response (MC-RPA)
   Lee Huntington         : MR-EOM, pCC
   Robert Izsak           : Overlap fitted RIJCOSX, COSX-SCS-MP3, EOM
   Christian Kollmar      : KDIIS, OOCD, Brueckner-CCSD(T), CCSD density
   Simone Kossmann        : Meta GGA functionals, TD-DFT gradient, OOMP2, MP2 Hessian
   Martin Krupicka        : AUTO-CI
   Lucas Lang             : DCDCAS
   Dagmar Lenk            : GEPOL surface, SMD
   Dimitrios Liakos       : Extrapolation schemes; parallel MDCI
   Dimitrios Manganas     : ROCIS; embedding schemes
   Dimitrios Pantazis     : SARC Basis sets
   Taras Petrenko         : DFT Hessian,TD-DFT gradient, ASA, ECA, R-Raman, ABS, FL, XAS/XES, NRVS
   Peter Pinski           : DLPNO-MP2, DLPNO-MP2 Gradient
   Christoph Reimann      : Effective Core Potentials
   Marius Retegan         : Local ZFS, SOC
   Christoph Riplinger    : Optimizer, TS searches, QM/MM, DLPNO-CCSD(T), (RO)-DLPNO pert. Triples
   Tobias Risthaus        : Range-separated hybrids, TD-DFT gradient, RPA, STAB
   Michael Roemelt        : Restricted open shell CIS
   Masaaki Saitow         : Open-shell DLPNO
   Barbara Sandhoefer     : DKH picture change effects
   Avijit Sen             : IP-ROCIS
   Kantharuban Sivalingam : CASSCF convergence, NEVPT2, FIC-MRCI
   Bernardo de Souza      : ESD, SOC TD-DFT
   Georgi Stoychev        : AutoAux, RI-MP2 NMR
   Willem Van den Heuvel  : Paramagnetic NMR
   Boris Wezisla          : Elementary symmetry handling
   Frank Wennmohs         : Technical directorship


 We gratefully acknowledge several colleagues who have allowed us to
 interface, adapt or use parts of their codes:
   Stefan Grimme, W. Hujo, H. Kruse,             : VdW corrections, initial TS optimization,
                  C. Bannwarth                     DFT functionals, gCP, sTDA/sTD-DF
   Ed Valeev                                     : LibInt (2-el integral package), F12 methods
   Garnet Chan, S. Sharma, J. Yang, R. Olivares  : DMRG
   Ulf Ekstrom                                   : XCFun DFT Library
   Mihaly Kallay                                 : mrcc  (arbitrary order and MRCC methods)
   Andreas Klamt, Michael Diedenhofen            : otool_cosmo (COSMO solvation model)
   Jiri Pittner, Ondrej Demel                    : Mk-CCSD
   Frank Weinhold                                : gennbo (NPA and NBO analysis)
   Christopher J. Cramer and Donald G. Truhlar   : smd solvation model
   Lars Goerigk                                  : TD-DFT with DH, B97 family of functionals
   V. Asgeirsson, H. Jonsson                     : NEB implementation
   FAccTs GmbH                                   : IRC, NEB, NEB-TS, Multilevel


 Your calculation uses the libint2 library for the computation of 2-el integrals
 For citations please refer to: http://libint.valeyev.net

 This ORCA versions uses:
   CBLAS   interface :  Fast vector & matrix operations
   LAPACKE interface :  Fast linear algebra routines
   SCALAPACK package :  Parallel linear algebra routines




***************************************
The coordinates will be read from file: /Users/lailaal-madhagi/Desktop/Testing_XAS_Analysis_code/Benzonitrile//Results_dir_Benzonitrile_geom_element_C_2019-11-05_19-31-48//GTE1_Benzonitrile_geom_2019-11-05_19-32-02//opt.xyz
***************************************


----- Orbital basis set information -----
Your calculation utilizes the basis: 6-31G*
   H-He, Li-Ne : W. J. Hehre, R. Ditchfield and J.A. Pople, J. Chem. Phys. 56, 2257 (1972).
                 Note: He and Ne are unpublished basis sets taken from the Gaussian program.
                 Note: Li and B from J. D. Dill and J. A. Pople, J. Chem. Phys. 62, 2921 (1975).
   Na - Ar     : M. M. Francl, W. J. Pietro, W. J. Hehre, J. S. Binkley, M. S. Gordon, 
                 D. J. DeFrees and J. A. Pople, J. Chem. Phys. 77, 3654 (1982).
   K - Zn      : V. A. Rassolov, J. A. Pople, M. A. Ratner, and T. L. Windus, J. Chem. Phys. 109, 1223 (1998).

================================================================================
                                        WARNINGS
                       Please study these warnings very carefully!
================================================================================

INFO   : Checking CIS options ...

WARNING: CIS/ROCIS methods need fully converged wavefunctions
  ===> : Setting SCFConvForced true
         You can overwrite this default with %scf ConvForced false 


INFO   : the flag for use of LIBINT has been found!

================================================================================
                                       INPUT FILE
================================================================================
NAME = /Users/lailaal-madhagi/Desktop/Testing_XAS_Analysis_code/Benzonitrile//Results_dir_Benzonitrile_geom_element_C_2019-11-05_19-31-48//GTE1_Benzonitrile_geom_2019-11-05_19-32-02//TDDFT_C-edge.inp
|  1> #This is C K-edge calculation 
|  2> ! B3LYP 6-31G* TIGHTSCF Grid3 FinalGrid5 
|  3> !NormalPrint 
|  4> %output 
|  5> Print[P_Basis] 2 
|  6> Print[P_MOS] 1 
|  7> end 
|  8> 
|  9> %tddft 
| 10> orbwin[0]=1,7,-1,-1 
| 11> nroots=20 
| 12> maxdim=200 
| 13> end 
| 14> *xyzfile 0 1 /Users/lailaal-madhagi/Desktop/Testing_XAS_Analysis_code/Benzonitrile//Results_dir_Benzonitrile_geom_element_C_2019-11-05_19-31-48//GTE1_Benzonitrile_geom_2019-11-05_19-32-02//opt.xyz                           ****END OF INPUT****
================================================================================

                       ****************************
                       * Single Point Calculation *
                       ****************************

---------------------------------
CARTESIAN COORDINATES (ANGSTROEM)
---------------------------------
  C     -3.065578    1.344989   -0.003493
  C     -2.405100    2.576875    0.000597
  C     -1.008259    2.625003   -0.002710
  C     -2.335009    0.158652   -0.010880
  C     -0.929983    0.206044   -0.014206
  C     -0.266829    1.445495   -0.010095
  C     -0.171485   -1.012312   -0.021803
  N      0.444146   -1.999539   -0.027981
  H     -2.979046    3.499541    0.006370
  H     -0.495512    3.582657    0.000461
  H     -2.838051   -0.803235   -0.014107
  H     -4.151309    1.308018   -0.000930
  H      0.818405    1.471983   -0.012723

----------------------------
CARTESIAN COORDINATES (A.U.)
----------------------------
  NO LB      ZA    FRAG     MASS         X           Y           Z
   0 C     6.0000    0    12.011   -5.793103    2.541660   -0.006600
   1 C     6.0000    0    12.011   -4.544980    4.869589    0.001129
   2 C     6.0000    0    12.011   -1.905333    4.960536   -0.005122
   3 C     6.0000    0    12.011   -4.412528    0.299810   -0.020560
   4 C     6.0000    0    12.011   -1.757413    0.389367   -0.026846
   5 C     6.0000    0    12.011   -0.504234    2.731589   -0.019077
   6 C     6.0000    0    12.011   -0.324059   -1.912993   -0.041202
   7 N     7.0000    0    14.007    0.839315   -3.778582   -0.052876
   8 H     1.0000    0     1.008   -5.629581    6.613175    0.012037
   9 H     1.0000    0     1.008   -0.936382    6.770240    0.000872
  10 H     1.0000    0     1.008   -5.363139   -1.517894   -0.026659
  11 H     1.0000    0     1.008   -7.844838    2.471796   -0.001757
  12 H     1.0000    0     1.008    1.546560    2.781644   -0.024042

--------------------------------
INTERNAL COORDINATES (ANGSTROEM)
--------------------------------
 C      0   0   0     0.000000000000     0.00000000     0.00000000
 C      1   0   0     1.397781391458     0.00000000     0.00000000
 C      2   1   0     1.397674183310   120.17068201     0.00000000
 C      1   2   3     1.393262047956   120.17678190     0.00000000
 C      4   1   2     1.405829243520   119.69398981     0.00000000
 C      3   2   1     1.393202051586   120.18010778     0.00000000
 C      5   4   1     1.435189718259   119.97308709   179.99951692
 N      7   5   4     1.163467752670   179.95714614   178.73450240
 H      2   1   3     1.086627763003   119.91861702   180.00037962
 H      3   2   1     1.086287374507   120.13808994   179.99942302
 H      4   1   2     1.085490291495   120.76645596   180.00012320
 H      1   2   3     1.086363327918   120.14760481   180.00062776
 H      6   3   2     1.085559793393   120.75525576   179.99959399

---------------------------
INTERNAL COORDINATES (A.U.)
---------------------------
 C      0   0   0     0.000000000000     0.00000000     0.00000000
 C      1   0   0     2.641424024948     0.00000000     0.00000000
 C      2   1   0     2.641221430908   120.17068201     0.00000000
 C      1   2   3     2.632883703423   120.17678190     0.00000000
 C      4   1   2     2.656632261311   119.69398981     0.00000000
 C      3   2   1     2.632770326714   120.18010778     0.00000000
 C      5   4   1     2.712115517730   119.97308709   179.99951692
 N      7   5   4     2.198635418196   179.95714614   178.73450240
 H      2   1   3     2.053428881592   119.91861702   180.00037962
 H      3   2   1     2.052785640555   120.13808994   179.99942302
 H      4   1   2     2.051279371955   120.76645596   180.00012320
 H      1   2   3     2.052929171701   120.14760481   180.00062776
 H      6   3   2     2.051410711509   120.75525576   179.99959399

---------------------
BASIS SET INFORMATION
---------------------
There are 3 groups of distinct atoms

 Group   1 Type C   : 10s4p1d contracted to 3s2p1d pattern {631/31/1}
 Group   2 Type N   : 10s4p1d contracted to 3s2p1d pattern {631/31/1}
 Group   3 Type H   : 4s contracted to 2s pattern {31}

Atom   0C    basis set group =>   1
Atom   1C    basis set group =>   1
Atom   2C    basis set group =>   1
Atom   3C    basis set group =>   1
Atom   4C    basis set group =>   1
Atom   5C    basis set group =>   1
Atom   6C    basis set group =>   1
Atom   7N    basis set group =>   2
Atom   8H    basis set group =>   3
Atom   9H    basis set group =>   3
Atom  10H    basis set group =>   3
Atom  11H    basis set group =>   3
Atom  12H    basis set group =>   3

-------------------------
BASIS SET IN INPUT FORMAT
-------------------------

 # Basis set for element : H 
 NewGTO H 
 S 3 
   1      18.7311370000      0.0334945995
   2       2.8253937000      0.2347269467
   3       0.6401217000      0.8137573184
 S 1 
   1       0.1612778000      1.0000000000
  end;

 # Basis set for element : C 
 NewGTO C 
 S 6 
   1    3047.5249000000      0.0018347002
   2     457.3695100000      0.0140373012
   3     103.9486900000      0.0688426061
   4      29.2101550000      0.2321844206
   5       9.2866630000      0.4679413416
   6       3.1639270000      0.3623120322
 S 3 
   1       7.8682724000     -0.1193324086
   2       1.8812885000     -0.1608542116
   3       0.5442493000      1.1434564826
 P 3 
   1       7.8682724000      0.0689990956
   2       1.8812885000      0.3164239798
   3       0.5442493000      0.7443082524
 S 1 
   1       0.1687144000      1.0000000000
 P 1 
   1       0.1687144000      1.0000000000
 D 1 
   1       0.8000000000      1.0000000000
  end;

 # Basis set for element : N 
 NewGTO N 
 S 6 
   1    4173.5110000000      0.0018347994
   2     627.4579000000      0.0139949958
   3     142.9021000000      0.0685869792
   4      40.2343300000      0.2322409295
   5      12.8202100000      0.4690698576
   6       4.3904370000      0.3604548906
 S 3 
   1      11.6263580000     -0.1149610229
   2       2.7162800000     -0.1691180337
   3       0.7722180000      1.1458522281
 P 3 
   1      11.6263580000      0.0675800232
   2       2.7162800000      0.3239071114
   3       0.7722180000      0.7408952549
 S 1 
   1       0.2120313000      1.0000000000
 P 1 
   1       0.2120313000      1.0000000000
 D 1 
   1       0.8000000000      1.0000000000
  end;

------------------------------------------------------------------------------
                           ORCA GTO INTEGRAL CALCULATION
------------------------------------------------------------------------------

                         BASIS SET STATISTICS AND STARTUP INFO

 # of primitive gaussian shells          ...  140
 # of primitive gaussian functions       ...  236
 # of contracted shells                  ...   58
 # of contracted basis functions         ...  122
 Highest angular momentum                ...    2
 Maximum contraction depth               ...    6
 Integral package used                   ... LIBINT
 Integral threshhold            Thresh   ...  2.500e-11
 Primitive cut-off              TCut     ...  2.500e-12


------------------------------ INTEGRAL EVALUATION ----------------------------


 * One electron integrals 
 Pre-screening matrix                    ... done
 Shell pair data                         ... done (   0.001 sec)

-------------------------------------------------------------------------------
                                 ORCA SCF
-------------------------------------------------------------------------------

------------
SCF SETTINGS
------------
Hamiltonian:
 Density Functional     Method          .... DFT(GTOs)
 Exchange Functional    Exchange        .... B88
   X-Alpha parameter    XAlpha          ....  0.666667
   Becke's b parameter  XBeta           ....  0.004200
 Correlation Functional Correlation     .... LYP
 LDA part of GGA corr.  LDAOpt          .... VWN-5
 Gradients option       PostSCFGGA      .... off
 Hybrid DFT is turned on
   Fraction HF Exchange ScalHFX         ....  0.200000
   Scaling of DF-GGA-X  ScalDFX         ....  0.720000
   Scaling of DF-GGA-C  ScalDFC         ....  0.810000
   Scaling of DF-LDA-C  ScalLDAC        ....  1.000000
   Perturbative correction              ....  0.000000
   Density functional embedding theory  .... OFF
   NL short-range parameter             ....  4.800000


General Settings:
 Integral files         IntName         .... /Users/lailaal-madhagi/Desktop/Testing_XAS_Analysis_code/Benzonitrile//Results_dir_Benzonitrile_geom_element_C_2019-11-05_19-31-48//GTE1_Benzonitrile_geom_2019-11-05_19-32-02//TDDFT_C-edge
 Hartree-Fock type      HFTyp           .... RHF
 Total Charge           Charge          ....    0
 Multiplicity           Mult            ....    1
 Number of Electrons    NEL             ....   54
 Basis Dimension        Dim             ....  122
 Nuclear Repulsion      ENuc            ....    299.0212666700 Eh

Convergence Acceleration:
 DIIS                   CNVDIIS         .... on
   Start iteration      DIISMaxIt       ....    12
   Startup error        DIISStart       ....  0.200000
   # of expansion vecs  DIISMaxEq       ....     5
   Bias factor          DIISBfac        ....   1.050
   Max. coefficient     DIISMaxC        ....  10.000
 Newton-Raphson         CNVNR           .... off
 SOSCF                  CNVSOSCF        .... on
   Start iteration      SOSCFMaxIt      ....   150
   Startup grad/error   SOSCFStart      ....  0.003300
 Level Shifting         CNVShift        .... on
   Level shift para.    LevelShift      ....    0.2500
   Turn off err/grad.   ShiftErr        ....    0.0010
 Zerner damping         CNVZerner       .... off
 Static damping         CNVDamp         .... on
   Fraction old density DampFac         ....    0.7000
   Max. Damping (<1)    DampMax         ....    0.9800
   Min. Damping (>=0)   DampMin         ....    0.0000
   Turn off err/grad.   DampErr         ....    0.1000
 Fernandez-Rico         CNVRico         .... off

SCF Procedure:
 Maximum # iterations   MaxIter         ....   125
 SCF integral mode      SCFMode         .... Direct
   Integral package                     .... LIBINT
 Reset frequency        DirectResetFreq ....    20
 Integral Threshold     Thresh          ....  2.500e-11 Eh
 Primitive CutOff       TCut            ....  2.500e-12 Eh

Convergence Tolerance:
 Convergence Check Mode ConvCheckMode   .... Total+1el-Energy
 Convergence forced     ConvForced      .... 1
 Energy Change          TolE            ....  1.000e-08 Eh
 1-El. energy change                    ....  1.000e-05 Eh
 Orbital Gradient       TolG            ....  1.000e-05
 Orbital Rotation angle TolX            ....  1.000e-05
 DIIS Error             TolErr          ....  5.000e-07


Diagonalization of the overlap matrix:
Smallest eigenvalue                        ... 4.909e-04
Time for diagonalization                   ...    0.002 sec
Threshold for overlap eigenvalues          ... 1.000e-08
Number of eigenvalues below threshold      ... 0
Time for construction of square roots      ...    0.002 sec
Total time needed                          ...    0.004 sec

-------------------
DFT GRID GENERATION
-------------------

General Integration Accuracy     IntAcc      ...  4.340
Radial Grid Type                 RadialGrid  ... Gauss-Chebyshev
Angular Grid (max. acc.)         AngularGrid ... Lebedev-194
Angular grid pruning method      GridPruning ... 3 (G Style)
Weight generation scheme         WeightScheme... Becke
Basis function cutoff            BFCut       ...    1.0000e-11
Integration weight cutoff        WCut        ...    1.0000e-14
Grids for H and He will be reduced by one unit

# of grid points (after initial pruning)     ...  33902 (   0.0 sec)
# of grid points (after weights+screening)   ...  31560 (   0.0 sec)
nearest neighbour list constructed           ...    0.0 sec
Grid point re-assignment to atoms done       ...    0.0 sec
Grid point division into batches done        ...    0.1 sec
Reduced shell lists constructed in    0.2 sec

Total number of grid points                  ...    31560
Total number of batches                      ...      499
Average number of points per batch           ...       63
Average number of grid points per atom       ...     2428
Average number of shells per batch           ...    40.51 (69.84%)
Average number of basis functions per batch  ...    87.23 (71.50%)
Average number of large shells per batch     ...    31.71 (78.28%)
Average number of large basis fcns per batch ...    68.29 (78.28%)
Maximum spatial batch extension              ...  19.69, 18.77, 22.17 au
Average spatial batch extension              ...   3.17,  3.20,  3.80 au

Time for grid setup =    0.237 sec

------------------------------
INITIAL GUESS: MODEL POTENTIAL
------------------------------
Loading Hartree-Fock densities                     ... done
Calculating cut-offs                               ... done
Setting up the integral package                    ... done
Initializing the effective Hamiltonian             ... done
Starting the Coulomb interaction                   ... done (   0.0 sec)
Reading the grid                                   ... done
Mapping shells                                     ... done
Starting the XC term evaluation                    ... done (   0.2 sec)
  promolecular density results
     # of electrons  =     53.997362724
     EX              =    -43.958621658
     EC              =     -1.804559767
     EX+EC           =    -45.763181424
Transforming the Hamiltonian                       ... done (   0.0 sec)
Diagonalizing the Hamiltonian                      ... done (   0.0 sec)
Back transforming the eigenvectors                 ... done (   0.0 sec)
Now organizing SCF variables                       ... done
                      ------------------
                      INITIAL GUESS DONE (   0.6 sec)
                      ------------------
--------------
SCF ITERATIONS
--------------
               ***  Starting incremental Fock matrix formation  ***

                         ----------------------------
                         !        ITERATION     0   !
                         ----------------------------
   Total Energy        :    -324.099110506197 Eh
   Energy Change       :    -324.099110506197 Eh
   MAX-DP              :       0.085536681278
   RMS-DP              :       0.003106652796
   Actual Damping      :       0.7000
   Actual Level Shift  :       0.2500 Eh
   Int. Num. El.       :    53.99980207 (UP=   26.99990104 DN=   26.99990104)
   Exchange            :   -35.93740104
   Correlation         :    -2.15735789


                         ----------------------------
                         !        ITERATION     1   !
                         ----------------------------
   Total Energy        :    -324.186415180499 Eh
   Energy Change       :      -0.087304674303 Eh
   MAX-DP              :       0.052580851403
   RMS-DP              :       0.002037353243
   Actual Damping      :       0.7000
   Actual Level Shift  :       0.2500 Eh
   Int. Num. El.       :    53.99976302 (UP=   26.99988151 DN=   26.99988151)
   Exchange            :   -35.72242409
   Correlation         :    -2.14862225

                               ***Turning on DIIS***

                         ----------------------------
                         !        ITERATION     2   !
                         ----------------------------
   Total Energy        :    -324.218557739919 Eh
   Energy Change       :      -0.032142559420 Eh
   MAX-DP              :       0.065007630040
   RMS-DP              :       0.003097499426
   Actual Damping      :       0.0000
   Actual Level Shift  :       0.2500 Eh
   Int. Num. El.       :    53.99973941 (UP=   26.99986970 DN=   26.99986970)
   Exchange            :   -35.57583216
   Correlation         :    -2.14231655
   DIIS-Error          :       0.034612992469


                         ----------------------------
                         !        ITERATION     3   !
                         ----------------------------
   Total Energy        :    -324.275115427241 Eh
   Energy Change       :      -0.056557687322 Eh
   MAX-DP              :       0.037547199728
   RMS-DP              :       0.001509826899
   Actual Damping      :       0.0000
   Actual Level Shift  :       0.2500 Eh
   Int. Num. El.       :    53.99970189 (UP=   26.99985094 DN=   26.99985094)
   Exchange            :   -35.34227220
   Correlation         :    -2.13158904
   DIIS-Error          :       0.043737117870
   DIIS coefficients:
      0.51612   0.48388


                         ----------------------------
                         !        ITERATION     4   !
                         ----------------------------
   Total Energy        :    -324.283593275666 Eh
   Energy Change       :      -0.008477848425 Eh
   MAX-DP              :       0.012581848474
   RMS-DP              :       0.000476994577
   Actual Damping      :       0.0000
   Actual Level Shift  :       0.2500 Eh
   Int. Num. El.       :    53.99971322 (UP=   26.99985661 DN=   26.99985661)
   Exchange            :   -35.43230851
   Correlation         :    -2.13574176
   DIIS-Error          :       0.033231380982
   DIIS coefficients:
      0.29178   0.20224   0.50598

                      *** Initiating the SOSCF procedure ***
                           *** Shutting down DIIS ***
                      *** Re-Reading the Fockian *** 
                      *** Removing any level shift *** 

                         ----------------------------
                         !        ITERATION     5   !
                         ----------------------------
   Total Energy        :    -324.285256581708 Eh
   Energy Change       :      -0.001663306042 Eh
   MAX-DP              :       0.002066077354
   RMS-DP              :       0.000133349782
   Orbital gradient    :       0.000965025980
   Orbital Rotation    :       0.000965025980
   Actual Damping      :       0.0000
   Int. Num. El.       :    53.99971296 (UP=   26.99985648 DN=   26.99985648)
   Exchange            :   -35.44671134
   Correlation         :    -2.13659436

               *** Restarting incremental Fock matrix formation ***

                         ----------------------------
                         !        ITERATION     6   !
                         ----------------------------
   Total Energy        :    -324.285295592755 Eh
   Energy Change       :      -0.000039011047 Eh
   MAX-DP              :       0.002862409561
   RMS-DP              :       0.000073401233
   Orbital gradient    :       0.000751797100
   Orbital Rotation    :       0.002051078740
   Actual Damping      :       0.0000
   Int. Num. El.       :    53.99971263 (UP=   26.99985631 DN=   26.99985631)
   Exchange            :   -35.45149517
   Correlation         :    -2.13677647


                         ----------------------------
                         !        ITERATION     7   !
                         ----------------------------
   Total Energy        :    -324.285279980682 Eh
   Energy Change       :       0.000015612073 Eh
   MAX-DP              :       0.001931785346
   RMS-DP              :       0.000051781682
   Orbital gradient    :       0.001988072917
   Orbital Rotation    :       0.001495479639
   Actual Damping      :       0.0000
   Int. Num. El.       :    53.99971236 (UP=   26.99985618 DN=   26.99985618)
   Exchange            :   -35.45100226
   Correlation         :    -2.13678390


                         ----------------------------
                         !        ITERATION     8   !
                         ----------------------------
   Total Energy        :    -324.285299361955 Eh
   Energy Change       :      -0.000019381274 Eh
   MAX-DP              :       0.000300311550
   RMS-DP              :       0.000011451897
   Orbital gradient    :       0.000074844564
   Orbital Rotation    :       0.000373738685
   Actual Damping      :       0.0000
   Int. Num. El.       :    53.99971235 (UP=   26.99985617 DN=   26.99985617)
   Exchange            :   -35.45166409
   Correlation         :    -2.13679032


                         ----------------------------
                         !        ITERATION     9   !
                         ----------------------------
   Total Energy        :    -324.285299168810 Eh
   Energy Change       :       0.000000193145 Eh
   MAX-DP              :       0.000197812579
   RMS-DP              :       0.000007616826
   Orbital gradient    :       0.000150318908
   Orbital Rotation    :       0.000263471202
   Actual Damping      :       0.0000
   Int. Num. El.       :    53.99971228 (UP=   26.99985614 DN=   26.99985614)
   Exchange            :   -35.45147825
   Correlation         :    -2.13677976


                         ----------------------------
                         !        ITERATION    10   !
                         ----------------------------
   Total Energy        :    -324.285299494310 Eh
   Energy Change       :      -0.000000325500 Eh
   MAX-DP              :       0.000054471024
   RMS-DP              :       0.000002168227
   Orbital gradient    :       0.000015059070
   Orbital Rotation    :       0.000039355138
   Actual Damping      :       0.0000
   Int. Num. El.       :    53.99971227 (UP=   26.99985613 DN=   26.99985613)
   Exchange            :   -35.45154724
   Correlation         :    -2.13678480


                         ----------------------------
                         !        ITERATION    11   !
                         ----------------------------
   Total Energy        :    -324.285299489730 Eh
   Energy Change       :       0.000000004580 Eh
   MAX-DP              :       0.000029284082
   RMS-DP              :       0.000001265044
   Orbital gradient    :       0.000016798770
   Orbital Rotation    :       0.000019087498
   Actual Damping      :       0.0000
   Int. Num. El.       :    53.99971229 (UP=   26.99985615 DN=   26.99985615)
   Exchange            :   -35.45158741
   Correlation         :    -2.13678694

                  ***Gradient check signals convergence***
              ***Rediagonalizing the Fockian in SOSCF/NRSCF***

               *****************************************************
               *                     SUCCESS                       *
               *           SCF CONVERGED AFTER  12 CYCLES          *
               *****************************************************

Setting up the final grid:

General Integration Accuracy     IntAcc      ...  5.010
Radial Grid Type                 RadialGrid  ... Gauss-Chebyshev
Angular Grid (max. acc.)         AngularGrid ... Lebedev-434
Angular grid pruning method      GridPruning ... 3 (G Style)
Weight generation scheme         WeightScheme... Becke
Basis function cutoff            BFCut       ...    1.0000e-11
Integration weight cutoff        WCut        ...    1.0000e-14
Grids for H and He will be reduced by one unit

# of grid points (after initial pruning)     ... 118936 (   0.0 sec)
# of grid points (after weights+screening)   ... 109869 (   0.1 sec)
nearest neighbour list constructed           ...    0.0 sec
Grid point re-assignment to atoms done       ...    0.0 sec
Grid point division into batches done        ...    0.6 sec
Reduced shell lists constructed in    1.0 sec

Total number of grid points                  ...   109869
Total number of batches                      ...     1721
Average number of points per batch           ...       63
Average number of grid points per atom       ...     8451
Average number of shells per batch           ...    37.38 (64.44%)
Average number of basis functions per batch  ...    80.10 (65.66%)
Average number of large shells per batch     ...    29.07 (77.77%)
Average number of large basis fcns per batch ...    62.41 (77.91%)
Maximum spatial batch extension              ...  20.99, 20.19, 23.94 au
Average spatial batch extension              ...   2.15,  2.18,  2.43 au

Final grid set up in    1.2 sec
Final integration                            ... done (   0.8 sec)
Change in XC energy                          ...    -0.000101389
Integrated number of electrons               ...    53.999999013
Previous integrated no of electrons          ...    53.999712284

----------------
TOTAL SCF ENERGY
----------------

Total Energy       :         -324.28540089 Eh           -8824.25437 eV

Components:
Nuclear Repulsion  :          299.02126667 Eh            8136.78233 eV
Electronic Energy  :         -623.30666756 Eh          -16961.03671 eV
One Electron Energy:        -1028.45518962 Eh          -27985.68847 eV
Two Electron Energy:          405.14852206 Eh           11024.65177 eV

Virial components:
Potential Energy   :         -646.56041201 Eh          -17593.80326 eV
Kinetic Energy     :          322.27501112 Eh            8769.54889 eV
Virial Ratio       :            2.00623812


DFT components:
N(Alpha)           :       26.999999506611 electrons
N(Beta)            :       26.999999506611 electrons
N(Total)           :       53.999999013223 electrons
E(X)               :      -35.451671242291 Eh       
E(C)               :       -2.136776513245 Eh       
E(XC)              :      -37.588447755536 Eh       
DFET-embed. en.    :        0.000000000000 Eh       

---------------
SCF CONVERGENCE
---------------

  Last Energy change         ...   -1.0929e-08  Tolerance :   1.0000e-08
  Last MAX-Density change    ...    3.9875e-06  Tolerance :   1.0000e-07
  Last RMS-Density change    ...    1.7155e-07  Tolerance :   5.0000e-09
  Last Orbital Gradient      ...    1.2053e-06  Tolerance :   1.0000e-05
  Last Orbital Rotation      ...    2.2933e-06  Tolerance :   1.0000e-05

             **** THE GBW FILE WAS UPDATED (/Users/lailaal-madhagi/Desktop/Testing_XAS_Analysis_code/Benzonitrile//Results_dir_Benzonitrile_geom_element_C_2019-11-05_19-31-48//GTE1_Benzonitrile_geom_2019-11-05_19-32-02//TDDFT_C-edge.gbw) ****
             **** DENSITY FILE WAS UPDATED (/Users/lailaal-madhagi/Desktop/Testing_XAS_Analysis_code/Benzonitrile//Results_dir_Benzonitrile_geom_element_C_2019-11-05_19-31-48//GTE1_Benzonitrile_geom_2019-11-05_19-32-02//TDDFT_C-edge.scfp.tmp) ****
             **** ENERGY FILE WAS UPDATED (/Users/lailaal-madhagi/Desktop/Testing_XAS_Analysis_code/Benzonitrile//Results_dir_Benzonitrile_geom_element_C_2019-11-05_19-31-48//GTE1_Benzonitrile_geom_2019-11-05_19-32-02//TDDFT_C-edge.en.tmp) ****
----------------
ORBITAL ENERGIES
----------------

  NO   OCC          E(Eh)            E(eV) 
   0   2.0000     -14.331380      -389.9767 
   1   2.0000     -10.233554      -278.4692 
   2   2.0000     -10.221058      -278.1291 
   3   2.0000     -10.211297      -277.8635 
   4   2.0000     -10.211274      -277.8629 
   5   2.0000     -10.207488      -277.7599 
   6   2.0000     -10.205463      -277.7048 
   7   2.0000     -10.205361      -277.7020 
   8   2.0000      -0.902832       -24.5673 
   9   2.0000      -0.873532       -23.7700 
  10   2.0000      -0.781234       -21.2585 
  11   2.0000      -0.767844       -20.8941 
  12   2.0000      -0.650583       -17.7033 
  13   2.0000      -0.627555       -17.0766 
  14   2.0000      -0.562519       -15.3069 
  15   2.0000      -0.505182       -13.7467 
  16   2.0000      -0.474913       -12.9230 
  17   2.0000      -0.456758       -12.4290 
  18   2.0000      -0.443166       -12.0592 
  19   2.0000      -0.401053       -10.9132 
  20   2.0000      -0.382157       -10.3990 
  21   2.0000      -0.371257       -10.1024 
  22   2.0000      -0.352659        -9.5963 
  23   2.0000      -0.343688        -9.3522 
  24   2.0000      -0.326285        -8.8787 
  25   2.0000      -0.272710        -7.4208 
  26   2.0000      -0.263207        -7.1622 
  27   0.0000      -0.048440        -1.3181 
  28   0.0000      -0.021219        -0.5774 
  29   0.0000       0.040272         1.0958 
  30   0.0000       0.075707         2.0601 
  31   0.0000       0.081121         2.2074 
  32   0.0000       0.128184         3.4881 
  33   0.0000       0.134885         3.6704 
  34   0.0000       0.167156         4.5485 
  35   0.0000       0.168485         4.5847 
  36   0.0000       0.179033         4.8717 
  37   0.0000       0.203391         5.5346 
  38   0.0000       0.282629         7.6907 
  39   0.0000       0.285198         7.7606 
  40   0.0000       0.296655         8.0724 
  41   0.0000       0.332041         9.0353 
  42   0.0000       0.387209        10.5365 
  43   0.0000       0.446902        12.1608 
  44   0.0000       0.496863        13.5203 
  45   0.0000       0.518708        14.1148 
  46   0.0000       0.531929        14.4745 
  47   0.0000       0.543596        14.7920 
  48   0.0000       0.544785        14.8244 
  49   0.0000       0.574304        15.6276 
  50   0.0000       0.578744        15.7484 
  51   0.0000       0.592716        16.1286 
  52   0.0000       0.603239        16.4150 
  53   0.0000       0.610113        16.6020 
  54   0.0000       0.621316        16.9069 
  55   0.0000       0.627525        17.0758 
  56   0.0000       0.644227        17.5303 
  57   0.0000       0.675543        18.3825 
  58   0.0000       0.691608        18.8196 
  59   0.0000       0.725605        19.7447 
  60   0.0000       0.756939        20.5974 
  61   0.0000       0.800933        21.7945 
  62   0.0000       0.821724        22.3603 
  63   0.0000       0.822676        22.3862 
  64   0.0000       0.844233        22.9728 
  65   0.0000       0.851878        23.1808 
  66   0.0000       0.879904        23.9434 
  67   0.0000       0.883039        24.0287 
  68   0.0000       0.895750        24.3746 
  69   0.0000       0.939301        25.5597 
  70   0.0000       0.964790        26.2533 
  71   0.0000       0.989271        26.9194 
  72   0.0000       1.071853        29.1666 
  73   0.0000       1.112207        30.2647 
  74   0.0000       1.129388        30.7322 
  75   0.0000       1.172069        31.8936 
  76   0.0000       1.189927        32.3796 
  77   0.0000       1.227514        33.4023 
  78   0.0000       1.271799        34.6074 
  79   0.0000       1.325407        36.0662 
  80   0.0000       1.412718        38.4420 
  81   0.0000       1.414884        38.5009 
  82   0.0000       1.423196        38.7271 
  83   0.0000       1.441645        39.2292 
  84   0.0000       1.469777        39.9947 
  85   0.0000       1.486593        40.4522 
  86   0.0000       1.539990        41.9053 
  87   0.0000       1.556138        42.3447 
  88   0.0000       1.612336        43.8739 
  89   0.0000       1.753154        47.7058 
  90   0.0000       1.782039        48.4917 
  91   0.0000       1.803117        49.0653 
  92   0.0000       1.822476        49.5921 
  93   0.0000       1.887846        51.3709 
  94   0.0000       1.919964        52.2449 
  95   0.0000       1.950220        53.0682 
  96   0.0000       1.958371        53.2900 
  97   0.0000       1.978660        53.8421 
  98   0.0000       2.019104        54.9426 
  99   0.0000       2.037414        55.4409 
 100   0.0000       2.067372        56.2560 
 101   0.0000       2.118131        57.6373 
 102   0.0000       2.127171        57.8833 
 103   0.0000       2.136974        58.1500 
 104   0.0000       2.148013        58.4504 
 105   0.0000       2.270071        61.7718 
 106   0.0000       2.285073        62.1800 
 107   0.0000       2.285835        62.2007 
 108   0.0000       2.483981        67.5925 
 109   0.0000       2.499361        68.0111 
 110   0.0000       2.574063        70.0438 
 111   0.0000       2.628241        71.5181 
 112   0.0000       2.632445        71.6325 
 113   0.0000       2.708961        73.7146 
 114   0.0000       2.711885        73.7941 
 115   0.0000       2.718012        73.9609 
 116   0.0000       2.800663        76.2099 
 117   0.0000       2.835441        77.1563 
 118   0.0000       2.864160        77.9377 
 119   0.0000       3.145111        85.5828 
 120   0.0000       3.276373        89.1546 
 121   0.0000       3.471151        94.4548 
------------------
MOLECULAR ORBITALS
------------------
                      0         1         2         3         4         5   
                 -14.33138 -10.23355 -10.22106 -10.21130 -10.21127 -10.20749
                   2.00000   2.00000   2.00000   2.00000   2.00000   2.00000
                  --------  --------  --------  --------  --------  --------
  0C   1s        -0.000041  0.000066 -0.000365  0.005675  0.038219 -0.105349
  0C   2s        -0.000351 -0.000086 -0.000715  0.000474 -0.000781 -0.001791
  0C   1pz        0.000001  0.000001  0.000000  0.000001  0.000007  0.000004
  0C   1px       -0.000150 -0.000142 -0.000046  0.000043 -0.000693  0.000547
  0C   1py        0.000039  0.000093 -0.000021  0.000147  0.001079  0.001176
  0C   3s        -0.000352 -0.002506  0.006807 -0.003853  0.013412 -0.009794
  0C   2pz       -0.000000  0.000002 -0.000017  0.000006 -0.000026  0.000001
  0C   2px        0.001100 -0.001450  0.003721 -0.002596  0.006443 -0.004968
  0C   2py        0.000526 -0.000259 -0.001688 -0.000195 -0.002055 -0.002410
  0C   1dz2      -0.000098 -0.000058 -0.000208  0.000152  0.000592 -0.000546
  0C   1dxz      -0.000001  0.000000 -0.000001  0.000001  0.000006  0.000004
  0C   1dyz       0.000001  0.000000  0.000002 -0.000002 -0.000010  0.000005
  0C   1dx2y2     0.000049 -0.000001 -0.000069  0.000085  0.000581 -0.000666
  0C   1dxy      -0.000009  0.000058 -0.000085  0.000113  0.000973  0.000908
  1C   1s        -0.000014 -0.000304 -0.000024 -0.001912  0.002467 -0.984341
  1C   2s        -0.000172 -0.000418  0.000079 -0.000062  0.000078 -0.035683
  1C   1pz        0.000001  0.000001  0.000000 -0.000001  0.000001  0.000004
  1C   1px       -0.000078 -0.000066 -0.000032  0.000268  0.000027 -0.000407
  1C   1py        0.000126  0.000106  0.000051 -0.000035  0.000272  0.000643
  1C   3s        -0.001081  0.002788 -0.003359  0.004947 -0.006222  0.030072
  1C   2pz       -0.000000 -0.000010  0.000015 -0.000014  0.000018 -0.000033
  1C   2px        0.000001  0.001009 -0.001484  0.001508 -0.001709  0.003342
  1C   2py       -0.000003 -0.001622  0.002388 -0.002218  0.002908 -0.005352
  1C   1dz2      -0.000051 -0.000073  0.000004  0.000014 -0.000017  0.000468
  1C   1dxz      -0.000000 -0.000000 -0.000000 -0.000000 -0.000001  0.000001
  1C   1dyz       0.000000  0.000001  0.000000 -0.000001 -0.000000 -0.000002
  1C   1dx2y2     0.000007  0.000003 -0.000011  0.000111  0.000072 -0.000140
  1C   1dxy       0.000014  0.000006 -0.000023 -0.000035 -0.000061 -0.000273
  2C   1s        -0.000041  0.000066 -0.000363 -0.037775  0.003084 -0.100791
  2C   2s        -0.000349 -0.000085 -0.000714  0.000680 -0.000641 -0.001623
  2C   1pz        0.000001  0.000001  0.000000 -0.000007  0.000001  0.000003
  2C   1px        0.000031 -0.000021  0.000038  0.000679 -0.000003 -0.001300
  2C   1py        0.000152  0.000168  0.000032 -0.001077  0.000224  0.000025
  2C   3s        -0.000366 -0.002509  0.006802 -0.012213  0.006796 -0.009923
  2C   2pz       -0.000001  0.000003 -0.000019  0.000026 -0.000013  0.000005
  2C   2px       -0.000957  0.000873 -0.000126  0.000680 -0.001514  0.004367
  2C   2py       -0.000744  0.001188 -0.004081  0.006010 -0.003702  0.003411
  2C   1dz2      -0.000097 -0.000058 -0.000207 -0.000612 -0.000014 -0.000549
  2C   1dxz      -0.000000 -0.000000 -0.000001 -0.000007  0.000000 -0.000005
  2C   1dyz       0.000001  0.000000  0.000002  0.000010 -0.000000 -0.000001
  2C   1dx2y2    -0.000037  0.000047 -0.000025 -0.000415  0.000058  0.001127
  2C   1dxy       0.000034  0.000034 -0.000106 -0.001057  0.000107  0.000023
  3C   1s        -0.000039  0.008967 -0.000892  0.113620  0.987848  0.006160
  3C   2s        -0.000328 -0.001445 -0.000467  0.004099  0.036294  0.000412
  3C   1pz        0.000000  0.000003  0.000003  0.000000  0.000002  0.000002
  3C   1px        0.000005 -0.001254 -0.000393  0.000254  0.000510 -0.000082
  3C   1py        0.000038 -0.000035  0.000331  0.000203  0.000745  0.000370
  3C   3s         0.001894  0.009011 -0.003526  0.002114 -0.034407  0.004489
  3C   2pz        0.000010 -0.000004 -0.000020  0.000010 -0.000024  0.000009
  3C   2px        0.000295  0.003578  0.002204  0.001070 -0.004529  0.001464
  3C   2py        0.002320  0.001064 -0.003141  0.002733 -0.007595  0.002614
  3C   1dz2      -0.000112  0.000656 -0.000149 -0.000024 -0.000552 -0.000035
  3C   1dxz       0.000000  0.000005  0.000001  0.000000 -0.000005 -0.000000
  3C   1dyz       0.000001  0.000000  0.000000 -0.000000  0.000004  0.000001
  3C   1dx2y2    -0.000064 -0.001095 -0.000019  0.000059  0.000219 -0.000103
  3C   1dxy       0.000085 -0.000076  0.000383  0.000069 -0.000400 -0.000095
  4C   1s        -0.000196  0.994968 -0.009864  0.007984 -0.010038 -0.000319
  4C   2s        -0.000551  0.036741 -0.002933  0.001963 -0.002471  0.000372
  4C   1pz       -0.000003 -0.000003  0.000009  0.000004 -0.000004  0.000001
  4C   1px        0.000326  0.000258 -0.000936  0.000711  0.001305 -0.000142
  4C   1py       -0.000522 -0.000413  0.001505  0.001247 -0.000201  0.000228
  4C   3s         0.024900 -0.030969  0.022392 -0.009888  0.012447 -0.001930
  4C   2pz       -0.000096 -0.000004 -0.000063 -0.000045  0.000055 -0.000031
  4C   2px        0.009590  0.000389  0.006285  0.001509 -0.007895  0.003080
  4C   2py       -0.015448 -0.000631 -0.010127 -0.008932  0.007525 -0.004962
  4C   1dz2      -0.000575 -0.000809  0.000830 -0.000601  0.000757  0.000077
  4C   1dxz      -0.000005 -0.000004  0.000009  0.000003  0.000005  0.000000
  4C   1dyz       0.000008  0.000007 -0.000014  0.000006 -0.000001 -0.000000
  4C   1dx2y2    -0.000351 -0.000011  0.000724 -0.000704 -0.001028 -0.000047
  4C   1dxy      -0.000712 -0.000023  0.001471  0.000923 -0.000220 -0.000095
  5C   1s        -0.000040  0.008985 -0.000894 -0.987870  0.113671  0.005849
  5C   2s        -0.000330 -0.001445 -0.000469 -0.036280  0.004249  0.000393
  5C   1pz        0.000000  0.000004  0.000003 -0.000002  0.000000  0.000002
  5C   1px       -0.000036  0.000586 -0.000123  0.000938  0.000083 -0.000293
  5C   1py        0.000010  0.001110  0.000498  0.000156  0.000105  0.000232
  5C   3s         0.001933  0.009019 -0.003502  0.033043 -0.009871  0.004545
  5C   2pz        0.000009 -0.000006 -0.000020  0.000017 -0.000013  0.000007
  5C   2px       -0.002224 -0.002538  0.001839 -0.007926  0.004848 -0.003007
  5C   2py        0.000757 -0.002740 -0.003376 -0.000745 -0.000080 -0.000152
  5C   1dz2      -0.000113  0.000656 -0.000150  0.000544 -0.000102 -0.000032
  5C   1dxz      -0.000001 -0.000003 -0.000000  0.000002 -0.000001 -0.000001
  5C   1dyz       0.000000 -0.000006 -0.000001 -0.000007  0.000002  0.000001
  5C   1dx2y2     0.000106  0.000607  0.000315  0.000435 -0.000121 -0.000009
  5C   1dxy       0.000000 -0.000915  0.000218  0.000049 -0.000103 -0.000135
  6C   1s         0.000508  0.009905  0.995028 -0.000648  0.000816 -0.000065
  6C   2s         0.000721 -0.001308  0.037847  0.000426 -0.000537  0.000187
  6C   1pz        0.000013 -0.000005 -0.000004  0.000000 -0.000001 -0.000000
  6C   1px       -0.001309  0.000501  0.000400  0.000011  0.000100  0.000022
  6C   1py        0.002098 -0.000804 -0.000638  0.000106 -0.000063 -0.000035
  6C   3s         0.006601  0.007247 -0.012301 -0.003272  0.004121 -0.002945
  6C   2pz       -0.000213  0.000015 -0.000159 -0.000018  0.000022 -0.000016
  6C   2px        0.021219 -0.001489  0.015908  0.001906 -0.002121  0.001628
  6C   2py       -0.034039  0.002394 -0.025531 -0.002752  0.003649 -0.002611
  6C   1dz2       0.001291  0.001025 -0.001733  0.000107 -0.000134  0.000032
  6C   1dxz       0.000013  0.000009 -0.000017  0.000001 -0.000000  0.000000
  6C   1dyz      -0.000020 -0.000015  0.000028 -0.000001  0.000001 -0.000001
  6C   1dx2y2     0.001016  0.000639 -0.001409 -0.000035 -0.000028  0.000028
  6C   1dxy       0.002071  0.001300 -0.002872  0.000017  0.000015  0.000058
  7N   1s         0.995517  0.000036 -0.000368  0.000012 -0.000015  0.000010
  7N   2s         0.034989  0.000880  0.000442  0.000131 -0.000165  0.000142
  7N   1pz        0.000020  0.000003 -0.000015 -0.000000  0.000000  0.000000
  7N   1px       -0.001977 -0.000300  0.001483 -0.000005 -0.000016 -0.000002
  7N   1py        0.003169  0.000481 -0.002379 -0.000016  0.000007  0.000004
  7N   3s        -0.049515 -0.001000 -0.026204 -0.001651  0.002087 -0.001554
  7N   2pz       -0.000080 -0.000004 -0.000052 -0.000002  0.000002 -0.000002
  7N   2px        0.007931  0.000436  0.005218  0.000196 -0.000196  0.000167
  7N   2py       -0.012715 -0.000702 -0.008360 -0.000256  0.000357 -0.000268
  7N   1dz2      -0.000465 -0.000148  0.000871 -0.000019  0.000024 -0.000011
  7N   1dxz      -0.000005 -0.000001  0.000009 -0.000000  0.000000 -0.000000
  7N   1dyz       0.000007  0.000002 -0.000014  0.000000 -0.000000  0.000000
  7N   1dx2y2    -0.000357 -0.000100  0.000668 -0.000023 -0.000008 -0.000009
  7N   1dxy      -0.000729 -0.000205  0.001367 -0.000001  0.000019 -0.000018
  8H   1s         0.000028  0.000056 -0.000172  0.000070 -0.000089  0.001359
  8H   2s         0.000202  0.000573 -0.000597  0.000420 -0.000529 -0.002817
  9H   1s         0.000077 -0.000050  0.000018  0.000180  0.000071  0.000272
  9H   2s         0.000661 -0.000172  0.001052 -0.001253  0.001009 -0.001442
 10H   1s         0.000151 -0.000255 -0.000383 -0.000053 -0.001374  0.000098
 10H   2s         0.000710  0.000169  0.000149  0.001124  0.002147  0.000640
 11H   1s         0.000077 -0.000050  0.000018 -0.000110 -0.000161  0.000278
 11H   2s         0.000663 -0.000172  0.001053 -0.000698  0.001451 -0.001455
 12H   1s         0.000151 -0.000254 -0.000383  0.001350 -0.000260  0.000098
 12H   2s         0.000709  0.000170  0.000149 -0.002346 -0.000606  0.000640
                      6         7         8         9        10        11   
                 -10.20546 -10.20536  -0.90283  -0.87353  -0.78123  -0.76784
                   2.00000   2.00000   2.00000   2.00000   2.00000   2.00000
                  --------  --------  --------  --------  --------  --------
  0C   1s        -0.964997  0.215653 -0.027528 -0.083395 -0.073416 -0.110494
  0C   2s        -0.035699  0.008241  0.053581  0.157528  0.142919  0.216007
  0C   1pz        0.000002 -0.000000 -0.000074 -0.000140  0.000324 -0.000331
  0C   1px       -0.001034  0.000123  0.020752  0.055174  0.018444  0.023239
  0C   1py       -0.000085 -0.000024 -0.004600 -0.000185  0.079415 -0.058164
  0C   3s         0.032197 -0.014207  0.018011  0.111726  0.097344  0.161841
  0C   2pz       -0.000017  0.000011  0.000024 -0.000040  0.000076 -0.000031
  0C   2px        0.007348 -0.005243 -0.006422  0.012425 -0.005210 -0.006871
  0C   2py        0.000388 -0.000435  0.001548 -0.001974  0.013417 -0.010460
  0C   1dz2       0.000654 -0.000254 -0.002578 -0.008156 -0.005745 -0.008338
  0C   1dxz       0.000001 -0.000000 -0.000014 -0.000037  0.000011 -0.000060
  0C   1dyz      -0.000008  0.000003  0.000022  0.000066  0.000031  0.000082
  0C   1dx2y2     0.000530 -0.000208  0.000008  0.000132 -0.000664 -0.000371
  0C   1dxy      -0.000018  0.000032 -0.000486 -0.000172  0.007446 -0.005201
  1C   1s         0.080419 -0.122143 -0.024608 -0.082435 -0.124556 -0.000007
  1C   2s         0.004517 -0.006981  0.046294  0.156653  0.242680  0.000027
  1C   1pz       -0.000003  0.000005 -0.000100 -0.000289 -0.000176 -0.000036
  1C   1px       -0.000821 -0.001192  0.009924  0.028747  0.017543 -0.094134
  1C   1py       -0.001192  0.000339 -0.015936 -0.046150 -0.028093 -0.058580
  1C   3s        -0.012676  0.020010  0.036554  0.092929  0.179035 -0.000111
  1C   2pz        0.000028 -0.000042 -0.000043 -0.000015  0.000014 -0.000006
  1C   2px       -0.000196  0.005812  0.004288  0.001562 -0.001419 -0.015305
  1C   2py        0.005859 -0.005864 -0.006862 -0.002510  0.002187 -0.009463
  1C   1dz2      -0.000515  0.000817 -0.002539 -0.008000 -0.009792  0.000002
  1C   1dxz       0.000004  0.000004 -0.000012 -0.000036 -0.000041  0.000044
  1C   1dyz       0.000005 -0.000001  0.000021  0.000065  0.000076  0.000031
  1C   1dx2y2    -0.000764 -0.001009 -0.000062 -0.000076  0.000322 -0.009014
  1C   1dxy       0.000979 -0.000461 -0.000124 -0.000151  0.000666  0.004436
  2C   1s         0.226105  0.963119 -0.027544 -0.083428 -0.073458  0.110463
  2C   2s         0.008116  0.035738  0.053597  0.157581  0.142989 -0.215971
  2C   1pz       -0.000001 -0.000003 -0.000084 -0.000171  0.000287  0.000324
  2C   1px       -0.000195 -0.000491 -0.005039 -0.024222 -0.079423 -0.041907
  2C   1py       -0.000278 -0.000854 -0.020654 -0.049569  0.018590  0.046509
  2C   3s        -0.001150 -0.035131  0.018166  0.111877  0.097481 -0.161735
  2C   2pz       -0.000004  0.000025  0.000026 -0.000046  0.000075  0.000024
  2C   2px       -0.000900  0.004398  0.001488 -0.003707 -0.009814 -0.012530
  2C   2py       -0.001293  0.007728  0.006323 -0.012159  0.010467 -0.001473
  2C   1dz2      -0.000053 -0.000698 -0.002581 -0.008158 -0.005749  0.008328
  2C   1dxz      -0.000000 -0.000006 -0.000012 -0.000035 -0.000022  0.000043
  2C   1dyz       0.000001  0.000005  0.000023  0.000067  0.000007 -0.000094
  2C   1dx2y2     0.000004  0.000366 -0.000394 -0.000222  0.006305  0.003905
  2C   1dxy      -0.000047 -0.000431 -0.000294 -0.000005  0.004005  0.003472
  3C   1s         0.037732 -0.007024 -0.042158 -0.085022  0.043372 -0.114846
  3C   2s         0.003386 -0.001177  0.080816  0.162109 -0.085121  0.225218
  3C   1pz        0.000007 -0.000002 -0.000020  0.000161  0.000454  0.000295
  3C   1px       -0.000672  0.000063  0.027981  0.027543 -0.091017 -0.036562
  3C   1py        0.001139 -0.000356  0.010784  0.049297  0.048100  0.043384
  3C   3s        -0.014168  0.007541  0.056724  0.088884 -0.058812  0.168412
  3C   2pz       -0.000024  0.000016  0.000034 -0.000041  0.000118 -0.000005
  3C   2px       -0.000927  0.001302  0.002501  0.000237 -0.012068 -0.009094
  3C   2py       -0.005635  0.004184  0.008698 -0.008501  0.018720 -0.005748
  3C   1dz2      -0.000646  0.000078 -0.004243 -0.008233  0.003557 -0.008699
  3C   1dxz      -0.000007  0.000001 -0.000023 -0.000036  0.000019 -0.000044
  3C   1dyz       0.000010 -0.000002  0.000028  0.000067  0.000016  0.000097
  3C   1dx2y2    -0.000404  0.000083  0.001399 -0.000094 -0.007798 -0.003910
  3C   1dxy      -0.001034  0.000199 -0.000173 -0.000107 -0.003453 -0.003374
  4C   1s        -0.000209  0.000327 -0.070921 -0.085921  0.128416 -0.000005
  4C   2s        -0.000195  0.000306  0.140701  0.165254 -0.254716 -0.000009
  4C   1pz        0.000001 -0.000001 -0.000085  0.000309  0.000151 -0.000041
  4C   1px       -0.000101  0.000080  0.008545 -0.030738 -0.015177 -0.106731
  4C   1py        0.000080 -0.000181 -0.013660  0.049438  0.024318 -0.066397
  4C   3s         0.006010 -0.009549  0.006909  0.116964 -0.194183  0.000135
  4C   2pz        0.000005 -0.000009  0.000149  0.000160  0.000074 -0.000006
  4C   2px       -0.001836  0.000064 -0.014976 -0.016133 -0.007246 -0.015994
  4C   2py        0.000101 -0.001889  0.024000  0.025749  0.012011 -0.010002
  4C   1dz2       0.000014 -0.000022 -0.006675 -0.007114  0.008280 -0.000004
  4C   1dxz      -0.000000  0.000000 -0.000037 -0.000022  0.000033 -0.000041
  4C   1dyz       0.000000 -0.000000  0.000065  0.000045 -0.000062 -0.000029
  4C   1dx2y2     0.000026  0.000090 -0.001151  0.001259 -0.000511  0.008563
  4C   1dxy      -0.000096  0.000088 -0.002347  0.002561 -0.001026 -0.004214
  5C   1s        -0.009963 -0.036340 -0.042184 -0.085047  0.043385  0.114819
  5C   2s        -0.000409 -0.003536  0.080863  0.162148 -0.085105 -0.225135
  5C   1pz       -0.000001 -0.000007 -0.000039  0.000129  0.000488 -0.000300
  5C   1px        0.000054  0.000780 -0.022052 -0.056419 -0.002930  0.022764
  5C   1py       -0.000289 -0.001090 -0.020345 -0.002926  0.102943 -0.051968
  5C   3s        -0.000665  0.016001  0.056682  0.088927 -0.059203 -0.168389
  5C   2pz       -0.000003  0.000026  0.000029 -0.000039  0.000119 -0.000002
  5C   2px        0.001543 -0.006787 -0.008782  0.007635 -0.011417 -0.009272
  5C   2py        0.000109  0.001791  0.001462 -0.004091  0.019270 -0.005496
  5C   1dz2       0.000211  0.000616 -0.004245 -0.008236  0.003564  0.008701
  5C   1dxz       0.000002  0.000006 -0.000011 -0.000037 -0.000028  0.000061
  5C   1dyz      -0.000003 -0.000010  0.000036  0.000067 -0.000017 -0.000085
  5C   1dx2y2     0.000153  0.000563 -0.000990 -0.000031  0.002021  0.000293
  5C   1dxy       0.000246  0.000938  0.001010 -0.000135 -0.008291  0.005147
  6C   1s        -0.000142  0.000225 -0.149818  0.045763  0.026258 -0.000003
  6C   2s         0.000219 -0.000351  0.271971 -0.081516 -0.057602  0.000007
  6C   1pz        0.000000 -0.000000 -0.000762  0.000756 -0.000881 -0.000005
  6C   1px       -0.000004  0.000007  0.075943 -0.075365  0.087860 -0.013855
  6C   1py        0.000007 -0.000011 -0.121718  0.120916 -0.141039 -0.008662
  6C   3s        -0.000686  0.001117  0.119268 -0.015800 -0.036282 -0.000053
  6C   2pz       -0.000008  0.000013  0.000571 -0.000021 -0.000019 -0.000002
  6C   2px        0.001199 -0.001091 -0.056977  0.002161  0.001872 -0.003462
  6C   2py       -0.001094  0.002274  0.091453 -0.003430 -0.003103 -0.002199
  6C   1dz2       0.000035 -0.000056 -0.012068  0.002328  0.003039  0.000000
  6C   1dxz       0.000000 -0.000000 -0.000114  0.000023  0.000026 -0.000010
  6C   1dyz      -0.000000  0.000001  0.000183 -0.000037 -0.000043 -0.000007
  6C   1dx2y2     0.000007 -0.000052 -0.008667  0.001788  0.001870  0.002101
  6C   1dxy       0.000061 -0.000076 -0.017670  0.003666  0.003780 -0.001032
  7N   1s         0.000007 -0.000011 -0.155157  0.084485 -0.046728 -0.000013
  7N   2s         0.000090 -0.000145  0.310807 -0.173583  0.097460  0.000026
  7N   1pz        0.000000 -0.000000  0.000930 -0.000490  0.000230 -0.000001
  7N   1px        0.000009  0.000009 -0.092629  0.048821 -0.022861 -0.003070
  7N   1py        0.000009 -0.000000  0.148555 -0.078280  0.036629 -0.001902
  7N   3s        -0.000985  0.001574  0.339636 -0.153332  0.091856  0.000019
  7N   2pz       -0.000001  0.000002  0.000346 -0.000123  0.000042 -0.000000
  7N   2px       -0.000018 -0.000263 -0.034452  0.012265 -0.004199 -0.000765
  7N   2py       -0.000263  0.000237  0.055223 -0.019676  0.006758 -0.000471
  7N   1dz2      -0.000008  0.000013 -0.007778  0.004213 -0.001973 -0.000001
  7N   1dxz      -0.000000  0.000000 -0.000075  0.000041 -0.000019 -0.000003
  7N   1dyz       0.000000 -0.000000  0.000120 -0.000065  0.000031 -0.000002
  7N   1dx2y2     0.000017  0.000027 -0.005817  0.003159 -0.001469  0.000626
  7N   1dxy      -0.000027  0.000016 -0.011872  0.006451 -0.003003 -0.000308
  8H   1s        -0.000011  0.000009  0.008296  0.030455  0.068517  0.000001
  8H   2s        -0.000698  0.001128  0.001882  0.002777  0.012025 -0.000005
  9H   1s        -0.000257 -0.001298  0.009178  0.030854  0.039812 -0.064475
  9H   2s         0.001132  0.002206 -0.002128  0.004713  0.006318 -0.011114
 10H   1s         0.000107  0.000078  0.017372  0.030861 -0.027485  0.067523
 10H   2s        -0.000742  0.001014  0.004082 -0.002785 -0.001263  0.010358
 11H   1s         0.001279 -0.000334  0.009169  0.030827  0.039766  0.064472
 11H   2s        -0.002469 -0.000054 -0.002155  0.004675  0.006267  0.011114
 12H   1s        -0.000117 -0.000064  0.017371  0.030854 -0.027473 -0.067491
 12H   2s        -0.000594  0.001108  0.004047 -0.002840 -0.001252 -0.010302
                     12        13        14        15        16        17   
                  -0.65058  -0.62755  -0.56252  -0.50518  -0.47491  -0.45676
                   2.00000   2.00000   2.00000   2.00000   2.00000   2.00000
                  --------  --------  --------  --------  --------  --------
  0C   1s         0.026529  0.090660 -0.043448  0.056868  0.004457 -0.014693
  0C   2s        -0.053850 -0.184501  0.089978 -0.115474 -0.010159  0.027949
  0C   1pz        0.000818 -0.000563  0.000140  0.000215 -0.001310  0.000421
  0C   1px       -0.004765  0.058600 -0.174100 -0.030379  0.025105 -0.230112
  0C   1py        0.172409 -0.089049 -0.063935  0.029608 -0.266788 -0.033655
  0C   3s        -0.022425 -0.135937  0.106031 -0.151676 -0.010987  0.022533
  0C   2pz        0.000142 -0.000252  0.000037  0.000144 -0.000379  0.000319
  0C   2px        0.013766  0.047552 -0.063788 -0.015137  0.017720 -0.078638
  0C   2py        0.037702 -0.028073 -0.026661  0.022426 -0.071289  0.025711
  0C   1dz2       0.001153  0.004219 -0.002505  0.001458  0.000058 -0.002309
  0C   1dxz       0.000053  0.000009 -0.000016  0.000026 -0.000017 -0.000074
  0C   1dyz      -0.000020 -0.000003  0.000017  0.000046  0.000016 -0.000019
  0C   1dx2y2    -0.002533 -0.004274  0.001078 -0.011333 -0.001216  0.012033
  0C   1dxy       0.008966 -0.004358 -0.000612 -0.001929 -0.004368 -0.007185
  1C   1s        -0.108239 -0.000003  0.027143 -0.056051  0.000012  0.039746
  1C   2s         0.220351 -0.000012 -0.054227  0.113631 -0.000023 -0.083410
  1C   1pz        0.000321  0.000065  0.000443  0.001406  0.000086  0.001087
  1C   1px       -0.031858  0.169983 -0.044076 -0.139843  0.225420 -0.108334
  1C   1py        0.051244  0.105778  0.070921  0.224766  0.140258  0.174154
  1C   3s         0.165805  0.000221 -0.032168  0.137276 -0.000044 -0.128240
  1C   2pz        0.000289  0.000016  0.000113  0.000459  0.000034  0.000346
  1C   2px       -0.028831  0.040521 -0.011336 -0.045990  0.084495 -0.034642
  1C   2py        0.046309  0.025062  0.018232  0.073842  0.052608  0.055634
  1C   1dz2      -0.005430 -0.000004  0.000401 -0.003368 -0.000000 -0.000826
  1C   1dxz      -0.000033 -0.000038  0.000022 -0.000053 -0.000018  0.000005
  1C   1dyz       0.000057 -0.000027 -0.000032  0.000082 -0.000013 -0.000005
  1C   1dx2y2    -0.001340  0.007950  0.002969 -0.005528  0.003632  0.001247
  1C   1dxy      -0.002700 -0.003909  0.006036 -0.011197 -0.001781  0.002548
  2C   1s         0.026546 -0.090625 -0.043461  0.056872 -0.004465 -0.014697
  2C   2s        -0.053908  0.184480  0.090027 -0.115489  0.010169  0.028013
  2C   1pz        0.000762  0.000566  0.000258  0.000222  0.001234  0.000560
  2C   1px       -0.152613 -0.054029  0.134259 -0.013123 -0.228207  0.131887
  2C   1py        0.080503  0.091959  0.128015  0.040326  0.140485  0.191571
  2C   3s        -0.022206  0.135501  0.106159 -0.151414  0.011421  0.022531
  2C   2pz        0.000121  0.000268  0.000080  0.000143  0.000363  0.000350
  2C   2px       -0.039873 -0.004019  0.052125 -0.013392 -0.056005  0.011747
  2C   2py        0.004109  0.055062  0.045189  0.023239  0.047070  0.081564
  2C   1dz2       0.001147 -0.004208 -0.002505  0.001450 -0.000065 -0.002309
  2C   1dxz      -0.000001  0.000008 -0.000006 -0.000055  0.000010  0.000047
  2C   1dyz      -0.000058  0.000015  0.000024 -0.000011 -0.000021  0.000066
  2C   1dx2y2     0.008651  0.000838 -0.001149  0.005376  0.002707 -0.013040
  2C   1dxy       0.003450  0.006032  0.000472 -0.010170  0.003616  0.005143
  3C   1s         0.071444 -0.083222 -0.002606 -0.052721 -0.009916  0.017980
  3C   2s        -0.144028  0.169148  0.007236  0.105250  0.024559 -0.036016
  3C   1pz       -0.000509 -0.000690 -0.000042 -0.000852  0.001144 -0.000014
  3C   1px        0.098373  0.075181 -0.172104  0.007394 -0.238041  0.164946
  3C   1py       -0.055895 -0.106976 -0.102062 -0.178328  0.116183  0.086480
  3C   3s        -0.121819  0.136710  0.000327  0.175236 -0.018983 -0.018277
  3C   2pz       -0.000128 -0.000330 -0.000120 -0.000136  0.000499  0.000218
  3C   2px        0.034329  0.014372 -0.050434  0.002043 -0.112043  0.028612
  3C   2py       -0.008827 -0.062840 -0.052783 -0.027749  0.046164  0.062626
  3C   1dz2       0.003436 -0.004197 -0.000878 -0.002995  0.000762  0.001514
  3C   1dxz      -0.000009  0.000005 -0.000028  0.000050  0.000016 -0.000043
  3C   1dyz      -0.000047  0.000011  0.000039 -0.000003  0.000019 -0.000081
  3C   1dx2y2     0.005376  0.001745 -0.003120 -0.001067 -0.005310  0.015800
  3C   1dxy      -0.002196  0.005941 -0.006887  0.012854 -0.000124 -0.002045
  4C   1s        -0.069791 -0.000026  0.029324  0.010723  0.000002 -0.060529
  4C   2s         0.144922  0.000019 -0.062089 -0.021396  0.000020  0.128012
  4C   1pz       -0.000960 -0.000072 -0.001387  0.000760  0.000090  0.001043
  4C   1px        0.095834 -0.189134  0.138355 -0.075965  0.235879 -0.104218
  4C   1py       -0.153926 -0.117681 -0.222365  0.122114  0.146845  0.167423
  4C   3s         0.110724  0.000321 -0.012798 -0.021459 -0.000046  0.194188
  4C   2pz       -0.000313 -0.000015 -0.000349 -0.000225  0.000010  0.000018
  4C   2px        0.031302 -0.034192  0.035041  0.022505  0.019672 -0.001878
  4C   2py       -0.050472 -0.021501 -0.056366 -0.036230  0.012624  0.002986
  4C   1dz2      -0.002280 -0.000007 -0.000441  0.000709  0.000001  0.000686
  4C   1dxz      -0.000036 -0.000024 -0.000015  0.000059 -0.000013  0.000012
  4C   1dyz       0.000055 -0.000017  0.000022 -0.000084 -0.000009 -0.000018
  4C   1dx2y2    -0.003715  0.005059 -0.001938  0.008042  0.002757  0.001278
  4C   1dxy      -0.007555 -0.002492 -0.003945  0.016339 -0.001351  0.002601
  5C   1s         0.071454  0.083214 -0.002584 -0.052727  0.009918  0.017970
  5C   2s        -0.144016 -0.169072  0.007180  0.105244 -0.024527 -0.035944
  5C   1pz       -0.000544  0.000694  0.000087 -0.000796 -0.001234 -0.000133
  5C   1px        0.006695 -0.062725  0.167612  0.156664 -0.000992 -0.150450
  5C   1py       -0.113032  0.114625  0.109320 -0.085417 -0.264921 -0.109724
  5C   3s        -0.121958 -0.136786  0.000177  0.175157  0.018471 -0.018567
  5C   2pz       -0.000145  0.000317 -0.000074 -0.000129 -0.000547  0.000182
  5C   2px       -0.007134 -0.050182  0.069826  0.024214 -0.007638 -0.068782
  5C   2py       -0.034885  0.040757  0.021793 -0.014286 -0.121140  0.002010
  5C   1dz2       0.003442  0.004202 -0.000877 -0.002994 -0.000753  0.001521
  5C   1dxz       0.000041  0.000004 -0.000026 -0.000008  0.000025  0.000088
  5C   1dyz      -0.000012 -0.000004  0.000041 -0.000044  0.000010  0.000012
  5C   1dx2y2    -0.005019 -0.003640 -0.003557  0.010841 -0.003141 -0.011253
  5C   1dxy       0.002928 -0.005008 -0.006662  0.007004  0.004294  0.011278
  6C   1s        -0.064146 -0.000007 -0.057714  0.056696  0.000026  0.039838
  6C   2s         0.134571  0.000034  0.123053 -0.120672 -0.000055 -0.081054
  6C   1pz        0.001063 -0.000016  0.000803 -0.000697  0.000033 -0.000392
  6C   1px       -0.106088 -0.040626 -0.080149  0.069525  0.087279  0.039059
  6C   1py        0.170304 -0.025314  0.128647 -0.111522  0.054350 -0.062732
  6C   3s         0.102560 -0.000177  0.123923 -0.159301  0.000210 -0.142065
  6C   2pz        0.000130 -0.000007  0.000015 -0.000439  0.000021 -0.000313
  6C   2px       -0.013065 -0.016895 -0.001600  0.043866  0.054378  0.031227
  6C   2py        0.020994 -0.010719  0.002575 -0.070368  0.033919 -0.050188
  6C   1dz2      -0.003604  0.000002 -0.001627  0.000842 -0.000003  0.000412
  6C   1dxz      -0.000034 -0.000024 -0.000013  0.000016  0.000032  0.000001
  6C   1dyz       0.000055 -0.000017  0.000022 -0.000025  0.000023 -0.000002
  6C   1dx2y2    -0.002648  0.005073 -0.000875  0.001818 -0.006587 -0.000129
  6C   1dxy      -0.005374 -0.002493 -0.001781  0.003698  0.003240 -0.000259
  7N   1s         0.040144 -0.000009  0.032276 -0.027402 -0.000001 -0.024320
  7N   2s        -0.085635  0.000020 -0.067321  0.061870  0.000017  0.054188
  7N   1pz       -0.000111 -0.000005 -0.000007 -0.000071  0.000018 -0.000144
  7N   1px        0.011045 -0.012977  0.000704  0.007114  0.045411  0.014357
  7N   1py       -0.017670 -0.008089 -0.001089 -0.011396  0.028318 -0.023089
  7N   3s        -0.087641 -0.000033 -0.104604  0.045975 -0.000085  0.061084
  7N   2pz        0.000002 -0.000001 -0.000015 -0.000095  0.000005 -0.000089
  7N   2px       -0.000127 -0.002576  0.001537  0.009450  0.012124  0.008868
  7N   2py        0.000210 -0.001607 -0.002441 -0.015133  0.007503 -0.014228
  7N   1dz2       0.000920 -0.000001  0.000030  0.000275  0.000001  0.000913
  7N   1dxz       0.000009 -0.000010  0.000001  0.000003  0.000023  0.000008
  7N   1dyz      -0.000014 -0.000007 -0.000001 -0.000005  0.000017 -0.000013
  7N   1dx2y2     0.000639  0.001967  0.000062  0.000321 -0.004833  0.000585
  7N   1dxy       0.001312 -0.000966  0.000132  0.000658  0.002371  0.001189
  8H   1s         0.108626  0.000011  0.014844  0.199932 -0.000010  0.077509
  8H   2s         0.029615  0.000026  0.011323  0.130922 -0.000027  0.074562
  9H   1s        -0.020897  0.096820  0.123572 -0.043113  0.014150  0.155420
  9H   2s        -0.004061  0.030827  0.063142 -0.020919  0.006580  0.123163
 10H   1s        -0.054380  0.092580  0.083400  0.137315  0.015416 -0.113257
 10H   2s        -0.017290  0.026163  0.041346  0.093701  0.010473 -0.080489
 11H   1s        -0.020889 -0.096823  0.123517 -0.043104 -0.014083  0.155392
 11H   2s        -0.004103 -0.030855  0.063027 -0.020977 -0.006490  0.123009
 12H   1s        -0.054379 -0.092531  0.083380  0.137275 -0.015457 -0.113235
 12H   2s        -0.017322 -0.026072  0.041269  0.093580 -0.010671 -0.080451
                     18        19        20        21        22        23   
                  -0.44317  -0.40105  -0.38216  -0.37126  -0.35266  -0.34369
                   2.00000   2.00000   2.00000   2.00000   2.00000   2.00000
                  --------  --------  --------  --------  --------  --------
  0C   1s         0.017803 -0.000000 -0.008480 -0.000242  0.002813  0.000000
  0C   2s        -0.039798  0.000001  0.013734  0.007220 -0.004780  0.000000
  0C   1pz        0.000812 -0.163369  0.001293  0.000290  0.000523  0.177419
  0C   1px       -0.262745 -0.000414 -0.096600  0.186146 -0.052490  0.000444
  0C   1py        0.032220  0.000771  0.224092  0.162483  0.084642 -0.000825
  0C   3s        -0.068755  0.000009  0.041927 -0.039473 -0.014492 -0.000014
  0C   2pz        0.000151 -0.088619  0.000394  0.000247  0.000245  0.114220
  0C   2px       -0.080865 -0.000220 -0.020759  0.037780 -0.023790  0.000280
  0C   2py       -0.011212  0.000416  0.072842  0.073391  0.040212 -0.000531
  0C   1dz2      -0.002015  0.000045 -0.001414  0.002861 -0.000357  0.000007
  0C   1dxz       0.000009 -0.007910  0.000028  0.000079  0.000003  0.006219
  0C   1dyz      -0.000031  0.001266 -0.000067  0.000053 -0.000028  0.004227
  0C   1dx2y2     0.006281 -0.000014  0.009828 -0.018503  0.004621  0.000036
  0C   1dxy       0.007101  0.000041  0.012691  0.004263  0.003434 -0.000018
  1C   1s         0.000004 -0.000000 -0.004215  0.000008  0.000090  0.000000
  1C   2s        -0.000017  0.000005  0.016270 -0.000001  0.002884 -0.000004
  1C   1pz        0.000026 -0.150628 -0.001516 -0.000091 -0.000382  0.216766
  1C   1px        0.070093 -0.000373  0.150844 -0.238177  0.037398  0.000548
  1C   1py        0.043557  0.000695 -0.242830 -0.147987 -0.060115 -0.001017
  1C   3s        -0.000122 -0.000007 -0.012565 -0.000031 -0.009810  0.000007
  1C   2pz       -0.000004 -0.085421 -0.000366 -0.000034 -0.000100  0.131472
  1C   2px       -0.014977 -0.000219  0.036689 -0.084883  0.009614  0.000338
  1C   2py       -0.009253  0.000405 -0.059045 -0.052721 -0.015480 -0.000627
  1C   1dz2       0.000002  0.000069  0.003715 -0.000002  0.001093 -0.000066
  1C   1dxz      -0.000055 -0.003948  0.000090  0.000047  0.000029  0.003806
  1C   1dyz      -0.000039  0.006330 -0.000135  0.000034 -0.000043 -0.006104
  1C   1dx2y2     0.011473  0.000020  0.010629 -0.009760  0.003475 -0.000019
  1C   1dxy      -0.005656  0.000035  0.021584  0.004795  0.007058 -0.000033
  2C   1s        -0.017812 -0.000000 -0.008476  0.000239  0.002817 -0.000000
  2C   2s         0.039754  0.000003  0.013700 -0.007164 -0.004798 -0.000003
  2C   1pz       -0.000946 -0.163447  0.001270 -0.000135  0.000524  0.177424
  2C   1px       -0.087190 -0.000421 -0.158027  0.228199 -0.052737  0.000448
  2C   1py       -0.249943  0.000769  0.185767  0.094993  0.084518 -0.000824
  2C   3s         0.068861  0.000003  0.042086  0.039463 -0.014395 -0.000002
  2C   2pz       -0.000200 -0.088452  0.000382 -0.000204  0.000244  0.114010
  2C   2px       -0.045939 -0.000226 -0.056028  0.082596 -0.025603  0.000286
  2C   2py       -0.067434  0.000412  0.050718  0.001270  0.038992 -0.000525
  2C   1dz2       0.002013  0.000052 -0.001419 -0.002856 -0.000360 -0.000001
  2C   1dxz      -0.000030  0.002361  0.000056  0.000081  0.000026 -0.006544
  2C   1dyz       0.000016  0.007649 -0.000047  0.000061 -0.000011 -0.003703
  2C   1dx2y2    -0.001792  0.000042  0.004050 -0.014670 -0.000098 -0.000034
  2C   1dxy      -0.009292  0.000009  0.015537  0.012050  0.005753  0.000022
  3C   1s         0.018742  0.000001  0.012929 -0.005806 -0.001080 -0.000000
  3C   2s        -0.041654 -0.000003 -0.033039  0.006536  0.002507 -0.000001
  3C   1pz       -0.000950 -0.204451 -0.001252 -0.000184 -0.000529  0.072522
  3C   1px       -0.098038 -0.000514  0.106047 -0.159406  0.071598  0.000187
  3C   1py       -0.256140  0.000949 -0.211893 -0.125343 -0.074282 -0.000344
  3C   3s        -0.076895 -0.000012 -0.003886  0.054256  0.020427  0.000016
  3C   2pz       -0.000197 -0.115502 -0.000410  0.000103 -0.000158  0.040141
  3C   2px       -0.055702 -0.000295  0.068850 -0.060419  0.025910  0.000109
  3C   2py       -0.071891  0.000533 -0.051201 -0.010762 -0.019636 -0.000181
  3C   1dz2      -0.002013 -0.000015 -0.002067 -0.002381 -0.000479  0.000082
  3C   1dxz       0.000033 -0.007636  0.000033  0.000090  0.000023 -0.005085
  3C   1dyz      -0.000010 -0.006035 -0.000011  0.000057 -0.000017  0.007443
  3C   1dx2y2     0.000611 -0.000048  0.000773 -0.015218  0.001214  0.000022
  3C   1dxy       0.009186  0.000020  0.009450  0.013203  0.005970  0.000043
  4C   1s        -0.000002 -0.000000 -0.019651  0.000014  0.008043  0.000000
  4C   2s        -0.000007 -0.000001  0.043144 -0.000011 -0.008901  0.000002
  4C   1pz        0.000031 -0.286636  0.000361  0.000071  0.000774 -0.071572
  4C   1px        0.083334 -0.000723 -0.035036  0.187343 -0.076913 -0.000184
  4C   1py        0.051831  0.001336  0.056458  0.116523  0.123606  0.000339
  4C   3s         0.000172 -0.000009  0.063737 -0.000073 -0.191772 -0.000014
  4C   2pz       -0.000007 -0.153654 -0.000472  0.000024  0.000678 -0.032340
  4C   2px       -0.019098 -0.000405  0.047647  0.063753 -0.067405 -0.000074
  4C   2py       -0.011928  0.000731 -0.076709  0.039905  0.108611  0.000147
  4C   1dz2      -0.000004 -0.000003  0.001239 -0.000002  0.001289  0.000141
  4C   1dxz       0.000057  0.000152  0.000053  0.000012  0.000032 -0.008129
  4C   1dyz       0.000041 -0.000249 -0.000077  0.000008 -0.000048  0.013053
  4C   1dx2y2    -0.011790 -0.000000  0.006834 -0.002459  0.003795  0.000040
  4C   1dxy       0.005808 -0.000001  0.013872  0.001203  0.007721  0.000071
  5C   1s        -0.018736  0.000001  0.012941  0.005801 -0.001084  0.000000
  5C   2s         0.041685 -0.000003 -0.033080 -0.006476  0.002526 -0.000000
  5C   1pz        0.000809 -0.204489 -0.001238  0.000055 -0.000543  0.072467
  5C   1px       -0.273047 -0.000511  0.143058 -0.183074  0.035016  0.000185
  5C   1py        0.025198  0.000951 -0.188771 -0.087406 -0.097073 -0.000344
  5C   3s         0.076834 -0.000001 -0.003866 -0.054542  0.020176  0.000005
  5C   2pz        0.000142 -0.115728 -0.000431 -0.000137 -0.000165  0.040157
  5C   2px       -0.089187 -0.000290  0.015607 -0.036281  0.006337  0.000098
  5C   2py       -0.018028  0.000535 -0.084590 -0.049321 -0.031874 -0.000186
  5C   1dz2       0.002014 -0.000005 -0.002065  0.002389 -0.000473  0.000083
  5C   1dxz      -0.000002  0.008795  0.000003  0.000079  0.000009 -0.004433
  5C   1dyz       0.000031  0.004178 -0.000032  0.000063 -0.000027  0.007854
  5C   1dx2y2    -0.006910  0.000042  0.007000 -0.019757  0.003999  0.000026
  5C   1dxy      -0.006098 -0.000031  0.006385  0.004000  0.004608  0.000041
  6C   1s        -0.000007  0.000001  0.058876 -0.000034 -0.050466 -0.000000
  6C   2s         0.000028 -0.000004 -0.123384  0.000073  0.090001 -0.000000
  6C   1pz       -0.000003 -0.212034 -0.000055  0.000045 -0.001416 -0.334334
  6C   1px       -0.007732 -0.000535  0.006470  0.118185  0.142470 -0.000839
  6C   1py       -0.004802  0.000990 -0.010049  0.073646 -0.228852  0.001554
  6C   3s        -0.000021  0.000011 -0.170728  0.000140  0.040185 -0.000008
  6C   2pz       -0.000002 -0.105548 -0.000628  0.000022  0.000916 -0.191569
  6C   2px       -0.003847 -0.000274  0.063150  0.055461 -0.090722 -0.000486
  6C   2py       -0.002490  0.000508 -0.101136  0.034758  0.145410  0.000898
  6C   1dz2       0.000000 -0.000028 -0.001632 -0.000000  0.002853  0.000123
  6C   1dxz       0.000009  0.001623 -0.000007  0.000003  0.000034 -0.007089
  6C   1dyz       0.000006 -0.002620  0.000013  0.000002 -0.000053  0.011360
  6C   1dx2y2    -0.001832 -0.000008 -0.000013 -0.000670  0.002970  0.000035
  6C   1dxy       0.000900 -0.000014 -0.000037  0.000338  0.006071  0.000062
  7N   1s         0.000001 -0.000000 -0.049762  0.000038  0.100213  0.000003
  7N   2s         0.000004  0.000000  0.113244 -0.000086 -0.229363 -0.000006
  7N   1pz       -0.000003 -0.151275 -0.000827  0.000037  0.002536 -0.341864
  7N   1px       -0.008289 -0.000383  0.083233  0.094967 -0.251563 -0.000873
  7N   1py       -0.005164  0.000707 -0.133183  0.059400  0.403093  0.001614
  7N   3s        -0.000055  0.000009  0.119596 -0.000067 -0.251301 -0.000008
  7N   2pz       -0.000002 -0.073518 -0.000534  0.000019  0.001617 -0.186545
  7N   2px       -0.005531 -0.000187  0.053559  0.049415 -0.160389 -0.000477
  7N   2py       -0.003461  0.000345 -0.085717  0.030933  0.256988  0.000882
  7N   1dz2      -0.000000 -0.000128  0.004886 -0.000005 -0.015182 -0.000240
  7N   1dxz      -0.000003  0.007356  0.000048  0.000043 -0.000149  0.013766
  7N   1dyz      -0.000002 -0.011797 -0.000077  0.000030  0.000238 -0.022075
  7N   1dx2y2     0.000630 -0.000037  0.003853 -0.008851 -0.011578 -0.000069
  7N   1dxy      -0.000310 -0.000064  0.007894  0.004327 -0.023662 -0.000121
  8H   1s        -0.000026 -0.000008 -0.203773  0.000111 -0.056153 -0.000003
  8H   2s        -0.000055 -0.000010 -0.210014  0.000129 -0.061630 -0.000000
  9H   1s        -0.141330  0.000002  0.076751  0.143794  0.036177  0.000002
  9H   2s        -0.126857  0.000002  0.076700  0.151320  0.036459 -0.000001
 10H   1s         0.146694  0.000002  0.081680  0.145995  0.029938  0.000002
 10H   2s         0.127745  0.000001  0.094085  0.145292  0.031054  0.000004
 11H   1s         0.141324  0.000002  0.076579 -0.143846  0.036159  0.000002
 11H   2s         0.126824  0.000001  0.076526 -0.151284  0.036398  0.000003
 12H   1s        -0.146654  0.000004  0.081518 -0.146120  0.029945  0.000001
 12H   2s        -0.127671  0.000003  0.093883 -0.145425  0.031001  0.000003
                     24        25        26        27        28        29   
                  -0.32628  -0.27271  -0.26321  -0.04844  -0.02122   0.04027
                   2.00000   2.00000   2.00000   0.00000   0.00000   0.00000
                  --------  --------  --------  --------  --------  --------
  0C   1s        -0.008134 -0.000000  0.000000  0.000001 -0.000001 -0.023141
  0C   2s         0.018549 -0.000001  0.000001  0.000001  0.000001  0.039434
  0C   1pz       -0.000205  0.292510  0.143058 -0.120743 -0.320393 -0.000286
  0C   1px        0.070606  0.000737  0.000361 -0.000303 -0.000811  0.021707
  0C   1py       -0.005921 -0.001367 -0.000668  0.000566  0.001498 -0.050412
  0C   3s         0.035328  0.000006 -0.000021 -0.000035  0.000015  0.333686
  0C   2pz       -0.000189  0.205561  0.102975 -0.156237 -0.420001 -0.000912
  0C   2px        0.014886  0.000521  0.000249 -0.000404 -0.001049  0.032519
  0C   2py       -0.032477 -0.000954 -0.000483  0.000720  0.001948 -0.178527
  0C   1dz2       0.000836 -0.000099  0.000115  0.000191 -0.000159 -0.000198
  0C   1dxz       0.000024  0.005073  0.001580  0.001749  0.009498  0.000020
  0C   1dyz       0.000021 -0.009506  0.015061  0.024491 -0.014546  0.000013
  0C   1dx2y2    -0.006508 -0.000032  0.000074  0.000119 -0.000044 -0.003661
  0C   1dxy       0.000888 -0.000047  0.000031  0.000054 -0.000081  0.002485
  1C   1s        -0.000006  0.000001  0.000000  0.000000 -0.000001  0.000031
  1C   2s         0.000019  0.000003 -0.000003 -0.000000 -0.000004 -0.000047
  1C   1pz       -0.000015  0.000388  0.302293  0.322829  0.000362 -0.000000
[...]
CI-vector output               ... /Users/lailaal-madhagi/Desktop/Testing_XAS_Analysis_code/Benzonitrile//Results_dir_Benzonitrile_geom_element_C_2019-11-05_19-31-48//GTE1_Benzonitrile_geom_2019-11-05_19-32-02//TDDFT_C-edge.cis
Tamm-Dancoff approximation     ... operative
CIS-Integral strategy          ... AO-integrals
Integral handling              ... AO integral Direct
Max. core memory used          ... 512 MB
Reference state                ... RHF
Generation of triplets         ... off
Follow IRoot                   ... off
Number of operators            ... 1
Orbital ranges used for CIS calculation:
 Operator 0:  Orbitals   1...  7  to  27...121
XAS localization array:
 Operator 0:  Orbitals  -1... -1
-------------------
XC-INTEGRATION GRID
-------------------

General Integration Accuracy     IntAcc      ...  3.670
Radial Grid Type                 RadialGrid  ... Gauss-Chebyshev
Angular Grid (max. acc.)         AngularGrid ... Lebedev-50
Angular grid pruning method      GridPruning ... 3 (G Style)
Weight generation scheme         WeightScheme... Becke
Basis function cutoff            BFCut       ...    1.0000e-11
Integration weight cutoff        WCut        ...    1.0000e-14
Grids for H and He will be reduced by one unit

# of grid points (after initial pruning)     ...   7828 (   0.0 sec)
# of grid points (after weights+screening)   ...   7384 (   0.0 sec)
nearest neighbour list constructed           ...    0.0 sec
Grid point re-assignment to atoms done       ...    0.0 sec
Grid point division into batches done        ...    0.0 sec
Reduced shell lists constructed in    0.0 sec

Total number of grid points                  ...     7384
Total number of batches                      ...      122
Average number of points per batch           ...       60
Average number of grid points per atom       ...      568
Average number of shells per batch           ...    44.60 (76.90%)
Average number of basis functions per batch  ...    95.85 (78.57%)
Average number of large shells per batch     ...    35.50 (79.60%)
Average number of large basis fcns per batch ...    76.79 (80.11%)
Maximum spatial batch extension              ...  17.20, 17.60, 39.19 au
Average spatial batch extension              ...   4.54,  4.40,  6.64 au


---------------
TD-DFT XC SETUP
---------------

DFT calculation                         ... on
Name of the grid file                   ... /Users/lailaal-madhagi/Desktop/Testing_XAS_Analysis_code/Benzonitrile//Results_dir_Benzonitrile_geom_element_C_2019-11-05_19-31-48//GTE1_Benzonitrile_geom_2019-11-05_19-32-02//TDDFT_C-edge.grid_cis.tmp
Exchange functional (SCF)               ... B88
Exchange functional (TD-DFT)            ... B88
   X-Alpha parameter    XAlpha (SCF)    ...  0.666667
   X-Alpha parameter    XAlpha (TD-DFT) ...  0.666667
   Becke's b parameter  XBeta (SCF)     ...  0.004200
   Becke's b parameter  XBeta (TD-DFT)  ...  0.004200
Correlation functional (SCF)            ... LYP
Correlation functional (TD-DFT)         ... LYP
 LDA part of GGA corr.  LDAOpt (SCF)    ... VWN-5
 LDA part of GGA corr.  LDAOpt (TD-DFT) ... VWN-5
Hybrid DFT                              ... on
   Exchange mixing (SCF)                ...  0.200
   Exchange mixing (TD-DFT)             ...  0.200
   GGA exch. scaling(SCF)               ...  0.720
   GGA exch. scaling (TD-DFT)           ...  0.720
   GGA corr. scaling (SCF)              ...  0.810
   GGA corr. scaling (TD-DFT)           ...  0.810

Building densities             ... done
Calculating rho(r) on the grid ... done
Building xc-kernel on the grid ... done
                    *** TD-DFT CALCULATION INITIALIZED ***


------------------------
DAVIDSON-DIAGONALIZATION
------------------------

Dimension of the eigenvalue problem            ...    665
Number of roots to be determined               ...     20
Maximum size of the expansion space            ...    665
Maximum number of iterations                   ...    100
Convergence tolerance for the residual         ...    2.500e-07
Convergence tolerance for the energies         ...    2.500e-07
Orthogonality tolerance                        ...    1.000e-14
Level Shift                                    ...    0.000e+00
Constructing the preconditioner                ... o.k.
Building the initial guess                     ... o.k.
Number of trial vectors determined             ...    512


                       ****Iteration    0****

   Memory handling for direct AO based CIS:
   Memory per vector needed      ...     1 MB
   Memory needed                 ...    27 MB
   Memory available              ...   512 MB
   Number of vectors per batch   ...   512
   Number of batches             ...     1
   Time for densities:     0.017
   Using LibInt in JK Direct
   Time for J+K (Direct):    90.100
   Time for XC-Integration:     2.348
   Time for Sigma-Completion:     0.127
   Size of expansion space: 60
   Lowest Energy          :    10.093727981540
   Maximum Energy change  :    10.217179142383 (vector 19)
   Maximum residual norm  :     0.001287778383

                       ****Iteration    1****
   Time for densities:     0.006
   Using LibInt in JK Direct
   Time for J+K (Direct):    21.045
   Time for XC-Integration:     0.781
   Time for Sigma-Completion:     0.051
   Size of expansion space: 80
   Lowest Energy          :    10.092767016982
   Maximum Energy change  :     0.003237089313 (vector 8)
   Maximum residual norm  :     0.000011595303

                       ****Iteration    2****
   Time for densities:     0.006
   Using LibInt in JK Direct
   Time for J+K (Direct):    21.034
   Time for XC-Integration:     0.783
   Time for Sigma-Completion:     0.047
   Size of expansion space: 100
   Lowest Energy          :    10.092766223666
   Maximum Energy change  :     0.000010260816 (vector 8)
   Maximum residual norm  :     0.000000035184

      *** CONVERGENCE OF RESIDUAL NORM REACHED ***

Storing the converged CI vectors               ... /Users/lailaal-madhagi/Desktop/Testing_XAS_Analysis_code/Benzonitrile//Results_dir_Benzonitrile_geom_element_C_2019-11-05_19-31-48//GTE1_Benzonitrile_geom_2019-11-05_19-32-02//TDDFT_C-edge.cis1

                 *** DAVIDSON DONE ***

Total time for solving the CIS problem:   136.858sec

------------------------------------
TD-DFT/TDA EXCITED STATES (SINGLETS)
------------------------------------

the weight of the individual excitations are printed if larger than 1.0e-02

STATE  1:  E=  10.092766 au    274.638 eV  2215106.1 cm**-1
     5a ->  27a  :     0.931796 (c= -0.96529600)
     5a ->  31a  :     0.038217 (c=  0.19549065)
     7a ->  27a  :     0.016147 (c= -0.12707243)

STATE  2:  E=  10.098447 au    274.793 eV  2216352.9 cm**-1
     3a ->  27a  :     0.290573 (c=  0.53904844)
     3a ->  28a  :     0.042355 (c=  0.20580348)
     4a ->  27a  :     0.454704 (c=  0.67431755)
     4a ->  28a  :     0.185030 (c= -0.43015062)
     6a ->  27a  :     0.011074 (c=  0.10523129)

STATE  3:  E=  10.098542 au    274.795 eV  2216373.8 cm**-1
     3a ->  27a  :     0.454108 (c= -0.67387559)
     3a ->  28a  :     0.184219 (c= -0.42920764)
     4a ->  27a  :     0.290631 (c=  0.53910180)
     4a ->  28a  :     0.041834 (c= -0.20453407)
     7a ->  27a  :     0.011761 (c= -0.10844613)

STATE  4:  E=  10.102207 au    274.895 eV  2217178.1 cm**-1
     3a ->  27a  :     0.012232 (c= -0.11059868)
     6a ->  27a  :     0.174711 (c=  0.41798494)
     7a ->  27a  :     0.603137 (c=  0.77661927)
     7a ->  28a  :     0.170868 (c= -0.41336172)
     7a ->  31a  :     0.021401 (c= -0.14629078)

STATE  5:  E=  10.102331 au    274.898 eV  2217205.4 cm**-1
     4a ->  27a  :     0.012264 (c=  0.11074213)
     5a ->  27a  :     0.012696 (c= -0.11267461)
     6a ->  27a  :     0.602598 (c= -0.77627162)
     6a ->  28a  :     0.170518 (c= -0.41293779)
     6a ->  31a  :     0.021339 (c=  0.14607732)
     7a ->  27a  :     0.168077 (c=  0.40997201)

STATE  6:  E=  10.113793 au    275.210 eV  2219721.0 cm**-1
     2a ->  27a  :     0.948616 (c= -0.97396915)
     2a ->  31a  :     0.040678 (c= -0.20168780)

STATE  7:  E=  10.114694 au    275.235 eV  2219918.8 cm**-1
     5a ->  28a  :     0.010097 (c=  0.10048472)
     6a ->  27a  :     0.055923 (c= -0.23648014)
     7a ->  27a  :     0.134080 (c= -0.36616877)
     7a ->  28a  :     0.774667 (c= -0.88015187)

STATE  8:  E=  10.114798 au    275.238 eV  2219941.6 cm**-1
     6a ->  27a  :     0.132876 (c= -0.36452129)
     6a ->  28a  :     0.782268 (c=  0.88445914)
     7a ->  27a  :     0.050660 (c=  0.22507818)
     7a ->  28a  :     0.010764 (c=  0.10375109)

STATE  9:  E=  10.116606 au    275.287 eV  2220338.3 cm**-1
     1a ->  27a  :     0.975754 (c= -0.98780280)
     1a ->  35a  :     0.012907 (c=  0.11360885)

STATE 10:  E=  10.126806 au    275.564 eV  2222577.1 cm**-1
     3a ->  27a  :     0.122995 (c= -0.35070582)
     3a ->  28a  :     0.221945 (c=  0.47111017)
     4a ->  27a  :     0.113812 (c= -0.33736090)
     4a ->  28a  :     0.528531 (c= -0.72700154)

STATE 11:  E=  10.126845 au    275.565 eV  2222585.5 cm**-1
     3a ->  27a  :     0.113102 (c=  0.33630700)
     3a ->  28a  :     0.528870 (c= -0.72723468)
     4a ->  27a  :     0.121607 (c= -0.34872132)
     4a ->  28a  :     0.222275 (c= -0.47146058)

STATE 12:  E=  10.130721 au    275.671 eV  2223436.2 cm**-1
     5a ->  28a  :     0.983097 (c=  0.99151240)
     7a ->  28a  :     0.011547 (c=  0.10745734)

STATE 13:  E=  10.157463 au    276.399 eV  2229305.3 cm**-1
     1a ->  28a  :     0.999003 (c= -0.99950113)

STATE 14:  E=  10.163105 au    276.552 eV  2230543.8 cm**-1
     2a ->  29a  :     0.990889 (c=  0.99543417)

STATE 15:  E=  10.164648 au    276.594 eV  2230882.4 cm**-1
     2a ->  28a  :     0.999240 (c=  0.99961993)

STATE 16:  E=  10.210573 au    277.844 eV  2240961.8 cm**-1
     3a ->  29a  :     0.242466 (c= -0.49240876)
     4a ->  29a  :     0.744359 (c=  0.86276258)

STATE 17:  E=  10.210610 au    277.845 eV  2240969.9 cm**-1
     3a ->  29a  :     0.747028 (c=  0.86430757)
     4a ->  29a  :     0.244181 (c=  0.49414655)

STATE 18:  E=  10.213892 au    277.934 eV  2241690.2 cm**-1
     1a ->  29a  :     0.992492 (c= -0.99623879)

STATE 19:  E=  10.216732 au    278.011 eV  2242313.6 cm**-1
     6a ->  29a  :     0.014823 (c= -0.12175040)
     7a ->  29a  :     0.971263 (c= -0.98552677)

STATE 20:  E=  10.216835 au    278.014 eV  2242336.1 cm**-1
     6a ->  29a  :     0.973420 (c=  0.98662056)
     7a ->  29a  :     0.013952 (c= -0.11812018)


-----------------------------
TD-DFT/TDA-EXCITATION SPECTRA
-----------------------------

Center of mass = ( -2.3053,  1.2707, -0.0213)
Calculating the Dipole integrals                  ... done
Transforming integrals                            ... done
Calculating the Linear Momentum integrals         ... done
Transforming integrals                            ... done
Calculating angular momentum integrals            ... done
Transforming integrals                            ... done

-----------------------------------------------------------------------------
         ABSORPTION SPECTRUM VIA TRANSITION ELECTRIC DIPOLE MOMENTS
-----------------------------------------------------------------------------
State   Energy    Wavelength  fosc         T2        TX        TY        TZ  
        (cm-1)      (nm)                 (au**2)    (au)      (au)      (au) 
-----------------------------------------------------------------------------
   1 2215106.1      4.5   0.031076859   0.00462   0.00017  -0.00032   0.06796
   2 2216352.9      4.5   0.002705024   0.00040  -0.00005   0.00009  -0.02004
   3 2216373.8      4.5   0.050539488   0.00751  -0.00022   0.00040  -0.08664
   4 2217178.1      4.5   0.012077611   0.00179  -0.00011   0.00020  -0.04235
   5 2217205.4      4.5   0.036298185   0.00539  -0.00019   0.00034  -0.07341
   6 2219721.0      4.5   0.009393361   0.00139  -0.00009   0.00017  -0.03732
   7 2219918.8      4.5   0.006161286   0.00091  -0.00008   0.00014  -0.03023
   8 2219941.6      4.5   0.026729594   0.00396   0.00016  -0.00029   0.06296
   9 2220338.3      4.5   0.029949095   0.00444  -0.00017   0.00031  -0.06664
  10 2222577.1      4.5   0.000154317   0.00002  -0.00001   0.00002  -0.00478
  11 2222585.5      4.5   0.016866177   0.00250  -0.00013   0.00023  -0.04998
  12 2223436.2      4.5   0.000000010   0.00000   0.00000  -0.00000  -0.00004
  13 2229305.3      4.5   0.000000004   0.00000  -0.00000  -0.00000  -0.00002
  14 2230543.8      4.5   0.045818554   0.00676  -0.06980  -0.04348  -0.00003
  15 2230882.4      4.5   0.000000006   0.00000   0.00002   0.00001   0.00002
  16 2240961.8      4.5   0.002592968   0.00038  -0.01793  -0.00772   0.00001
  17 2240969.9      4.5   0.002496187   0.00037  -0.00743   0.01765   0.00010
  18 2241690.2      4.5   0.000349755   0.00005   0.00613   0.00371   0.00000
  19 2242313.6      4.5   0.000734881   0.00011   0.00926  -0.00471  -0.00005
  20 2242336.1      4.5   0.000950515   0.00014  -0.00226   0.01159   0.00006

-----------------------------------------------------------------------------
         ABSORPTION SPECTRUM VIA TRANSITION VELOCITY DIPOLE MOMENTS
-----------------------------------------------------------------------------
State   Energy    Wavelength   fosc        P2         PX        PY        PZ  
        (cm-1)      (nm)                 (au**2)     (au)      (au)      (au) 
-----------------------------------------------------------------------------
   1 2215106.1      4.5   0.029891165   0.45253  -0.00170   0.00315  -0.67269
   2 2216352.9      4.5   0.002602918   0.03943   0.00050  -0.00093   0.19856
   3 2216373.8      4.5   0.048632536   0.73668   0.00217  -0.00401   0.85829
   4 2217178.1      4.5   0.011617310   0.17604   0.00106  -0.00196   0.41957
   5 2217205.4      4.5   0.034914836   0.52908   0.00183  -0.00340   0.72737
   6 2219721.0      4.5   0.009178477   0.13924   0.00095  -0.00174   0.37315
   7 2219918.8      4.5   0.005921988   0.08985   0.00076  -0.00140   0.29974
   8 2219941.6      4.5   0.025691197   0.38979  -0.00158   0.00292  -0.62432
   9 2220338.3      4.5   0.028783486   0.43679   0.00167  -0.00308   0.66089
  10 2222577.1      4.5   0.000148283   0.00225   0.00012  -0.00022   0.04746
  11 2222585.5      4.5   0.016206338   0.24618   0.00126  -0.00232   0.49616
  12 2223436.2      4.5   0.000000009   0.00000  -0.00001   0.00000   0.00038
  13 2229305.3      4.5   0.000000004   0.00000   0.00000   0.00000   0.00024
  14 2230543.8      4.5   0.043241258   0.65920   0.68913   0.42931   0.00027
  15 2230882.4      4.5   0.000000005   0.00000  -0.00020  -0.00013  -0.00016
  16 2240961.8      4.5   0.002471149   0.03785   0.17883   0.07660  -0.00009
  17 2240969.9      4.5   0.002434596   0.03729   0.07523  -0.17784  -0.00101
  18 2241690.2      4.5   0.000276245   0.00423  -0.05570  -0.03362  -0.00002
  19 2242313.6      4.5   0.000669296   0.01026  -0.09035   0.04577   0.00044
  20 2242336.1      4.5   0.000864621   0.01325   0.02191  -0.11301  -0.00058

-------------------------------------------------------------------
                             CD SPECTRUM
-------------------------------------------------------------------
State  Energy     Wavelength     R         MX        MY        MZ   
       (cm-1)       (nm)     (1e40*cgs)   (au)      (au)      (au)  
-------------------------------------------------------------------
   1 2215106.1      4.5     -0.00000   1.24260   0.77327   0.00048
   2 2216352.9      4.5      0.00002   0.51721  -0.85638  -0.00531
   3 2216373.8      4.5     -0.00004  -0.16113   0.16702   0.00119
   4 2217178.1      4.5      0.00003  -0.91297   0.41751   0.00426
   5 2217205.4      4.5     -0.00001  -0.56752  -0.91588  -0.00285
   6 2219721.0      4.5     -0.00002   0.66311   0.41259   0.00024
   7 2219918.8      4.5      0.00001  -0.76172   0.36650   0.00365
   8 2219941.6      4.5     -0.00001   0.62182   0.79074   0.00212
   9 2220338.3      4.5      0.00001   0.31330   0.19426   0.00012
  10 2222577.1      4.5      0.00004   0.28513  -0.46756  -0.00291
  11 2222585.5      4.5     -0.00005  -0.07180   0.01740   0.00026
  12 2223436.2      4.5     -0.00001  -0.01076   0.01577   0.00009
  13 2229305.3      4.5      0.00000   0.00437  -0.00678  -0.00005
  14 2230543.8      4.5     -0.00001  -0.00385   0.00714  -1.52866
  15 2230882.4      4.5     -0.00000  -0.00025  -0.00014   0.00045
  16 2240961.8      4.5      0.00002  -0.00048   0.00088  -0.19072
  17 2240969.9      4.5     -0.00002   0.00007  -0.00014   0.02874
  18 2241690.2      4.5      0.00000   0.00012  -0.00022   0.04667
  19 2242313.6      4.5      0.00001  -0.00049   0.00089  -0.19144
  20 2242336.1      4.5     -0.00001  -0.00039   0.00071  -0.15402

Total run time:      137.123 sec

           *** ORCA-CIS/TD-DFT FINISHED WITHOUT ERROR ***

-----------------------
CIS/TD-DFT TOTAL ENERGY
-----------------------

    E(SCF)  =   -324.285400890 Eh
    DE(CIS) =     10.092766224 Eh (Root  1)
    ----------------------------- ---------
    E(tot)  =   -314.192634666 Eh


-------------------------   --------------------
FINAL SINGLE POINT ENERGY      -314.192634666313
-------------------------   --------------------


                            ***************************************
                            *     ORCA property calculations      *
                            ***************************************

                                    ---------------------
                                    Active property flags
                                    ---------------------
   (+) Dipole Moment


------------------------------------------------------------------------------
                       ORCA ELECTRIC PROPERTIES CALCULATION
------------------------------------------------------------------------------

Dipole Moment Calculation                       ... on
Quadrupole Moment Calculation                   ... off
Polarizability Calculation                      ... off
GBWName                                         ... /Users/lailaal-madhagi/Desktop/Testing_XAS_Analysis_code/Benzonitrile//Results_dir_Benzonitrile_geom_element_C_2019-11-05_19-31-48//GTE1_Benzonitrile_geom_2019-11-05_19-32-02//TDDFT_C-edge.gbw
Electron density file                           ... /Users/lailaal-madhagi/Desktop/Testing_XAS_Analysis_code/Benzonitrile//Results_dir_Benzonitrile_geom_element_C_2019-11-05_19-31-48//GTE1_Benzonitrile_geom_2019-11-05_19-32-02//TDDFT_C-edge.scfp.tmp
The origin for moment calculation is the CENTER OF MASS  = (-2.305267,  1.270671 -0.021345)

-------------
DIPOLE MOMENT
-------------
                                X             Y             Z
Electronic contribution:      2.37005      -3.80816      -0.02376
Nuclear contribution   :     -3.31765       5.33000       0.03326
                        -----------------------------------------
Total Dipole Moment    :     -0.94760       1.52183       0.00950
                        -----------------------------------------
Magnitude (a.u.)       :      1.79276
Magnitude (Debye)      :      4.55685



--------------------
Rotational spectrum 
--------------------
 
Rotational constants in cm-1:     0.188182     0.051330     0.040329 
Rotational constants in MHz :  5641.540052  1538.835250  1209.045535 

 Dipole components along the rotational axes: 
x,y,z [a.u.] :     1.792765    -0.000010    -0.000006 
x,y,z [Debye]:     4.556846    -0.000025    -0.000014 

 

Timings for individual modules:

Sum of individual times         ...      166.426 sec (=   2.774 min)
GTO integral calculation        ...        0.315 sec (=   0.005 min)   0.2 %
SCF iterations                  ...       27.783 sec (=   0.463 min)  16.7 %
CIS module                      ...      138.329 sec (=   2.305 min)  83.1 %
                             ****ORCA TERMINATED NORMALLY****
TOTAL RUN TIME: 0 days 0 hours 2 minutes 46 seconds 571 msec
