
                                 *****************
                                 * O   R   C   A *
                                 *****************

           --- An Ab Initio, DFT and Semiempirical electronic structure package ---

                  #######################################################
                  #                        -***-                        #
                  #          Department of theory and spectroscopy      #
                  #               Directorship: Frank Neese             #
                  #        Max Planck Institute fuer Kohlenforschung    #
                  #                Kaiser Wilhelm Platz 1               #
                  #                 D-45470 Muelheim/Ruhr               #
                  #                      Germany                        #
                  #                                                     #
                  #                  All rights reserved                #
                  #                        -***-                        #
                  #######################################################


                         Program Version 4.1.0  - RELEASE  -


 With contributions from (in alphabetic order):
   Daniel Aravena         : Magnetic Properties
   Michael Atanasov       : Ab Initio Ligand Field Theory
   Alexander A. Auer      : GIAO ZORA
   Ute Becker             : Parallelization
   Giovanni Bistoni       : ED, Open-shell LED
   Martin Brehm           : Molecular dynamics
   Dmytro Bykov           : SCF Hessian
   Vijay G. Chilkuri      : MRCI spin determinant printing
   Dipayan Datta          : RHF DLPNO-CCSD density
   Achintya Kumar Dutta   : EOM-CC, STEOM-CC
   Dmitry Ganyushin       : Spin-Orbit,Spin-Spin,Magnetic field MRCI
   Miquel Garcia          : C-PCM Hessian
   Yang Guo               : DLPNO-NEVPT2, CIM, IAO-localization
   Andreas Hansen         : Spin unrestricted coupled pair/coupled cluster methods
   Benjamin Helmich-Paris : CASSCF linear response (MC-RPA)
   Lee Huntington         : MR-EOM, pCC
   Robert Izsak           : Overlap fitted RIJCOSX, COSX-SCS-MP3, EOM
   Christian Kollmar      : KDIIS, OOCD, Brueckner-CCSD(T), CCSD density
   Simone Kossmann        : Meta GGA functionals, TD-DFT gradient, OOMP2, MP2 Hessian
   Martin Krupicka        : AUTO-CI
   Lucas Lang             : DCDCAS
   Dagmar Lenk            : GEPOL surface, SMD
   Dimitrios Liakos       : Extrapolation schemes; parallel MDCI
   Dimitrios Manganas     : ROCIS; embedding schemes
   Dimitrios Pantazis     : SARC Basis sets
   Taras Petrenko         : DFT Hessian,TD-DFT gradient, ASA, ECA, R-Raman, ABS, FL, XAS/XES, NRVS
   Peter Pinski           : DLPNO-MP2, DLPNO-MP2 Gradient
   Christoph Reimann      : Effective Core Potentials
   Marius Retegan         : Local ZFS, SOC
   Christoph Riplinger    : Optimizer, TS searches, QM/MM, DLPNO-CCSD(T), (RO)-DLPNO pert. Triples
   Tobias Risthaus        : Range-separated hybrids, TD-DFT gradient, RPA, STAB
   Michael Roemelt        : Restricted open shell CIS
   Masaaki Saitow         : Open-shell DLPNO
   Barbara Sandhoefer     : DKH picture change effects
   Avijit Sen             : IP-ROCIS
   Kantharuban Sivalingam : CASSCF convergence, NEVPT2, FIC-MRCI
   Bernardo de Souza      : ESD, SOC TD-DFT
   Georgi Stoychev        : AutoAux, RI-MP2 NMR
   Willem Van den Heuvel  : Paramagnetic NMR
   Boris Wezisla          : Elementary symmetry handling
   Frank Wennmohs         : Technical directorship


 We gratefully acknowledge several colleagues who have allowed us to
 interface, adapt or use parts of their codes:
   Stefan Grimme, W. Hujo, H. Kruse,             : VdW corrections, initial TS optimization,
                  C. Bannwarth                     DFT functionals, gCP, sTDA/sTD-DF
   Ed Valeev                                     : LibInt (2-el integral package), F12 methods
   Garnet Chan, S. Sharma, J. Yang, R. Olivares  : DMRG
   Ulf Ekstrom                                   : XCFun DFT Library
   Mihaly Kallay                                 : mrcc  (arbitrary order and MRCC methods)
   Andreas Klamt, Michael Diedenhofen            : otool_cosmo (COSMO solvation model)
   Jiri Pittner, Ondrej Demel                    : Mk-CCSD
   Frank Weinhold                                : gennbo (NPA and NBO analysis)
   Christopher J. Cramer and Donald G. Truhlar   : smd solvation model
   Lars Goerigk                                  : TD-DFT with DH, B97 family of functionals
   V. Asgeirsson, H. Jonsson                     : NEB implementation
   FAccTs GmbH                                   : IRC, NEB, NEB-TS, Multilevel


 Your calculation uses the libint2 library for the computation of 2-el integrals
 For citations please refer to: http://libint.valeyev.net

 This ORCA versions uses:
   CBLAS   interface :  Fast vector & matrix operations
   LAPACKE interface :  Fast linear algebra routines
   SCALAPACK package :  Parallel linear algebra routines




***************************************
The coordinates will be read from file: /Users/lailaal-madhagi/Desktop/Testing_XAS_Analysis_code/Phenylacetylene//Results_dir_Phenylacetylene_geom_element_C_2019-11-16_20-30-06//GTE1_Phenylacetylene_geom_2019-11-16_20-30-22//opt.xyz
***************************************


----- Orbital basis set information -----
Your calculation utilizes the basis: 6-31G*
   H-He, Li-Ne : W. J. Hehre, R. Ditchfield and J.A. Pople, J. Chem. Phys. 56, 2257 (1972).
                 Note: He and Ne are unpublished basis sets taken from the Gaussian program.
                 Note: Li and B from J. D. Dill and J. A. Pople, J. Chem. Phys. 62, 2921 (1975).
   Na - Ar     : M. M. Francl, W. J. Pietro, W. J. Hehre, J. S. Binkley, M. S. Gordon, 
                 D. J. DeFrees and J. A. Pople, J. Chem. Phys. 77, 3654 (1982).
   K - Zn      : V. A. Rassolov, J. A. Pople, M. A. Ratner, and T. L. Windus, J. Chem. Phys. 109, 1223 (1998).

================================================================================
                                        WARNINGS
                       Please study these warnings very carefully!
================================================================================


INFO   : the flag for use of LIBINT has been found!

================================================================================
                                       INPUT FILE
================================================================================
NAME = /Users/lailaal-madhagi/Desktop/Testing_XAS_Analysis_code/Phenylacetylene//Results_dir_Phenylacetylene_geom_element_C_2019-11-16_20-30-06//GTE1_Phenylacetylene_geom_2019-11-16_20-30-22//freq.inp
|  1> ! B3LYP 6-31G* TIGHTSCF Grid3 FinalGrid5 Freq 
|  2> !NormalPrint 
|  3> %output 
|  4> Print[P_Basis] 2 
|  5> Print[P_MOS] 1 
|  6> end 
|  7> *xyzfile 0 1 /Users/lailaal-madhagi/Desktop/Testing_XAS_Analysis_code/Phenylacetylene//Results_dir_Phenylacetylene_geom_element_C_2019-11-16_20-30-06//GTE1_Phenylacetylene_geom_2019-11-16_20-30-22//opt.xyz                           ****END OF INPUT****
================================================================================

                       ****************************
                       * Single Point Calculation *
                       ****************************

---------------------------------
CARTESIAN COORDINATES (ANGSTROEM)
---------------------------------
  C     -0.377982    0.746217   -0.248403
  C     -0.327473    2.153282   -0.210857
  C      0.735287   -0.007064    0.118111
  C      1.911915    0.627161    0.526274
  C      1.971013    2.022908    0.566707
  C      0.862383    2.783843    0.201823
  C     -2.433331    3.587693   -0.904560
  H     -1.294522    0.258231   -0.566292
  H      0.684484   -1.092275    0.085090
  H      2.883884    2.520736    0.883365
  H      0.903346    3.868555    0.231302
  C     -1.467950    2.930439   -0.586546
  H     -3.283543    4.166969   -1.184618
  H      2.778590    0.036515    0.811403

----------------------------
CARTESIAN COORDINATES (A.U.)
----------------------------
  NO LB      ZA    FRAG     MASS         X           Y           Z
   0 C     6.0000    0    12.011   -0.714283    1.410146   -0.469414
   1 C     6.0000    0    12.011   -0.618835    4.069113   -0.398462
   2 C     6.0000    0    12.011    1.389490   -0.013349    0.223197
   3 C     6.0000    0    12.011    3.612996    1.185162    0.994514
   4 C     6.0000    0    12.011    3.724674    3.822742    1.070921
   5 C     6.0000    0    12.011    1.629667    5.260702    0.381391
   6 C     6.0000    0    12.011   -4.598329    6.779758   -1.709370
   7 H     1.0000    0     1.008   -2.446292    0.487985   -1.070137
   8 H     1.0000    0     1.008    1.293487   -2.064100    0.160797
   9 H     1.0000    0     1.008    5.449752    4.763501    1.669318
  10 H     1.0000    0     1.008    1.707076    7.310509    0.437098
  11 C     6.0000    0    12.011   -2.774024    5.537727   -1.108411
  12 H     1.0000    0     1.008   -6.204997    7.874430   -2.238604
  13 H     1.0000    0     1.008    5.250774    0.069004    1.533329

--------------------------------
INTERNAL COORDINATES (ANGSTROEM)
--------------------------------
 C      0   0   0     0.000000000000     0.00000000     0.00000000
 C      1   0   0     1.408471614177     0.00000000     0.00000000
 C      1   2   0     1.393245277134   120.29548148     0.00000000
 C      3   1   2     1.397602807919   120.27729736     0.00000000
 C      4   3   1     1.397583002627   119.81806337     0.00000000
 C      5   4   3     1.393277858513   120.27873597     0.00000000
 C      2   1   3     2.640718844573   120.46732704   179.98704170
 H      1   2   3     1.085923378483   119.14337807   180.00343606
 H      3   1   2     1.086900671687   119.63583020   180.00266028
 H      5   4   3     1.086940778896   120.08928669   180.00545037
 H      6   5   4     1.085884662593   120.55939434   180.01507020
 C      7   2   1     1.210403498548     0.01263795   180.47182496
 H      7   2   1     1.066233553872   179.99300416   174.87268447
 H      4   3   1     1.086869617304   120.08825387   180.00806296

---------------------------
INTERNAL COORDINATES (A.U.)
---------------------------
 C      0   0   0     0.000000000000     0.00000000     0.00000000
 C      1   0   0     2.661625618196     0.00000000     0.00000000
 C      1   2   0     2.632852011162   120.29548148     0.00000000
 C      3   1   2     2.641086550966   120.27729736     0.00000000
 C      4   3   1     2.641049124388   119.81806337     0.00000000
 C      5   4   3     2.632913581045   120.27873597     0.00000000
 C      2   1   3     4.990235412928   120.46732704   179.98704170
 H      1   2   3     2.052097787755   119.14337807   180.00343606
 H      3   1   2     2.053944604263   119.63583020   180.00266028
 H      5   4   3     2.054020395905   120.08928669   180.00545037
 H      6   5   4     2.052024625326   120.55939434   180.01507020
 C      7   2   1     2.287331123796     0.01263795   180.47182496
 H      7   2   1     2.014889411616   179.99300416   174.87268447
 H      4   3   1     2.053885919985   120.08825387   180.00806296

---------------------
BASIS SET INFORMATION
---------------------
There are 2 groups of distinct atoms

 Group   1 Type C   : 10s4p1d contracted to 3s2p1d pattern {631/31/1}
 Group   2 Type H   : 4s contracted to 2s pattern {31}

Atom   0C    basis set group =>   1
Atom   1C    basis set group =>   1
Atom   2C    basis set group =>   1
Atom   3C    basis set group =>   1
Atom   4C    basis set group =>   1
Atom   5C    basis set group =>   1
Atom   6C    basis set group =>   1
Atom   7H    basis set group =>   2
Atom   8H    basis set group =>   2
Atom   9H    basis set group =>   2
Atom  10H    basis set group =>   2
Atom  11C    basis set group =>   1
Atom  12H    basis set group =>   2
Atom  13H    basis set group =>   2

-------------------------
BASIS SET IN INPUT FORMAT
-------------------------

 # Basis set for element : H 
 NewGTO H 
 S 3 
   1      18.7311370000      0.0334945995
   2       2.8253937000      0.2347269467
   3       0.6401217000      0.8137573184
 S 1 
   1       0.1612778000      1.0000000000
  end;

 # Basis set for element : C 
 NewGTO C 
 S 6 
   1    3047.5249000000      0.0018347002
   2     457.3695100000      0.0140373012
   3     103.9486900000      0.0688426061
   4      29.2101550000      0.2321844206
   5       9.2866630000      0.4679413416
   6       3.1639270000      0.3623120322
 S 3 
   1       7.8682724000     -0.1193324086
   2       1.8812885000     -0.1608542116
   3       0.5442493000      1.1434564826
 P 3 
   1       7.8682724000      0.0689990956
   2       1.8812885000      0.3164239798
   3       0.5442493000      0.7443082524
 S 1 
   1       0.1687144000      1.0000000000
 P 1 
   1       0.1687144000      1.0000000000
 D 1 
   1       0.8000000000      1.0000000000
  end;

------------------------------------------------------------------------------
                           ORCA GTO INTEGRAL CALCULATION
------------------------------------------------------------------------------

                         BASIS SET STATISTICS AND STARTUP INFO

 # of primitive gaussian shells          ...  144
 # of primitive gaussian functions       ...  240
 # of contracted shells                  ...   60
 # of contracted basis functions         ...  124
 Highest angular momentum                ...    2
 Maximum contraction depth               ...    6
 Integral package used                   ... LIBINT
 Integral threshhold            Thresh   ...  2.500e-11
 Primitive cut-off              TCut     ...  2.500e-12


------------------------------ INTEGRAL EVALUATION ----------------------------


 * One electron integrals 
 Pre-screening matrix                    ... done
 Shell pair data                         ... done (   0.002 sec)

-------------------------------------------------------------------------------
                                 ORCA SCF
-------------------------------------------------------------------------------

------------
SCF SETTINGS
------------
Hamiltonian:
 Density Functional     Method          .... DFT(GTOs)
 Exchange Functional    Exchange        .... B88
   X-Alpha parameter    XAlpha          ....  0.666667
   Becke's b parameter  XBeta           ....  0.004200
 Correlation Functional Correlation     .... LYP
 LDA part of GGA corr.  LDAOpt          .... VWN-5
 Gradients option       PostSCFGGA      .... off
 Hybrid DFT is turned on
   Fraction HF Exchange ScalHFX         ....  0.200000
   Scaling of DF-GGA-X  ScalDFX         ....  0.720000
   Scaling of DF-GGA-C  ScalDFC         ....  0.810000
   Scaling of DF-LDA-C  ScalLDAC        ....  1.000000
   Perturbative correction              ....  0.000000
   Density functional embedding theory  .... OFF
   NL short-range parameter             ....  4.800000


General Settings:
 Integral files         IntName         .... /Users/lailaal-madhagi/Desktop/Testing_XAS_Analysis_code/Phenylacetylene//Results_dir_Phenylacetylene_geom_element_C_2019-11-16_20-30-06//GTE1_Phenylacetylene_geom_2019-11-16_20-30-22//freq
 Hartree-Fock type      HFTyp           .... RHF
 Total Charge           Charge          ....    0
 Multiplicity           Mult            ....    1
 Number of Electrons    NEL             ....   54
 Basis Dimension        Dim             ....  124
 Nuclear Repulsion      ENuc            ....    298.2604683505 Eh

Convergence Acceleration:
 DIIS                   CNVDIIS         .... on
   Start iteration      DIISMaxIt       ....    12
   Startup error        DIISStart       ....  0.200000
   # of expansion vecs  DIISMaxEq       ....     5
   Bias factor          DIISBfac        ....   1.050
   Max. coefficient     DIISMaxC        ....  10.000
 Newton-Raphson         CNVNR           .... off
 SOSCF                  CNVSOSCF        .... on
   Start iteration      SOSCFMaxIt      ....   150
   Startup grad/error   SOSCFStart      ....  0.003300
 Level Shifting         CNVShift        .... on
   Level shift para.    LevelShift      ....    0.2500
   Turn off err/grad.   ShiftErr        ....    0.0010
 Zerner damping         CNVZerner       .... off
 Static damping         CNVDamp         .... on
   Fraction old density DampFac         ....    0.7000
   Max. Damping (<1)    DampMax         ....    0.9800
   Min. Damping (>=0)   DampMin         ....    0.0000
   Turn off err/grad.   DampErr         ....    0.1000
 Fernandez-Rico         CNVRico         .... off

SCF Procedure:
 Maximum # iterations   MaxIter         ....   125
 SCF integral mode      SCFMode         .... Direct
   Integral package                     .... LIBINT
 Reset frequency        DirectResetFreq ....    20
 Integral Threshold     Thresh          ....  2.500e-11 Eh
 Primitive CutOff       TCut            ....  2.500e-12 Eh

Convergence Tolerance:
 Convergence Check Mode ConvCheckMode   .... Total+1el-Energy
 Convergence forced     ConvForced      .... 0
 Energy Change          TolE            ....  1.000e-08 Eh
 1-El. energy change                    ....  1.000e-05 Eh
 Orbital Gradient       TolG            ....  1.000e-05
 Orbital Rotation angle TolX            ....  1.000e-05
 DIIS Error             TolErr          ....  5.000e-07


Diagonalization of the overlap matrix:
Smallest eigenvalue                        ... 3.212e-04
Time for diagonalization                   ...    0.002 sec
Threshold for overlap eigenvalues          ... 1.000e-08
Number of eigenvalues below threshold      ... 0
Time for construction of square roots      ...    0.001 sec
Total time needed                          ...    0.004 sec

-------------------
DFT GRID GENERATION
-------------------

General Integration Accuracy     IntAcc      ...  4.340
Radial Grid Type                 RadialGrid  ... Gauss-Chebyshev
Angular Grid (max. acc.)         AngularGrid ... Lebedev-194
Angular grid pruning method      GridPruning ... 3 (G Style)
Weight generation scheme         WeightScheme... Becke
Basis function cutoff            BFCut       ...    1.0000e-11
Integration weight cutoff        WCut        ...    1.0000e-14
Grids for H and He will be reduced by one unit

# of grid points (after initial pruning)     ...  35372 (   0.0 sec)
# of grid points (after weights+screening)   ...  32908 (   0.0 sec)
nearest neighbour list constructed           ...    0.0 sec
Grid point re-assignment to atoms done       ...    0.0 sec
Grid point division into batches done        ...    0.0 sec
Reduced shell lists constructed in    0.2 sec

Total number of grid points                  ...    32908
Total number of batches                      ...      521
Average number of points per batch           ...       63
Average number of grid points per atom       ...     2351
Average number of shells per batch           ...    41.19 (68.64%)
Average number of basis functions per batch  ...    87.19 (70.31%)
Average number of large shells per batch     ...    31.98 (77.64%)
Average number of large basis fcns per batch ...    68.09 (78.09%)
Maximum spatial batch extension              ...  19.79, 20.30, 21.20 au
Average spatial batch extension              ...   3.33,  3.20,  3.85 au

Time for grid setup =    0.274 sec

------------------------------
INITIAL GUESS: MODEL POTENTIAL
------------------------------
Loading Hartree-Fock densities                     ... done
Calculating cut-offs                               ... done
Setting up the integral package                    ... done
Initializing the effective Hamiltonian             ... done
Starting the Coulomb interaction                   ... done (   0.1 sec)
Reading the grid                                   ... done
Mapping shells                                     ... done
Starting the XC term evaluation                    ... done (   0.3 sec)
  promolecular density results
     # of electrons  =     53.997577385
     EX              =    -42.836759091
     EC              =     -1.783135387
     EX+EC           =    -44.619894478
Transforming the Hamiltonian                       ... done (   0.0 sec)
Diagonalizing the Hamiltonian                      ... done (   0.0 sec)
Back transforming the eigenvectors                 ... done (   0.0 sec)
Now organizing SCF variables                       ... done
                      ------------------
                      INITIAL GUESS DONE (   0.8 sec)
                      ------------------
--------------
SCF ITERATIONS
--------------
               ***  Starting incremental Fock matrix formation  ***

                         ----------------------------
                         !        ITERATION     0   !
                         ----------------------------
   Total Energy        :    -308.017253667621 Eh
   Energy Change       :    -308.017253667621 Eh
   MAX-DP              :       0.061403342131
   RMS-DP              :       0.002875684068
   Actual Damping      :       0.7000
   Actual Level Shift  :       0.2500 Eh
   Int. Num. El.       :    54.00016628 (UP=   27.00008314 DN=   27.00008314)
   Exchange            :   -35.07703424
   Correlation         :    -2.13793463


                         ----------------------------
                         !        ITERATION     1   !
                         ----------------------------
   Total Energy        :    -308.090971213720 Eh
   Energy Change       :      -0.073717546099 Eh
   MAX-DP              :       0.039781414836
   RMS-DP              :       0.002023468664
   Actual Damping      :       0.7000
   Actual Level Shift  :       0.2500 Eh
   Int. Num. El.       :    54.00021068 (UP=   27.00010534 DN=   27.00010534)
   Exchange            :   -34.87305877
   Correlation         :    -2.12851623

                               ***Turning on DIIS***

                         ----------------------------
                         !        ITERATION     2   !
                         ----------------------------
   Total Energy        :    -308.125866574662 Eh
   Energy Change       :      -0.034895360942 Eh
   MAX-DP              :       0.073908914700
   RMS-DP              :       0.003596475885
   Actual Damping      :       0.0000
   Actual Level Shift  :       0.2500 Eh
   Int. Num. El.       :    54.00024761 (UP=   27.00012381 DN=   27.00012381)
   Exchange            :   -34.72525972
   Correlation         :    -2.12148556
   DIIS-Error          :       0.034876329265


                         ----------------------------
                         !        ITERATION     3   !
                         ----------------------------
   Total Energy        :    -308.175966487603 Eh
   Energy Change       :      -0.050099912941 Eh
   MAX-DP              :       0.022558939480
   RMS-DP              :       0.001337160848
   Actual Damping      :       0.0000
   Actual Level Shift  :       0.2500 Eh
   Int. Num. El.       :    54.00031516 (UP=   27.00015758 DN=   27.00015758)
   Exchange            :   -34.47284632
   Correlation         :    -2.10924178
   DIIS-Error          :       0.038166761735
   DIIS coefficients:
      0.50417   0.49583


                         ----------------------------
                         !        ITERATION     4   !
                         ----------------------------
   Total Energy        :    -308.187516785548 Eh
   Energy Change       :      -0.011550297945 Eh
   MAX-DP              :       0.007026671748
   RMS-DP              :       0.000338855022
   Actual Damping      :       0.0000
   Actual Level Shift  :       0.2500 Eh
   Int. Num. El.       :    54.00029031 (UP=   27.00014515 DN=   27.00014515)
   Exchange            :   -34.56477361
   Correlation         :    -2.11408107
   DIIS-Error          :       0.009699442965
   DIIS coefficients:
      0.15863   0.01057   0.83080

                      *** Initiating the SOSCF procedure ***
                           *** Shutting down DIIS ***
                      *** Re-Reading the Fockian *** 
                      *** Removing any level shift *** 

                         ----------------------------
                         !        ITERATION     5   !
                         ----------------------------
   Total Energy        :    -308.188029969096 Eh
   Energy Change       :      -0.000513183547 Eh
   MAX-DP              :       0.002591337027
   RMS-DP              :       0.000108712016
   Orbital gradient    :       0.000834957869
   Orbital Rotation    :       0.000834957869
   Actual Damping      :       0.0000
   Int. Num. El.       :    54.00028360 (UP=   27.00014180 DN=   27.00014180)
   Exchange            :   -34.58541933
   Correlation         :    -2.11508732

               *** Restarting incremental Fock matrix formation ***

                         ----------------------------
                         !        ITERATION     6   !
                         ----------------------------
   Total Energy        :    -308.188052179199 Eh
   Energy Change       :      -0.000022210104 Eh
   MAX-DP              :       0.001651626681
   RMS-DP              :       0.000059917711
   Orbital gradient    :       0.000398231259
   Orbital Rotation    :       0.001216253162
   Actual Damping      :       0.0000
   Int. Num. El.       :    54.00028218 (UP=   27.00014109 DN=   27.00014109)
   Exchange            :   -34.58960230
   Correlation         :    -2.11529379


                         ----------------------------
                         !        ITERATION     7   !
                         ----------------------------
   Total Energy        :    -308.188048579803 Eh
   Energy Change       :       0.000003599396 Eh
   MAX-DP              :       0.001051220069
   RMS-DP              :       0.000027484117
   Orbital gradient    :       0.000987830190
   Orbital Rotation    :       0.000944728106
   Actual Damping      :       0.0000
   Int. Num. El.       :    54.00028212 (UP=   27.00014106 DN=   27.00014106)
   Exchange            :   -34.59041786
   Correlation         :    -2.11533060


                         ----------------------------
                         !        ITERATION     8   !
                         ----------------------------
   Total Energy        :    -308.188054165725 Eh
   Energy Change       :      -0.000005585922 Eh
   MAX-DP              :       0.000335950924
   RMS-DP              :       0.000014124091
   Orbital gradient    :       0.000081836717
   Orbital Rotation    :       0.000300609259
   Actual Damping      :       0.0000
   Int. Num. El.       :    54.00028175 (UP=   27.00014087 DN=   27.00014087)
   Exchange            :   -34.59041183
   Correlation         :    -2.11533450


                         ----------------------------
                         !        ITERATION     9   !
                         ----------------------------
   Total Energy        :    -308.188053951860 Eh
   Energy Change       :       0.000000213866 Eh
   MAX-DP              :       0.000215762473
   RMS-DP              :       0.000008307639
   Orbital gradient    :       0.000165944008
   Orbital Rotation    :       0.000246040550
   Actual Damping      :       0.0000
   Int. Num. El.       :    54.00028202 (UP=   27.00014101 DN=   27.00014101)
   Exchange            :   -34.58986510
   Correlation         :    -2.11530598


                         ----------------------------
                         !        ITERATION    10   !
                         ----------------------------
   Total Energy        :    -308.188054323619 Eh
   Energy Change       :      -0.000000371760 Eh
   MAX-DP              :       0.000077381856
   RMS-DP              :       0.000003669635
   Orbital gradient    :       0.000021417497
   Orbital Rotation    :       0.000049544210
   Actual Damping      :       0.0000
   Int. Num. El.       :    54.00028192 (UP=   27.00014096 DN=   27.00014096)
   Exchange            :   -34.59004324
   Correlation         :    -2.11531533


                         ----------------------------
                         !        ITERATION    11   !
                         ----------------------------
   Total Energy        :    -308.188054321197 Eh
   Energy Change       :       0.000000002422 Eh
   MAX-DP              :       0.000040231058
   RMS-DP              :       0.000001955510
   Orbital gradient    :       0.000025825025
   Orbital Rotation    :       0.000019430021
   Actual Damping      :       0.0000
   Int. Num. El.       :    54.00028186 (UP=   27.00014093 DN=   27.00014093)
   Exchange            :   -34.59023711
   Correlation         :    -2.11532553

                  ***Gradient check signals convergence***
              ***Rediagonalizing the Fockian in SOSCF/NRSCF***

               *****************************************************
               *                     SUCCESS                       *
               *           SCF CONVERGED AFTER  12 CYCLES          *
               *****************************************************

Setting up the final grid:

General Integration Accuracy     IntAcc      ...  5.010
Radial Grid Type                 RadialGrid  ... Gauss-Chebyshev
Angular Grid (max. acc.)         AngularGrid ... Lebedev-434
Angular grid pruning method      GridPruning ... 3 (G Style)
Weight generation scheme         WeightScheme... Becke
Basis function cutoff            BFCut       ...    1.0000e-11
Integration weight cutoff        WCut        ...    1.0000e-14
Grids for H and He will be reduced by one unit

# of grid points (after initial pruning)     ... 125736 (   0.1 sec)
# of grid points (after weights+screening)   ... 116094 (   0.2 sec)
nearest neighbour list constructed           ...    0.0 sec
Grid point re-assignment to atoms done       ...    0.0 sec
Grid point division into batches done        ...    0.6 sec
Reduced shell lists constructed in    1.3 sec

Total number of grid points                  ...   116094
Total number of batches                      ...     1822
Average number of points per batch           ...       63
Average number of grid points per atom       ...     8292
Average number of shells per batch           ...    37.91 (63.18%)
Average number of basis functions per batch  ...    80.02 (64.53%)
Average number of large shells per batch     ...    29.08 (76.72%)
Average number of large basis fcns per batch ...    61.72 (77.13%)
Maximum spatial batch extension              ...  21.76, 21.74, 23.52 au
Average spatial batch extension              ...   2.24,  2.16,  2.43 au

Final grid set up in    1.5 sec
Final integration                            ... done (   1.4 sec)
Change in XC energy                          ...    -0.000059065
Integrated number of electrons               ...    54.000000440
Previous integrated no of electrons          ...    54.000281895

----------------
TOTAL SCF ENERGY
----------------

Total Energy       :         -308.18811340 Eh           -8386.22491 eV

Components:
Nuclear Repulsion  :          298.26046835 Eh            8116.07996 eV
Electronic Energy  :         -606.44858175 Eh          -16502.30487 eV
One Electron Energy:        -1004.96995332 Eh          -27346.62271 eV
Two Electron Energy:          398.52137157 Eh           10844.31783 eV

Virial components:
Potential Energy   :         -614.53199933 Eh          -16722.26585 eV
Kinetic Energy     :          306.34388593 Eh            8336.04093 eV
Virial Ratio       :            2.00602012


DFT components:
N(Alpha)           :       27.000000220099 electrons
N(Beta)            :       27.000000220099 electrons
N(Total)           :       54.000000440198 electrons
E(X)               :      -34.590185700371 Eh       
E(C)               :       -2.115325294858 Eh       
E(XC)              :      -36.705510995230 Eh       
DFET-embed. en.    :        0.000000000000 Eh       

---------------
SCF CONVERGENCE
---------------

  Last Energy change         ...   -1.4210e-08  Tolerance :   1.0000e-08
  Last MAX-Density change    ...    6.6376e-06  Tolerance :   1.0000e-07
  Last RMS-Density change    ...    2.4957e-07  Tolerance :   5.0000e-09
  Last Orbital Gradient      ...    2.0067e-06  Tolerance :   1.0000e-05
  Last Orbital Rotation      ...    5.4820e-06  Tolerance :   1.0000e-05

             **** THE GBW FILE WAS UPDATED (/Users/lailaal-madhagi/Desktop/Testing_XAS_Analysis_code/Phenylacetylene//Results_dir_Phenylacetylene_geom_element_C_2019-11-16_20-30-06//GTE1_Phenylacetylene_geom_2019-11-16_20-30-22//freq.gbw) ****
             **** DENSITY FILE WAS UPDATED (/Users/lailaal-madhagi/Desktop/Testing_XAS_Analysis_code/Phenylacetylene//Results_dir_Phenylacetylene_geom_element_C_2019-11-16_20-30-06//GTE1_Phenylacetylene_geom_2019-11-16_20-30-22//freq.scfp.tmp) ****
             **** ENERGY FILE WAS UPDATED (/Users/lailaal-madhagi/Desktop/Testing_XAS_Analysis_code/Phenylacetylene//Results_dir_Phenylacetylene_geom_element_C_2019-11-16_20-30-06//GTE1_Phenylacetylene_geom_2019-11-16_20-30-22//freq.en.tmp) ****
----------------
ORBITAL ENERGIES
----------------

  NO   OCC          E(Eh)            E(eV) 
   0   2.0000     -10.207681      -277.7651 
   1   2.0000     -10.187984      -277.2291 
   2   2.0000     -10.187962      -277.2285 
   3   2.0000     -10.186941      -277.2008 
   4   2.0000     -10.186053      -277.1766 
   5   2.0000     -10.185950      -277.1738 
   6   2.0000     -10.180215      -277.0177 
   7   2.0000     -10.173503      -276.8351 
   8   2.0000      -0.858141       -23.3512 
   9   2.0000      -0.776388       -21.1266 
  10   2.0000      -0.746442       -20.3117 
  11   2.0000      -0.718127       -19.5412 
  12   2.0000      -0.619876       -16.8677 
  13   2.0000      -0.605894       -16.4872 
  14   2.0000      -0.544415       -14.8143 
  15   2.0000      -0.509836       -13.8733 
  16   2.0000      -0.474287       -12.9060 
  17   2.0000      -0.452097       -12.3022 
  18   2.0000      -0.432126       -11.7587 
  19   2.0000      -0.422164       -11.4877 
  20   2.0000      -0.375133       -10.2079 
  21   2.0000      -0.357094        -9.7170 
  22   2.0000      -0.348405        -9.4806 
  23   2.0000      -0.302132        -8.2214 
  24   2.0000      -0.268022        -7.2933 
  25   2.0000      -0.252519        -6.8714 
  26   2.0000      -0.227442        -6.1890 
  27   0.0000      -0.025225        -0.6864 
  28   0.0000      -0.001161        -0.0316 
  29   0.0000       0.059461         1.6180 
  30   0.0000       0.093996         2.5578 
  31   0.0000       0.096800         2.6341 
  32   0.0000       0.129073         3.5122 
  33   0.0000       0.143417         3.9026 
  34   0.0000       0.156747         4.2653 
  35   0.0000       0.183670         4.9979 
  36   0.0000       0.185475         5.0470 
  37   0.0000       0.193166         5.2563 
  38   0.0000       0.252313         6.8658 
  39   0.0000       0.303785         8.2664 
  40   0.0000       0.308418         8.3925 
  41   0.0000       0.340220         9.2579 
  42   0.0000       0.347667         9.4605 
  43   0.0000       0.451605        12.2888 
  44   0.0000       0.466374        12.6907 
  45   0.0000       0.513338        13.9686 
  46   0.0000       0.513821        13.9818 
  47   0.0000       0.543179        14.7806 
  48   0.0000       0.548817        14.9341 
  49   0.0000       0.550069        14.9681 
  50   0.0000       0.572654        15.5827 
  51   0.0000       0.577008        15.7012 
  52   0.0000       0.593848        16.1594 
  53   0.0000       0.597358        16.2549 
  54   0.0000       0.611190        16.6313 
  55   0.0000       0.622591        16.9416 
  56   0.0000       0.623004        16.9528 
  57   0.0000       0.662616        18.0307 
  58   0.0000       0.677016        18.4225 
  59   0.0000       0.686481        18.6801 
  60   0.0000       0.752074        20.4650 
  61   0.0000       0.762498        20.7486 
  62   0.0000       0.784834        21.3564 
  63   0.0000       0.810042        22.0424 
  64   0.0000       0.824145        22.4261 
  65   0.0000       0.836737        22.7688 
  66   0.0000       0.839772        22.8514 
  67   0.0000       0.868735        23.6395 
  68   0.0000       0.902493        24.5581 
  69   0.0000       0.909803        24.7570 
  70   0.0000       0.936937        25.4954 
  71   0.0000       0.952708        25.9245 
  72   0.0000       1.007234        27.4082 
  73   0.0000       1.071115        29.1465 
  74   0.0000       1.126409        30.6512 
  75   0.0000       1.126788        30.6615 
  76   0.0000       1.184261        32.2254 
  77   0.0000       1.209055        32.9000 
  78   0.0000       1.218197        33.1488 
  79   0.0000       1.249548        34.0019 
  80   0.0000       1.299937        35.3731 
  81   0.0000       1.327020        36.1100 
  82   0.0000       1.421287        38.6752 
  83   0.0000       1.433520        39.0081 
  84   0.0000       1.442434        39.2506 
  85   0.0000       1.466291        39.8998 
  86   0.0000       1.489745        40.5380 
  87   0.0000       1.508382        41.0452 
  88   0.0000       1.564909        42.5833 
  89   0.0000       1.571435        42.7609 
  90   0.0000       1.585876        43.1539 
  91   0.0000       1.734440        47.1965 
  92   0.0000       1.785726        48.5921 
  93   0.0000       1.799583        48.9691 
  94   0.0000       1.821179        49.5568 
  95   0.0000       1.903586        51.7992 
  96   0.0000       1.924885        52.3788 
  97   0.0000       1.937314        52.7170 
  98   0.0000       1.970304        53.6147 
  99   0.0000       1.971905        53.6583 
 100   0.0000       2.048510        55.7428 
 101   0.0000       2.058219        56.0070 
 102   0.0000       2.119895        57.6853 
 103   0.0000       2.144878        58.3651 
 104   0.0000       2.152433        58.5707 
 105   0.0000       2.164839        58.9083 
 106   0.0000       2.234011        60.7905 
 107   0.0000       2.282411        62.1075 
 108   0.0000       2.302235        62.6470 
 109   0.0000       2.307164        62.7811 
 110   0.0000       2.455891        66.8282 
 111   0.0000       2.474688        67.3397 
 112   0.0000       2.576595        70.1127 
 113   0.0000       2.586235        70.3750 
 114   0.0000       2.648349        72.0652 
 115   0.0000       2.719037        73.9888 
 116   0.0000       2.732780        74.3627 
 117   0.0000       2.738171        74.5094 
 118   0.0000       2.760946        75.1292 
 119   0.0000       2.817665        76.6726 
 120   0.0000       2.866936        78.0133 
 121   0.0000       3.149028        85.6894 
 122   0.0000       3.338807        90.8536 
 123   0.0000       3.533496        96.1513 
------------------
MOLECULAR ORBITALS
------------------
                      0         1         2         3         4         5   
                 -10.20768 -10.18798 -10.18796 -10.18694 -10.18605 -10.18595
                   2.00000   2.00000   2.00000   2.00000   2.00000   2.00000
                  --------  --------  --------  --------  --------  --------
  0C   1s        -0.009924  0.978285  0.136723  0.047565  0.074613 -0.081769
  0C   2s         0.001380  0.035780  0.005055  0.002219  0.003696 -0.004898
  0C   1pz        0.000034  0.000221 -0.000016  0.000172  0.000217 -0.000298
  0C   1px        0.000047  0.000628 -0.000041  0.000514  0.000660 -0.000900
  0C   1py        0.001238  0.000544 -0.000121 -0.000158 -0.000452  0.000465
  0C   3s        -0.008960 -0.031802 -0.010576  0.000662 -0.007216  0.017389
  0C   2pz       -0.000378 -0.002130 -0.001509  0.000417 -0.000554  0.002449
  0C   2px       -0.000962 -0.006110 -0.004356  0.001184 -0.001637  0.007140
  0C   2py       -0.003549 -0.004036 -0.002196  0.001044  0.000097  0.001908
  0C   1dz2      -0.000656 -0.000425 -0.000089 -0.000104 -0.000385  0.000402
  0C   1dxz       0.000017  0.000164  0.000051  0.000110  0.000308 -0.000331
  0C   1dyz       0.000068 -0.000086 -0.000052 -0.000070 -0.000215  0.000250
  0C   1dx2y2    -0.001097 -0.000294 -0.000012  0.000119  0.000168 -0.000204
  0C   1dxy       0.000104 -0.000301 -0.000162 -0.000211 -0.000661  0.000765
  1C   1s        -0.995001 -0.008450 -0.011186 -0.001240  0.000185  0.001283
  1C   2s        -0.036793 -0.001819 -0.002409  0.000018  0.000102  0.000729
  1C   1pz        0.000097  0.000053 -0.000416  0.000063  0.000012 -0.000026
  1C   1px        0.000294  0.000097 -0.001213  0.000193  0.000034 -0.000080
  1C   1py       -0.000200  0.001432 -0.000303 -0.000134  0.000073  0.000045
  1C   3s         0.031785  0.007034  0.009278  0.003314 -0.001893 -0.014253
  1C   2pz        0.000068  0.001959  0.003887 -0.001682 -0.000484 -0.000643
  1C   2px        0.000211  0.006124  0.011673 -0.005110 -0.001364 -0.001966
  1C   2py       -0.000145 -0.008139 -0.004971  0.003503 -0.001488  0.001651
  1C   1dz2       0.000669  0.000602  0.000610  0.000092 -0.000004 -0.000048
  1C   1dxz      -0.000426  0.000041 -0.000570 -0.000030  0.000010  0.000002
  1C   1dyz       0.000002 -0.000021 -0.000292 -0.000065  0.000012  0.000062
  1C   1dx2y2     0.000045  0.001149 -0.000390  0.000089  0.000018 -0.000087
  1C   1dxy       0.000062  0.000032 -0.000824 -0.000179  0.000037  0.000176
  2C   1s        -0.000096  0.117200  0.015325 -0.220176 -0.606678  0.748210
  2C   2s         0.000071  0.002253 -0.000259 -0.006246 -0.022277  0.028416
  2C   1pz       -0.000028  0.000329  0.000022  0.000390 -0.000011  0.000078
  2C   1px       -0.000088  0.000997  0.000074  0.001135 -0.000004  0.000193
  2C   1py        0.000143 -0.000607 -0.000225  0.000367 -0.000702  0.000862
  2C   3s         0.002511  0.009646  0.006615 -0.003938  0.015714 -0.033644
  2C   2pz        0.000116 -0.000542 -0.000008 -0.000819 -0.000008 -0.000485
  2C   2px        0.000278 -0.001816 -0.000190 -0.002289 -0.000118 -0.001005
  2C   2py        0.001495  0.005082  0.003894 -0.002960  0.002220 -0.009937
  2C   1dz2       0.000042  0.000451  0.000006 -0.000303  0.000280 -0.000550
  2C   1dxz      -0.000030 -0.000455 -0.000027  0.000414 -0.000277  0.000577
  2C   1dyz      -0.000022  0.000306  0.000037  0.000289  0.000027  0.000047
  2C   1dx2y2    -0.000003 -0.000451 -0.000066  0.000516 -0.000241  0.000548
  2C   1dxy      -0.000060  0.000924  0.000106  0.000845  0.000093  0.000113
  3C   1s         0.000367  0.019044  0.026499 -0.940934 -0.047162 -0.318868
  3C   2s         0.000410  0.000556  0.000775 -0.033592 -0.002094 -0.014482
  3C   1pz       -0.000032  0.000108  0.000023  0.000148 -0.000242  0.000342
  3C   1px       -0.000096  0.000311  0.000082  0.000451 -0.000655  0.001029
  3C   1py        0.000066  0.000157 -0.000338 -0.000299 -0.001366 -0.000460
  3C   3s        -0.002820 -0.004421 -0.005846  0.024921  0.003987  0.029026
  3C   2pz        0.000501  0.000586  0.000820 -0.001125  0.000253 -0.002892
  3C   2px        0.001522  0.001789  0.002487 -0.003419  0.000589 -0.008765
  3C   2py       -0.001038 -0.001359 -0.001581  0.002310  0.003648  0.005437
  3C   1dz2       0.000058  0.000003  0.000041  0.000240  0.000229  0.000883
  3C   1dxz      -0.000035 -0.000062  0.000036 -0.000137  0.000309 -0.000470
  3C   1dyz      -0.000004 -0.000041 -0.000004 -0.000041  0.000111 -0.000352
  3C   1dx2y2     0.000009 -0.000152  0.000166  0.000064  0.001185  0.000348
  3C   1dxy      -0.000006 -0.000125 -0.000002 -0.000097  0.000390 -0.000950
  4C   1s        -0.000096 -0.018003  0.120093 -0.227100  0.778064  0.564466
  4C   2s         0.000071 -0.000887  0.002211 -0.006504  0.028840  0.021636
  4C   1pz       -0.000054 -0.000011  0.000315  0.000037 -0.000262 -0.000171
  4C   1px       -0.000159 -0.000041  0.000958  0.000162 -0.000755 -0.000484
  4C   1py        0.000025  0.000214 -0.000676 -0.001243 -0.000436 -0.000445
  4C   3s         0.002510  0.003734  0.010996 -0.003725 -0.024010 -0.028390
  4C   2pz       -0.000410 -0.000662 -0.001994  0.000580  0.001403  0.002559
  4C   2px       -0.001171 -0.001899 -0.005850  0.001564  0.004045  0.007344
  4C   2py       -0.000886 -0.001277 -0.000724  0.003417  0.002138  0.004687
  4C   1dz2       0.000048 -0.000119  0.000448 -0.000450 -0.000484 -0.000552
  4C   1dxz      -0.000012  0.000096 -0.000398 -0.000097  0.000202  0.000170
  4C   1dyz      -0.000014 -0.000050  0.000324  0.000075 -0.000105 -0.000082
  4C   1dx2y2     0.000055  0.000051 -0.000308 -0.001041 -0.000293 -0.000498
  4C   1dxy      -0.000034 -0.000155  0.000981  0.000143 -0.000360 -0.000307
  5C   1s        -0.009917 -0.136999  0.977824  0.050215 -0.095276 -0.061174
  5C   2s         0.001380 -0.004956  0.035772  0.002329 -0.004910 -0.003827
  5C   1pz       -0.000363  0.000053 -0.000072  0.000114 -0.000275 -0.000187
  5C   1px       -0.001046  0.000142 -0.000180  0.000355 -0.000836 -0.000573
  5C   1py       -0.000557  0.000313 -0.000770 -0.000437  0.000606  0.000537
  5C   3s        -0.008958 -0.001452 -0.033432  0.000514  0.011594  0.014950
  5C   2pz        0.000936 -0.000019  0.000444 -0.000163  0.000311  0.000259
  5C   2px        0.002656 -0.000177  0.000938 -0.000416  0.001069  0.001065
  5C   2py        0.002393  0.002841  0.008651 -0.001538 -0.003524 -0.007005
  5C   1dz2      -0.000496  0.000026 -0.000368 -0.000114  0.000458  0.000277
  5C   1dxz       0.000552 -0.000013  0.000383  0.000096 -0.000443 -0.000279
  5C   1dyz       0.000295 -0.000034 -0.000006 -0.000080  0.000247  0.000170
  5C   1dx2y2     0.000542  0.000015  0.000364  0.000065 -0.000400 -0.000271
  5C   1dxy       0.000847 -0.000098 -0.000035 -0.000244  0.000751  0.000513
  6C   1s        -0.000297  0.000020  0.000027 -0.000021 -0.000001 -0.000008
  6C   2s        -0.000971 -0.000007 -0.000010  0.000070 -0.000008 -0.000066
  6C   1pz       -0.000180  0.000014  0.000026 -0.000011 -0.000000  0.000011
  6C   1px       -0.000546  0.000045  0.000079 -0.000034  0.000000  0.000033
  6C   1py        0.000371 -0.000052 -0.000037  0.000023 -0.000009 -0.000021
  6C   3s         0.000835  0.005228  0.006966 -0.005917  0.000617  0.004954
  6C   2pz        0.000513  0.000699  0.000915 -0.000824  0.000061  0.000720
  6C   2px        0.001556  0.002121  0.002780 -0.002503  0.000192  0.002186
  6C   2py       -0.001061 -0.001390 -0.001934  0.001705 -0.000317 -0.001463
  6C   1dz2       0.000177  0.000006  0.000005  0.000001 -0.000003 -0.000002
  6C   1dxz      -0.000159  0.000004 -0.000006 -0.000000 -0.000008  0.000002
  6C   1dyz       0.000103 -0.000000 -0.000006 -0.000000 -0.000003  0.000001
  6C   1dx2y2    -0.000122  0.000021 -0.000007  0.000001 -0.000024  0.000003
  6C   1dxy       0.000313  0.000000 -0.000016 -0.000001 -0.000011  0.000002
  7H   1s         0.000259 -0.001350 -0.000294  0.000045  0.000074  0.000082
  7H   2s        -0.000144  0.002317 -0.000619  0.000579  0.000251  0.001151
  8H   1s         0.000052 -0.000295  0.000040  0.000438  0.000765 -0.001003
  8H   2s         0.000198  0.001423  0.001020 -0.001515 -0.001984  0.001123
  9H   1s         0.000052  0.000120 -0.000277  0.000447 -0.000994 -0.000769
  9H   2s         0.000198  0.000590  0.001657 -0.001535  0.002187  0.000569
 10H   1s         0.000259  0.000088 -0.001379  0.000043 -0.000046  0.000100
 10H   2s        -0.000144 -0.001233  0.002058  0.000586  0.000059  0.001171
 11C   1s        -0.004664 -0.000557 -0.000740 -0.000254 -0.000029 -0.000229
 11C   2s         0.001810 -0.000306 -0.000406  0.000028 -0.000023 -0.000181
 11C   1pz        0.000232 -0.000031 -0.000069  0.000016 -0.000003 -0.000026
 11C   1px        0.000703 -0.000098 -0.000208  0.000047 -0.000010 -0.000079
 11C   1py       -0.000479  0.000154  0.000076 -0.000032  0.000006  0.000054
 11C   3s        -0.008993  0.001424  0.001877 -0.000429 -0.000264 -0.001928
 11C   2pz       -0.000885  0.001913  0.002491 -0.002005  0.000278  0.001457
 11C   2px       -0.002687  0.005799  0.007568 -0.006085  0.000815  0.004427
 11C   2py        0.001832 -0.003780 -0.005281  0.004141  0.000064 -0.003097
 11C   1dz2      -0.000831 -0.000074 -0.000106  0.000015  0.000000 -0.000024
 11C   1dxz       0.000714  0.000058  0.000052 -0.000017  0.000013  0.000023
 11C   1dyz      -0.000415  0.000013  0.000006  0.000017  0.000002 -0.000020
 11C   1dx2y2     0.000484  0.000021 -0.000048 -0.000022  0.000033  0.000020
 11C   1dxy      -0.001275  0.000032  0.000008  0.000051  0.000006 -0.000060
 12H   1s         0.000257  0.000050  0.000067 -0.000072  0.000008  0.000066
 12H   2s         0.000793  0.000571  0.000762 -0.000727  0.000082  0.000652
 13H   1s        -0.000056 -0.000100 -0.000134  0.001331  0.000042  0.000266
 13H   2s        -0.000564 -0.000291 -0.000378 -0.003037  0.000094  0.000822
                      6         7         8         9        10        11   
                 -10.18021 -10.17350  -0.85814  -0.77639  -0.74644  -0.71813
                   2.00000   2.00000   2.00000   2.00000   2.00000   2.00000
                  --------  --------  --------  --------  --------  --------
  0C   1s        -0.000567 -0.000134  0.094016 -0.021812  0.113489  0.053656
  0C   2s         0.000054  0.000012 -0.179304  0.043403 -0.221963 -0.103501
  0C   1pz       -0.000078 -0.000027 -0.015482 -0.014814 -0.013203  0.001137
  0C   1px       -0.000245 -0.000084 -0.044086 -0.046877 -0.040655  0.005349
  0C   1py        0.000345  0.000076 -0.036784  0.074795  0.040072 -0.046713
  0C   3s         0.005256  0.001366 -0.104284  0.035032 -0.167198 -0.081123
  0C   2pz        0.001686  0.000412  0.001449 -0.003026  0.001634  0.001104
  0C   2px        0.005042  0.001220  0.004274 -0.009372  0.004354  0.003637
  0C   2py       -0.001651 -0.000125 -0.000370  0.009930  0.009635 -0.008424
  0C   1dz2       0.000031 -0.000005  0.007770 -0.002134  0.006928  0.003630
  0C   1dxz      -0.000007  0.000002 -0.004567 -0.001016 -0.005617 -0.001132
  0C   1dyz      -0.000070 -0.000028 -0.000093  0.000873  0.001013 -0.001501
  0C   1dx2y2     0.000046  0.000000  0.001520 -0.006454 -0.002822  0.003528
  0C   1dxy      -0.000204 -0.000082  0.000433  0.002153  0.003462 -0.003987
  1C   1s         0.004484  0.000531  0.109913 -0.106815 -0.000012  0.063309
  1C   2s         0.001745  0.000581 -0.214336  0.213451  0.000020 -0.119431
  1C   1pz       -0.000490 -0.000128 -0.010266 -0.016847  0.022214 -0.020467
  1C   1px       -0.001488 -0.000387 -0.031189 -0.051154  0.061193 -0.062146
  1C   1py        0.001013  0.000264  0.021254  0.034856  0.100502  0.042350
  1C   3s         0.001621  0.002701 -0.082340  0.110506  0.000034 -0.208364
  1C   2pz       -0.001639 -0.000609 -0.014695 -0.000118  0.003232  0.015491
  1C   2px       -0.004977 -0.001850 -0.044655 -0.000304  0.008952  0.047005
  1C   2py        0.003399  0.001264  0.030444  0.000265  0.014858 -0.032142
  1C   1dz2      -0.000931 -0.000182  0.007883 -0.006078  0.000809  0.003591
  1C   1dxz       0.000843  0.000175 -0.004790  0.004097  0.002709 -0.001480
  1C   1dyz      -0.000561 -0.000132 -0.000484 -0.000522  0.001149 -0.001789
  1C   1dx2y2     0.000667  0.000159  0.001190  0.000254  0.008294  0.002591
  1C   1dxy      -0.001706 -0.000397 -0.000721 -0.002036  0.003763 -0.004874
  2C   1s        -0.000091 -0.000020  0.085063  0.070684  0.111723 -0.028442
  2C   2s         0.000322  0.000100 -0.161736 -0.135474 -0.218347  0.058241
  2C   1pz        0.000017  0.000005 -0.000310 -0.018745  0.018068  0.025072
  2C   1px        0.000054  0.000015  0.001544 -0.054335  0.054266  0.074184
  2C   1py       -0.000106 -0.000010 -0.057037 -0.022071 -0.022484 -0.005426
  2C   3s        -0.006758 -0.001713 -0.104242 -0.101587 -0.162985  0.038713
  2C   2pz        0.000597  0.000094  0.000152 -0.002666  0.003544  0.004483
  2C   2px        0.001870  0.000312  0.000668 -0.007718  0.010052  0.013725
  2C   2py       -0.002549 -0.000824 -0.005999 -0.003516  0.008155 -0.012140
  2C   1dz2       0.000077  0.000024  0.006924  0.004903  0.007085 -0.001319
  2C   1dxz      -0.000077 -0.000024 -0.004272 -0.003360 -0.004384  0.001303
  2C   1dyz       0.000022  0.000006 -0.000072 -0.001859  0.001456  0.002090
  2C   1dx2y2    -0.000072 -0.000023  0.000818 -0.000040  0.000586  0.000827
  2C   1dxy       0.000069  0.000018  0.000401 -0.005069  0.004906  0.006081
  3C   1s         0.000260  0.000007  0.082587  0.106519  0.000007 -0.081640
  3C   2s        -0.000215 -0.000072 -0.156565 -0.206134 -0.000014  0.161558
  3C   1pz        0.000020  0.000002  0.014626  0.009364  0.020857 -0.000438
  3C   1px        0.000062  0.000006  0.044434  0.028440  0.057449 -0.001320
  3C   1py       -0.000042 -0.000004 -0.030278 -0.019372  0.094388  0.000916
  3C   3s         0.002200  0.000931 -0.098574 -0.143163 -0.000003  0.129444
  3C   2pz       -0.000683 -0.000210  0.001709 -0.001011  0.003478  0.002388
  3C   2px       -0.002076 -0.000637  0.005234 -0.003027  0.009624  0.007220
  3C   2py        0.001415  0.000434 -0.003596  0.001987  0.015805 -0.004851
  3C   1dz2      -0.000039 -0.000015  0.006807  0.007359 -0.000852 -0.004747
  3C   1dxz       0.000019  0.000008 -0.004272 -0.004507 -0.002854  0.002926
  3C   1dyz       0.000012  0.000003 -0.000108 -0.000363 -0.001211  0.000190
  3C   1dx2y2    -0.000018 -0.000004  0.000624  0.000999 -0.008739 -0.000590
  3C   1dxy       0.000031  0.000006  0.000278 -0.000415 -0.003965  0.000139
  4C   1s        -0.000090 -0.000020  0.085058  0.070681 -0.111712 -0.028474
  4C   2s         0.000322  0.000100 -0.161756 -0.135486  0.218343  0.058321
  4C   1pz        0.000038  0.000005  0.017192 -0.000273 -0.013563  0.010970
  4C   1px        0.000113  0.000015  0.049721 -0.003469 -0.041794  0.035334
  4C   1py       -0.000008 -0.000010  0.022107  0.061469  0.042986 -0.069210
  4C   3s        -0.006754 -0.001711 -0.104024 -0.101485  0.162789  0.038634
  4C   2pz        0.000994  0.000284  0.001823  0.000047  0.001215  0.005381
  4C   2px        0.002964  0.000837  0.005315 -0.000208  0.002962  0.016204
  4C   2py       -0.000748  0.000040  0.001821  0.008813  0.013016 -0.008135
  4C   1dz2       0.000085  0.000027  0.006879  0.005369 -0.006750 -0.001926
  4C   1dxz      -0.000050 -0.000015 -0.004402 -0.001793  0.005490 -0.000730
  4C   1dyz       0.000034  0.000010 -0.000130 -0.001198 -0.000985  0.001231
  4C   1dx2y2     0.000011  0.000006  0.000416  0.004754  0.002800 -0.005392
  4C   1dxy       0.000107  0.000031  0.000213 -0.002897 -0.003364  0.003262
  5C   1s        -0.000568 -0.000134  0.094018 -0.021811 -0.113503  0.053637
  5C   2s         0.000055  0.000012 -0.179285  0.043415  0.221967 -0.103472
  5C   1pz       -0.000134 -0.000033  0.005401 -0.028198  0.017045  0.014601
  5C   1px       -0.000398 -0.000100  0.013424 -0.083752  0.051276  0.042438
  5C   1py        0.000094  0.000049  0.057673  0.014230 -0.022588  0.014156
  5C   3s         0.005245  0.001363 -0.104456  0.034929  0.167420 -0.080920
  5C   2pz        0.001129  0.000192  0.000618 -0.004107  0.002361  0.002943
  5C   2px        0.003507  0.000613  0.002025 -0.012355  0.006566  0.008709
  5C   2py       -0.004171 -0.001121 -0.003832  0.004925  0.008034 -0.000084
  5C   1dz2       0.000040  0.000001  0.007633 -0.001273 -0.007265  0.003410
  5C   1dxz       0.000020  0.000022 -0.005042  0.001855  0.004512 -0.001858
  5C   1dyz      -0.000059 -0.000019 -0.000292  0.002089 -0.001485 -0.001809
  5C   1dx2y2     0.000128  0.000061  0.000070  0.002341 -0.000561  0.001296
  5C   1dxy      -0.000166 -0.000055 -0.000219  0.006141 -0.004999 -0.005003
  6C   1s        -0.163378  0.981475  0.015138 -0.077323  0.000016 -0.152416
  6C   2s        -0.001018  0.035183 -0.026585  0.141972 -0.000030  0.279592
  6C   1pz        0.000887  0.000602 -0.004857  0.020265  0.000485  0.030829
  6C   1px        0.002691  0.001828 -0.014747  0.061521  0.001333  0.093591
  6C   1py       -0.001832 -0.001244  0.010043 -0.041886  0.002221 -0.063699
  6C   3s        -0.010851 -0.032382 -0.091513  0.138556 -0.000070  0.355432
  6C   2pz       -0.001869 -0.002853 -0.011421  0.003909  0.000120  0.014772
  6C   2px       -0.005675 -0.008662 -0.034670  0.011862  0.000343  0.044837
  6C   2py        0.003866  0.005898  0.023605 -0.008063  0.000603 -0.030513
  6C   1dz2      -0.000461 -0.001160  0.000758 -0.003896  0.000045 -0.008166
  6C   1dxz       0.000424  0.001063 -0.000689  0.003556  0.000146  0.007461
  6C   1dyz      -0.000291 -0.000725  0.000461 -0.002411  0.000064 -0.005067
  6C   1dx2y2     0.000349  0.000866 -0.000550  0.002878  0.000451  0.006050
  6C   1dxy      -0.000884 -0.002200  0.001401 -0.007317  0.000207 -0.015375
  7H   1s         0.000483  0.000102 -0.035676  0.017464 -0.067214 -0.029710
  7H   2s         0.000714  0.000292  0.000840  0.002658 -0.011632 -0.006686
  8H   1s         0.000055 -0.000004 -0.031233 -0.036031 -0.066388  0.020025
  8H   2s        -0.000377 -0.000180 -0.002555 -0.007966 -0.012205  0.000919
  9H   1s         0.000055 -0.000004 -0.031227 -0.036023  0.066376  0.020040
  9H   2s        -0.000377 -0.000179 -0.002524 -0.007947  0.012200  0.000893
 10H   1s         0.000483  0.000102 -0.035683  0.017466  0.067229 -0.029702
 10H   2s         0.000714  0.000291  0.000806  0.002658  0.011672 -0.006670
 11C   1s        -0.981179 -0.164523  0.044989 -0.124299  0.000013 -0.116647
 11C   2s        -0.034750 -0.010502 -0.085485  0.232762 -0.000026  0.210359
 11C   1pz        0.000103  0.000898 -0.009973  0.002571  0.002748 -0.049055
 11C   1px        0.000311  0.002725 -0.030279  0.007805  0.007576 -0.148914
 11C   1py       -0.000211 -0.001855  0.020642 -0.005357  0.012413  0.101399
 11C   3s         0.018534  0.021576 -0.029855  0.141866 -0.000034  0.128597
 11C   2pz       -0.002132 -0.003476 -0.024194  0.014155  0.000644  0.039893
 11C   2px       -0.006470 -0.010552 -0.073439  0.042967  0.001742  0.121104
 11C   2py        0.004402  0.007184  0.050008 -0.029283  0.002988 -0.082462
 11C   1dz2       0.001312  0.000720  0.003391 -0.006611  0.000183 -0.003211
 11C   1dxz      -0.001235 -0.000666 -0.003014  0.005867  0.000611  0.002935
 11C   1dyz       0.000893  0.000464  0.001916 -0.003713  0.000259 -0.001991
 11C   1dx2y2    -0.001076 -0.000556 -0.002264  0.004387  0.001870  0.002381
 11C   1dxy       0.002701  0.001406  0.005843 -0.011328  0.000849 -0.006046
 12H   1s         0.000101 -0.002924 -0.004930  0.028195 -0.000007  0.072914
 12H   2s        -0.001983  0.001506 -0.010862  0.001607 -0.000005  0.019531
 13H   1s         0.000180  0.000042 -0.030260 -0.055082 -0.000006  0.055374
 13H   2s         0.000734  0.000211 -0.003345 -0.009006 -0.000004  0.011547
                     12        13        14        15        16        17   
                  -0.61988  -0.60589  -0.54441  -0.50984  -0.47429  -0.45210
                   2.00000   2.00000   2.00000   2.00000   2.00000   2.00000
                  --------  --------  --------  --------  --------  --------
  0C   1s        -0.060525  0.085113  0.000924  0.016071  0.054251 -0.007823
  0C   2s         0.123761 -0.172526 -0.003465 -0.029916 -0.110638  0.020267
  0C   1pz        0.014985  0.032524  0.028663  0.043680  0.042739  0.036806
  0C   1px        0.049383  0.098954  0.078041  0.127714  0.125462  0.118671
  0C   1py       -0.121261 -0.071429  0.151243  0.025694  0.013626 -0.236705
  0C   3s         0.093918 -0.141253  0.001128 -0.066901 -0.162681 -0.025714
  0C   2pz       -0.001421  0.019448  0.013211  0.007596  0.008940  0.013777
  0C   2px       -0.002317  0.058024  0.037029  0.022299  0.025985  0.045483
  0C   2py       -0.044140 -0.014451  0.044433  0.002084  0.009778 -0.112392
  0C   1dz2      -0.001644  0.003639  0.000362  0.001661  0.001502  0.001125
  0C   1dxz       0.003210 -0.001924 -0.001099 -0.000540 -0.002883  0.001006
  0C   1dyz      -0.000022 -0.002038  0.001992 -0.001121 -0.003866 -0.000356
  0C   1dx2y2     0.005527  0.001560 -0.002517  0.001619 -0.004376  0.004612
  0C   1dxy       0.000001 -0.005643  0.005809 -0.003104 -0.011429 -0.000781
  1C   1s         0.082041 -0.000008 -0.028165  0.016091 -0.037497  0.000004
  1C   2s        -0.165519  0.000003  0.060804 -0.026892  0.071600 -0.000012
  1C   1pz        0.035833  0.040381  0.059069  0.016560 -0.043356  0.051157
  1C   1px        0.108797  0.111260  0.179361  0.050306 -0.131607  0.140960
  1C   1py       -0.074125  0.182765 -0.122235 -0.034289  0.089717  0.231515
  1C   3s        -0.203274  0.000168 -0.000593 -0.197142  0.212394 -0.000147
  1C   2pz        0.030199  0.006959  0.017944  0.045270 -0.021683  0.004248
  1C   2px        0.091716  0.019127  0.054421  0.137421 -0.065864  0.011606
  1C   2py       -0.062613  0.031745 -0.037107 -0.093694  0.045008  0.019024
  1C   1dz2       0.002219  0.000545 -0.000015  0.001568 -0.001009 -0.000173
  1C   1dxz      -0.002224  0.001829 -0.000490 -0.000317  0.002826 -0.000582
  1C   1dyz       0.001813  0.000775  0.001115 -0.001515 -0.004875 -0.000244
  1C   1dx2y2    -0.002213  0.005597 -0.001456  0.002096  0.006300 -0.001782
  1C   1dxy       0.005447  0.002537  0.003226 -0.004260 -0.014217 -0.000803
  2C   1s        -0.034386 -0.088961  0.039825 -0.010909 -0.056988  0.002701
  2C   2s         0.070991  0.180958 -0.082351  0.024084  0.113078 -0.006561
  2C   1pz       -0.053485  0.028589  0.022296 -0.001253 -0.005486 -0.086084
  2C   1px       -0.157695  0.087023  0.059345 -0.008994 -0.013844 -0.255367
  2C   1py       -0.001949 -0.062895  0.149681  0.123180 -0.054965  0.033742
  2C   3s         0.040863  0.133577 -0.090395  0.019715  0.162087 -0.005120
  2C   2pz       -0.013219  0.008350  0.008702 -0.001676 -0.004506 -0.023275
  2C   2px       -0.038052  0.026654  0.023175 -0.006442 -0.013091 -0.069425
  2C   2py       -0.019451 -0.048261  0.056237  0.034755 -0.003808  0.020332
  2C   1dz2      -0.001484 -0.003823  0.002034  0.000364 -0.003069  0.000059
  2C   1dxz      -0.000280  0.000912 -0.000729 -0.001365 -0.002618  0.000174
  2C   1dyz      -0.002399  0.001613  0.000124  0.000279  0.000926 -0.001428
  2C   1dx2y2    -0.002951 -0.004441  0.001586 -0.002973 -0.012246  0.000758
  2C   1dxy      -0.007303  0.004267  0.000590  0.000739  0.002015 -0.004172
  3C   1s         0.100092 -0.000009 -0.027410  0.019646  0.053698 -0.000004
  3C   2s        -0.203321  0.000017  0.055226 -0.039927 -0.108497  0.000004
  3C   1pz       -0.016511 -0.037098 -0.017010 -0.046962 -0.050161  0.049301
  3C   1px       -0.050183 -0.102190 -0.051708 -0.142735 -0.152457  0.135811
  3C   1py        0.034206 -0.167907  0.035258  0.097275  0.103956  0.223073
  3C   3s        -0.150545  0.000117  0.033504 -0.043508 -0.143992 -0.000018
  3C   2pz       -0.014279 -0.009055 -0.003356 -0.016741 -0.014378  0.018927
  3C   2px       -0.043394 -0.024951 -0.010112 -0.050824 -0.043748  0.052115
  3C   2py        0.029513 -0.040794  0.006872  0.034572  0.029758  0.085496
  3C   1dz2       0.003970  0.000730 -0.000216  0.001396  0.002010 -0.000317
  3C   1dxz      -0.002972  0.002450  0.000959 -0.001098 -0.003129 -0.001062
  3C   1dyz       0.001013  0.001039 -0.001833  0.000480  0.004146 -0.000452
  3C   1dx2y2    -0.001039  0.007493  0.002383 -0.000523 -0.005273 -0.003246
  3C   1dxy       0.003284  0.003401 -0.005334  0.001513  0.012197 -0.001477
  4C   1s        -0.034383  0.088966  0.039814 -0.010910 -0.056994 -0.002688
  4C   2s         0.070981 -0.180953 -0.082335  0.024090  0.113092  0.006530
  4C   1pz       -0.019322 -0.029694 -0.037066 -0.037811  0.014633  0.042262
  4C   1px       -0.063535 -0.090087 -0.104233 -0.109723  0.041600  0.134630
  4C   1py        0.152716  0.057789 -0.119095 -0.042279  0.036001 -0.232040
  4C   3s         0.040973 -0.133818 -0.090272  0.019861  0.162232  0.004981
  4C   2pz        0.000959 -0.017729 -0.013846 -0.011208 -0.000553  0.014868
  4C   2px        0.000926 -0.052486 -0.038892 -0.032697 -0.002201  0.046327
  4C   2py        0.044692  0.005797 -0.045607 -0.008184  0.014120 -0.058570
  4C   1dz2      -0.000491  0.003483  0.001764  0.000799 -0.001272 -0.000245
  4C   1dxz       0.003050 -0.002060 -0.001619  0.000103  0.003402 -0.000798
  4C   1dyz      -0.000991 -0.002103 -0.000256  0.000897  0.003477  0.001168
  4C   1dx2y2     0.007236  0.000928 -0.001143  0.001516  0.006183 -0.002657
  4C   1dxy      -0.002684 -0.005866 -0.000651  0.002770  0.010374  0.003316
  5C   1s        -0.060535 -0.085104  0.000937  0.016067  0.054261  0.007805
  5C   2s         0.123773  0.172517 -0.003493 -0.029902 -0.110646 -0.020227
  5C   1pz        0.042337 -0.033787 -0.035176  0.008487  0.011775 -0.085484
  5C   1px        0.124762 -0.102413 -0.097885  0.030712  0.040102 -0.252776
  5C   1py        0.002583  0.065788 -0.137751 -0.133660 -0.126508  0.016471
  5C   3s         0.094006  0.141303  0.001045 -0.066953 -0.162879  0.025882
  5C   2pz        0.012847 -0.011602 -0.008600  0.002161  0.000363 -0.039209
  5C   2px        0.036934 -0.036362 -0.022957  0.007369  0.002329 -0.115389
  5C   2py        0.020537  0.049765 -0.053972 -0.022239 -0.028957 -0.002803
  5C   1dz2      -0.002580 -0.003866  0.000356  0.001658  0.003092 -0.000449
  5C   1dxz       0.000086  0.001165 -0.001133 -0.000560  0.002419  0.001260
  5C   1dyz      -0.001348  0.001713  0.001982 -0.001126 -0.001613  0.001316
  5C   1dx2y2    -0.004034 -0.003879 -0.002621  0.001556  0.011862  0.002317
  5C   1dxy      -0.004332  0.004592  0.005764 -0.003131 -0.004063  0.003920
  6C   1s        -0.081045 -0.000010 -0.067623  0.040042  0.006545 -0.000001
  6C   2s         0.150814  0.000021  0.135248 -0.095636  0.001122 -0.000015
  6C   1pz       -0.001141  0.002053 -0.043791  0.088025 -0.052940  0.006653
  6C   1px       -0.003462  0.005655 -0.132932  0.267218 -0.160709  0.018339
  6C   1py        0.002392  0.009315  0.090569 -0.182009  0.109457  0.030056
  6C   3s         0.253896 -0.000134  0.204235  0.124939 -0.152039  0.000361
  6C   2pz        0.012014  0.000243  0.000158  0.050296 -0.032159  0.001016
  6C   2px        0.036477  0.000665  0.000462  0.152687 -0.097647  0.002800
  6C   2py       -0.024828  0.001241 -0.000309 -0.103933  0.066481  0.004119
  6C   1dz2      -0.004815  0.000129 -0.005079  0.004754 -0.001076  0.000258
  6C   1dxz       0.004388  0.000434  0.004660 -0.004330  0.001020  0.000866
  6C   1dyz      -0.002966  0.000184 -0.003206  0.002939 -0.000758  0.000367
  6C   1dx2y2     0.003538  0.001327  0.003825 -0.003490  0.000906  0.002648
  6C   1dxy      -0.009002  0.000602 -0.009713  0.008910 -0.002282  0.001203
  7H   1s         0.052007 -0.094924 -0.068842 -0.082218 -0.127100  0.006371
  7H   2s         0.013976 -0.029247 -0.036887 -0.059552 -0.085175  0.003892
  8H   1s         0.031979  0.097430 -0.109739 -0.051705  0.091354 -0.014179
  8H   2s         0.006963  0.033172 -0.057769 -0.039503  0.062001 -0.007378
  9H   1s         0.031978 -0.097421 -0.109719 -0.051704  0.091354  0.014149
  9H   2s         0.006997 -0.033213 -0.057740 -0.039459  0.062048  0.007345
 10H   1s         0.052019  0.094923 -0.068868 -0.082217 -0.127116 -0.006338
 10H   2s         0.013943  0.029287 -0.036929 -0.059582 -0.085206 -0.003809
 11C   1s         0.032892 -0.000006  0.071776 -0.058643 -0.011747 -0.000009
 11C   2s        -0.073136  0.000015 -0.142145  0.109110  0.036786  0.000022
 11C   1pz       -0.054437  0.008048 -0.022147 -0.041779  0.063383  0.016451
 11C   1px       -0.165248  0.022175 -0.067233 -0.126824  0.192399  0.045317
 11C   1py        0.112571  0.036450  0.045819  0.086356 -0.131021  0.074581
 11C   3s        -0.081807 -0.000023 -0.177326  0.057897  0.105467 -0.000277
 11C   2pz        0.027229  0.003360  0.011260  0.065394 -0.030320  0.010996
 11C   2px        0.082631  0.009237  0.034213  0.198522 -0.091992  0.030351
 11C   2py       -0.056252  0.015569 -0.023281 -0.135234  0.062644  0.049287
 11C   1dz2       0.002986  0.000467  0.003204 -0.002088  0.000047  0.000690
 11C   1dxz      -0.002709  0.001558 -0.002840  0.002090  0.000289  0.002302
 11C   1dyz       0.001810  0.000662  0.001787 -0.001697 -0.000714  0.000978
 11C   1dx2y2    -0.002152  0.004773 -0.002114  0.002078  0.000932  0.007052
 11C   1dxy       0.005500  0.002165  0.005452 -0.005099 -0.002064  0.003199
 12H   1s         0.074874  0.000013  0.155066 -0.224872  0.109955 -0.000022
 12H   2s         0.041651 -0.000011  0.105992 -0.132472  0.071234  0.000057
 13H   1s        -0.105850  0.000016 -0.005796 -0.110970 -0.164026  0.000016
 13H   2s        -0.032866  0.000046 -0.007520 -0.070404 -0.114257 -0.000016
                     18        19        20        21        22        23   
                  -0.43213  -0.42216  -0.37513  -0.35709  -0.34840  -0.30213
                   2.00000   2.00000   2.00000   2.00000   2.00000   2.00000
                  --------  --------  --------  --------  --------  --------
  0C   1s         0.008250 -0.019421 -0.000004 -0.009494 -0.002310  0.000007
  0C   2s        -0.015037  0.042513  0.000016  0.024392 -0.001303  0.000001
  0C   1pz        0.031848  0.081601  0.203964  0.068809 -0.043368 -0.005803
  0C   1px        0.086886  0.236623 -0.069217  0.208608 -0.120157  0.001965
  0C   1py        0.163152  0.094360 -0.002964 -0.136880 -0.179595  0.000122
  0C   3s         0.008396  0.083688  0.000095 -0.011424  0.042609 -0.000171
  0C   2pz        0.020058  0.022328  0.117160  0.015320 -0.003238  0.000062
  0C   2px        0.058221  0.063287 -0.039834  0.048321 -0.006732 -0.000082
  0C   2py        0.023050  0.058350 -0.001592 -0.073842 -0.067156 -0.000060
  0C   1dz2      -0.000097  0.001591  0.003850  0.001709 -0.000647 -0.003565
  0C   1dxz      -0.005268 -0.000914  0.005540 -0.000805  0.006362 -0.005758
  0C   1dyz       0.000176 -0.003021  0.006271 -0.003818  0.004034  0.008925
  0C   1dx2y2    -0.013914  0.000794 -0.002045  0.001388  0.014895  0.002318
  0C   1dxy      -0.000006 -0.008746 -0.002233 -0.011067  0.012388 -0.002924
  1C   1s        -0.046802 -0.000008 -0.000004  0.012571 -0.000001 -0.000003
  1C   2s         0.102144  0.000027  0.000041 -0.033469 -0.000003  0.000025
  1C   1pz        0.066378 -0.018225  0.260579 -0.038715  0.045490  0.176593
  1C   1px        0.201509 -0.050187 -0.088379 -0.117770  0.125326 -0.059921
  1C   1py       -0.137319 -0.082496 -0.003768  0.080342  0.205795 -0.002579
  1C   3s         0.092326 -0.000021 -0.000199  0.057362 -0.000135  0.000091
  1C   2pz        0.018779  0.005038  0.142902  0.000645  0.015685  0.106433
  1C   2px        0.056935  0.013992 -0.048044  0.001773  0.043246 -0.036102
  1C   2py       -0.038803  0.023311 -0.002042 -0.001165  0.070856 -0.001589
  1C   1dz2       0.000888 -0.001062  0.001386 -0.001150  0.000477 -0.005914
  1C   1dxz      -0.001159 -0.003553  0.002155  0.003192  0.001592 -0.009206
  1C   1dyz       0.001333 -0.001506 -0.001661 -0.005491  0.000678  0.007112
  1C   1dx2y2    -0.001675 -0.010875 -0.000846  0.007097  0.004877  0.003616
  1C   1dxy       0.003940 -0.004933  0.000536 -0.016013  0.002218 -0.002247
  2C   1s        -0.004850 -0.019171 -0.000004  0.004061 -0.001355 -0.000004
  2C   2s         0.009118  0.042657  0.000034 -0.006101  0.009803 -0.000018
  2C   1pz       -0.018351 -0.001714  0.177205 -0.074109  0.053704 -0.169014
  2C   1px       -0.045369 -0.016491 -0.060033 -0.223767  0.150681  0.057319
  2C   1py       -0.204231  0.267094 -0.002578  0.118136  0.182063  0.002439
  2C   3s        -0.010014  0.075476  0.000073 -0.020685 -0.038652  0.000192
  2C   2pz        0.006857  0.005837  0.098847 -0.027079  0.022872 -0.114273
  2C   2px        0.023378  0.013697 -0.033446 -0.081511  0.066165  0.038742
  2C   2py       -0.074418  0.079971 -0.001425  0.033788  0.031760  0.001744
  2C   1dz2      -0.002462  0.002312 -0.000157  0.001978  0.004185 -0.003993
  2C   1dxz      -0.002307  0.000833 -0.000586  0.002232  0.004364 -0.005817
  2C   1dyz      -0.002358 -0.002436  0.008134 -0.004290  0.000857 -0.004548
  2C   1dx2y2    -0.009923  0.006501  0.000326  0.009842  0.018477  0.002170
  2C   1dxy      -0.007525 -0.006745 -0.002739 -0.012120  0.003569  0.001647
  3C   1s         0.033983  0.000005  0.000001  0.004560 -0.000005 -0.000002
  3C   2s        -0.071831 -0.000042 -0.000008 -0.017696 -0.000002  0.000040
  3C   1pz        0.062233 -0.018149  0.168096  0.071713 -0.051454 -0.235150
  3C   1px        0.189135 -0.049988 -0.057079  0.217844 -0.141638  0.079722
  3C   1py       -0.128908 -0.082228 -0.002422 -0.148586 -0.232499  0.003457
  3C   3s        -0.113256  0.000177 -0.000107  0.011883  0.000092 -0.000033
  3C   2pz        0.018991  0.002070  0.096518  0.016599 -0.019130 -0.150088
  3C   2px        0.057628  0.005836 -0.032658  0.050498 -0.052645  0.050980
  3C   2py       -0.039248  0.009701 -0.001499 -0.034416 -0.086300  0.002323
  3C   1dz2      -0.001082  0.001110 -0.003578 -0.002405  0.000915  0.002871
  3C   1dxz       0.000768  0.003723 -0.005582  0.004759  0.003061  0.004476
  3C   1dyz      -0.000189  0.001574  0.004309 -0.007225  0.001299 -0.003455
  3C   1dx2y2     0.000167  0.011394  0.002194  0.009278  0.009369 -0.001765
  3C   1dxy      -0.000646  0.005165 -0.001357 -0.021164  0.004259  0.001094
  4C   1s        -0.004853  0.019177 -0.000005  0.004052  0.001353  0.000002
  4C   2s         0.009098 -0.042666 -0.000044 -0.006108 -0.009797  0.000038
  4C   1pz        0.055064  0.081604  0.177199 -0.063358  0.035218 -0.169026
  4C   1px        0.156886  0.236663 -0.060021 -0.194195  0.094476  0.057319
  4C   1py        0.128185  0.094643 -0.002620  0.166847  0.220319  0.002439
  4C   3s        -0.010000 -0.075835  0.000235 -0.020510  0.038602 -0.000044
  4C   2pz        0.025130  0.022199  0.098854 -0.020354  0.001107 -0.114379
  4C   2px        0.073801  0.063410 -0.033528 -0.062915  0.000099  0.038571
  4C   2py        0.008217  0.046377 -0.001516  0.064581  0.076875  0.001783
  4C   1dz2      -0.000327 -0.001783 -0.004331  0.001295 -0.000974  0.000921
  4C   1dxz       0.004829  0.000920 -0.006402 -0.000037  0.006372  0.001034
  4C   1dyz       0.000671  0.003177 -0.002727 -0.005255  0.003698  0.008241
  4C   1dx2y2     0.011936 -0.001125  0.002417  0.002886  0.014403 -0.000288
  4C   1dxy       0.002391  0.009185  0.001051 -0.015276  0.011356 -0.002821
  5C   1s         0.008246  0.019417  0.000007 -0.009491  0.002319  0.000003
  5C   2s        -0.015044 -0.042513 -0.000018  0.024388  0.001282  0.000012
  5C   1pz       -0.037590 -0.001807  0.203960  0.067161 -0.038350 -0.005801
  5C   1px       -0.104456 -0.016652 -0.069241  0.203988 -0.104990  0.001981
  5C   1py       -0.151301  0.266900 -0.002922 -0.144573 -0.189920  0.000099
  5C   3s         0.008510 -0.083356 -0.000245 -0.011552 -0.042595 -0.000198
  5C   2pz        0.000486  0.009427  0.117194  0.028089 -0.019162  0.000016
  5C   2px        0.004248  0.024076 -0.039642  0.083422 -0.055064 -0.000162
  5C   2py       -0.065633  0.084747 -0.001524 -0.015911 -0.034185  0.000060
  5C   1dz2       0.002179 -0.002140 -0.001876  0.002334  0.004008 -0.005999
  5C   1dxz       0.002342 -0.000903 -0.002459  0.001269  0.004880 -0.009151
  5C   1dyz       0.003404  0.002249 -0.008655 -0.002942  0.000738  0.002592
  5C   1dx2y2     0.009386 -0.006358  0.000833  0.007750  0.019529  0.003536
  5C   1dxy       0.010557  0.006221  0.002978 -0.008184  0.003228 -0.000707
  6C   1s        -0.014982 -0.000001 -0.000003  0.014388 -0.000002  0.000000
  6C   2s         0.023253  0.000005  0.000002 -0.022653 -0.000013  0.000001
  6C   1pz        0.027760  0.000981  0.076910 -0.015031  0.009872  0.249559
  6C   1px        0.084272  0.002710 -0.026080 -0.045727  0.027205 -0.084676
  6C   1py       -0.057384  0.004436 -0.001118  0.031163  0.044686 -0.003630
  6C   3s         0.099287 -0.000133  0.000256 -0.096802  0.000294 -0.000141
  6C   2pz        0.016367  0.001061  0.037090 -0.013763  0.004773  0.142491
  6C   2px        0.049671  0.002938 -0.012449 -0.041841  0.013137 -0.048395
  6C   2py       -0.033809  0.004968 -0.000580  0.028504  0.021236 -0.001953
  6C   1dz2       0.000215  0.000019  0.002632  0.000392  0.000327  0.005605
  6C   1dxz      -0.000158  0.000063  0.004098 -0.000313  0.001097  0.008725
  6C   1dyz       0.000054  0.000027 -0.003162  0.000147  0.000465 -0.006733
  6C   1dx2y2    -0.000052  0.000194 -0.001608 -0.000166  0.003354 -0.003424
  6C   1dxy       0.000175  0.000088  0.001000  0.000463  0.001524  0.002129
  7H   1s        -0.104630 -0.143141  0.000031 -0.086746  0.151275 -0.000017
  7H   2s        -0.081063 -0.129619  0.000024 -0.100344  0.159698 -0.000010
  8H   1s         0.132698 -0.144738  0.000007 -0.085315 -0.144811  0.000017
  8H   2s         0.110016 -0.135058  0.000003 -0.087322 -0.159064  0.000040
  9H   1s         0.132648  0.144747  0.000018 -0.085231  0.144858  0.000009
  9H   2s         0.109936  0.134994 -0.000003 -0.087222  0.159074  0.000108
 10H   1s        -0.104702  0.143103  0.000001 -0.086891 -0.151210  0.000011
 10H   2s        -0.081139  0.129690 -0.000016 -0.100543 -0.159648  0.000030
 11C   1s         0.022329 -0.000001  0.000005 -0.033016  0.000005  0.000001
 11C   2s        -0.049925  0.000000 -0.000012  0.075867 -0.000010  0.000003
 11C   1pz       -0.045086  0.000825  0.143891  0.038136  0.017495  0.309609
 11C   1px       -0.136875  0.002289 -0.048832  0.115596  0.048188 -0.105041
 11C   1py        0.093221  0.003780 -0.002057 -0.078685  0.079309 -0.004481
 11C   3s        -0.127785  0.000003  0.000056  0.165253 -0.000193  0.000118
 11C   2pz        0.007287 -0.000027  0.069622 -0.002787  0.007737  0.177053
 11C   2px        0.022164 -0.000130 -0.023344 -0.008508  0.021342 -0.060220
 11C   2py       -0.015093  0.000105 -0.001227  0.005798  0.034589 -0.002532
 11C   1dz2       0.000506 -0.000167  0.002648  0.000323  0.000376 -0.001475
 11C   1dxz      -0.000366 -0.000558  0.004127  0.000166  0.001255 -0.002295
 11C   1dyz       0.000099 -0.000238 -0.003191 -0.000825  0.000533  0.001766
 11C   1dx2y2    -0.000092 -0.001708 -0.001623  0.001100  0.003843  0.000905
 11C   1dxy       0.000330 -0.000776  0.001003 -0.002359  0.001744 -0.000559
 12H   1s        -0.047835 -0.000005 -0.000003  0.021816 -0.000007 -0.000003
 12H   2s        -0.035661 -0.000027  0.000025  0.015250  0.000043 -0.000035
 13H   1s         0.106213  0.000034 -0.000069  0.199433 -0.000074  0.000003
 13H   2s         0.101741  0.000029 -0.000120  0.214954 -0.000076  0.000013
                     24        25        26        27        28        29   
                  -0.26802  -0.25252  -0.22744  -0.02522  -0.00116   0.05946
                   2.00000   2.00000   2.00000   0.00000   0.00000   0.00000
                  --------  --------  --------  --------  --------  --------
  0C   1s         0.019168  0.000008  0.000004  0.000002 -0.000002 -0.038383
  0C   2s        -0.041583 -0.000013  0.000009 -0.000007 -0.000033  0.088684
  0C   1pz        0.006127 -0.280706  0.166668  0.195289  0.298775 -0.005831
  0C   1px        0.022527  0.095173 -0.056518 -0.066231 -0.101276 -0.021288
  0C   1py       -0.102830  0.004114 -0.002409 -0.002877 -0.004315  0.096599
  0C   3s        -0.102872 -0.000334 -0.000190  0.000059  0.000400  0.321618
  0C   2pz       -0.002800 -0.200014  0.128945  0.223620  0.396408  0.030166
  0C   2px       -0.008228  0.067806 -0.043853 -0.076178 -0.134502  0.093004
  0C   2py       -0.000678  0.002551 -0.001928 -0.002912 -0.005588 -0.095735
  0C   1dz2      -0.000271 -0.004227 -0.000981  0.002755 -0.007900  0.003666
  0C   1dxz       0.001240 -0.006629 -0.001965  0.004956 -0.012284 -0.001601
  0C   1dyz      -0.000282  0.005792  0.011290 -0.018721  0.009146  0.003243
  0C   1dx2y2     0.002804  0.002623  0.000892 -0.002146  0.004816  0.001693
  0C   1dxy      -0.000755 -0.001847 -0.003796  0.006263 -0.002878  0.009958
  1C   1s        -0.000004 -0.000004 -0.000001  0.000012 -0.000010  0.000029
  1C   2s        -0.000012 -0.000012  0.000021 -0.000013  0.000015 -0.000146
  1C   1pz        0.018038  0.000034  0.243622 -0.293649 -0.000202  0.003816
  1C   1px        0.049646 -0.000005 -0.082664  0.099625  0.000065  0.010927
  1C   1py        0.081628  0.000004 -0.003532  0.004267 -0.000007  0.017549
[...]
     28      -0.174992  -0.006461  -0.000269  -0.007358  -0.006900   0.054016
     29       0.163305   0.445690   0.014124   0.490507   0.482131   0.009454
     30       0.046824  -0.166036   0.176236   0.149767   0.093011  -0.087555
     31       0.142260  -0.007035   0.007394   0.006384   0.004342  -0.413889
     32       0.025102   0.489568  -0.519708  -0.440757  -0.274170  -0.037332
     33      -0.130614  -0.000006  -0.007909  -0.000003  -0.001906  -0.005258
     34       0.090013   0.000003  -0.000341  -0.000010  -0.000079   0.003581
     35      -0.046925   0.000036   0.023361  -0.000005   0.005609  -0.001723
     36      -0.192410   0.000016   0.010804   0.000001   0.001373  -0.004043
     37       0.129798  -0.000004   0.000423  -0.000003   0.000066   0.002758
     38      -0.056296  -0.000039  -0.031816  -0.000007  -0.004085  -0.001339
     39      -0.185832  -0.000009  -0.193008   0.000209   0.173388  -0.314427
     40       0.119117  -0.000040  -0.008279   0.000078   0.007240   0.215014
     41      -0.026939   0.000011   0.569400  -0.000464  -0.510567  -0.106475
                 24         25         26         27         28         29    
      0      -0.008192  -0.106226  -0.001665   0.018619   0.051090   0.016365
      1       0.084840   0.013449  -0.006827  -0.043805  -0.053887  -0.124068
      2      -0.001615  -0.035819  -0.000656   0.005688   0.016526   0.003771
      3      -0.022094   0.032609  -0.002467  -0.052950   0.311363   0.163643
      4       0.015074   0.053587  -0.003980   0.036150  -0.212375   0.268548
      5      -0.007292   0.011843  -0.000899  -0.017445   0.102558   0.059393
      6      -0.075904   0.014973  -0.042231  -0.042773  -0.054468  -0.151228
      7      -0.175062  -0.080575   0.000683  -0.016938   0.117836  -0.011376
      8      -0.028164   0.003907  -0.014304  -0.014750  -0.016732  -0.051440
      9       0.117071   0.046590   0.033470  -0.009102   0.017268   0.054682
     10      -0.079736   0.076520   0.054977   0.006270  -0.011781   0.089882
     11       0.038467   0.016912   0.012154  -0.002998   0.005654   0.019843
     12       0.119281  -0.075564   0.018112  -0.003065  -0.123937   0.052634
     13       0.145431  -0.018906  -0.040443   0.048106   0.003769  -0.150486
     14       0.042538  -0.025904   0.005552  -0.000343  -0.041979   0.015673
     15      -0.076443   0.055545  -0.005293   0.045364   0.067638  -0.113473
     16      -0.027165  -0.096749  -0.004432   0.000157  -0.026867  -0.035602
     17      -0.026261   0.017428  -0.001864   0.015381   0.022575  -0.039011
     18       0.014863   0.001005   0.000043   0.018838  -0.122305   0.001253
     19      -0.010116   0.001656   0.000037  -0.012823   0.083264   0.002183
     20       0.004897   0.000363   0.000014   0.006203  -0.040280   0.000456
     21      -0.159665  -0.289612   0.067645   0.236232  -0.046751   0.171162
     22       0.391830   0.377266  -0.150980  -0.499633   0.181467  -0.454465
     23      -0.048036  -0.092798   0.020707   0.072807  -0.013155   0.051338
     24      -0.445294   0.260253  -0.460238  -0.404205  -0.530011   0.377701
     25      -0.165252  -0.101603   0.024095   0.002571   0.154045  -0.045522
     26      -0.154066   0.086815  -0.155730  -0.137057  -0.177585   0.127317
     27      -0.042225  -0.195104   0.211539  -0.169150  -0.351395  -0.195545
     28       0.497631   0.208729  -0.434173   0.387803   0.446115   0.344889
     29      -0.006818  -0.063245   0.065389  -0.051731  -0.112703  -0.061291
     30      -0.402957   0.444478  -0.158544   0.527049  -0.175572  -0.462582
     31      -0.008353  -0.122977   0.002735  -0.020927  -0.029948  -0.023148
     32      -0.137105   0.149006  -0.053680   0.178469  -0.060080  -0.157229
     33       0.007262  -0.011841  -0.000666   0.007963  -0.042992  -0.014473
     34      -0.004967  -0.019466  -0.001105  -0.005445   0.029389  -0.023760
     35       0.002399  -0.004303  -0.000241   0.002629  -0.014194  -0.005258
     36       0.016612   0.008178   0.000686   0.022157  -0.143651   0.018548
     37      -0.011309   0.013454   0.001085  -0.015095   0.097852   0.030639
     38       0.005467   0.002988   0.000245   0.007296  -0.047319   0.006758
     39       0.129774   0.283095   0.347205  -0.008261   0.012241  -0.021338
     40      -0.088506   0.464987   0.570240   0.006189  -0.007658  -0.034944
     41       0.043033   0.102782   0.125971  -0.002649   0.004191  -0.007720
                 30         31         32         33         34         35    
      0      -0.079215   0.105687   0.011002  -0.002627  -0.191614  -0.003702
      1       0.121235   0.002488  -0.124787  -0.203286   0.218870   0.005641
      2      -0.025104   0.035879   0.001908  -0.003851  -0.061802  -0.001175
      3       0.001804  -0.076930  -0.116350   0.127735   0.157913  -0.078547
      4       0.003011  -0.126358   0.079382   0.209605  -0.107470   0.053527
      5       0.000654  -0.027921  -0.038313   0.046366   0.052007  -0.025890
      6       0.051320  -0.134956   0.136421   0.149212   0.262520   0.005314
      7      -0.016723   0.075000   0.031478   0.144785  -0.089489  -0.002988
      8       0.017150  -0.044678   0.046720   0.052702   0.087715   0.001761
      9      -0.071188  -0.050308  -0.080439  -0.192445  -0.114303  -0.001773
     10      -0.116972  -0.082540   0.054660  -0.316332   0.077912   0.001205
     11      -0.025833  -0.018253  -0.026464  -0.069854  -0.037604  -0.000580
     12      -0.035563   0.120423   0.029355   0.062776   0.185499   0.004767
     13       0.042511  -0.099114  -0.144240   0.203949  -0.215779  -0.003882
     14      -0.011445   0.039394   0.007845   0.024249   0.059757   0.001563
     15       0.137035  -0.041614   0.111832  -0.173960  -0.267620  -0.006377
     16      -0.026129   0.102887   0.040931  -0.086710   0.093945   0.001234
     17       0.046096  -0.012629   0.038520  -0.060254  -0.089409  -0.002147
     18      -0.000673  -0.000370   0.026580   0.000931  -0.020768  -0.311919
     19      -0.001128  -0.000630  -0.018096   0.001600   0.014140   0.212347
     20      -0.000245  -0.000136   0.008755   0.000343  -0.006834  -0.102741
     21       0.224697   0.025004  -0.246852  -0.211787   0.087955  -0.002402
     22      -0.514253   0.210113   0.381766   0.214709  -0.380829  -0.001026
     23       0.068711   0.011528  -0.078122  -0.068715   0.024291  -0.000837
     24       0.255608   0.429546  -0.444455  -0.142691  -0.335748   0.001305
     25      -0.030295   0.058254   0.073939   0.182601  -0.064266  -0.003829
     26       0.086329   0.146515  -0.149663  -0.045696  -0.114794   0.000391
     27      -0.131694  -0.127624  -0.247204   0.216520  -0.083472   0.003842
     28       0.233605   0.438016   0.397234  -0.062535   0.349627   0.000321
     29      -0.041255  -0.036883  -0.077998   0.072570  -0.023178   0.001308
     30      -0.535561   0.170572  -0.430432   0.272913   0.364156  -0.000105
     31       0.003835   0.111027   0.079809  -0.115417   0.072595   0.002749
     32      -0.181539   0.059467  -0.144845   0.090877   0.124578   0.000004
     33      -0.004414   0.010684   0.001741  -0.007856  -0.001265   0.441041
     34      -0.007262   0.017559  -0.001210  -0.012912   0.000858  -0.300334
     35      -0.001603   0.003881   0.000579  -0.002855  -0.000422   0.145286
     36       0.003619  -0.010120   0.034507   0.009131  -0.028397  -0.581240
     37       0.005918  -0.016656  -0.023498   0.015096   0.019351   0.395957
     38       0.001310  -0.003679   0.011368   0.003325  -0.009347  -0.191484
     39       0.193991   0.315561  -0.097150   0.287670  -0.127961  -0.002942
     40       0.318548   0.518401   0.066418   0.472162   0.087087   0.002005
     41       0.070371   0.114534  -0.031984   0.104365  -0.042163  -0.000964
                 36         37         38         39         40         41    
      0      -0.011704   0.020806   0.031570   0.048327  -0.039061  -0.000023
      1      -0.007347   0.012727   0.018387   0.024266  -0.019687  -0.000505
      2      -0.004075   0.007241   0.010972   0.016740  -0.013531  -0.000015
      3      -0.000483  -0.000235   0.001410  -0.001694  -0.002143   0.000902
      4       0.000336  -0.000427  -0.001023  -0.002829   0.001370  -0.000615
      5      -0.000159  -0.000086   0.000463  -0.000616  -0.000707   0.000297
      6       0.001255  -0.002932  -0.004269  -0.000570  -0.001361  -0.000122
      7       0.043017  -0.055288  -0.023293   0.028517  -0.035807  -0.000019
      8       0.001051  -0.001798  -0.001786   0.000221  -0.000981  -0.000042
      9       0.041827   0.000689   0.048833  -0.002454   0.025986   0.000068
     10      -0.028449   0.003071  -0.033323  -0.001345  -0.017749  -0.000046
     11       0.013759   0.000278   0.016064  -0.000851   0.008548   0.000022
     12      -0.037878  -0.045896   0.018824   0.022643   0.030588  -0.000034
     13      -0.019748  -0.025474   0.013972   0.009993   0.016205   0.000126
     14      -0.013124  -0.015926   0.006584   0.007820   0.010604  -0.000010
     15       0.001537   0.002308  -0.002730   0.000963   0.000863   0.000425
     16       0.014551   0.024419  -0.036155   0.055882   0.048490   0.000231
     17       0.000730   0.001133  -0.001444   0.001128   0.000988   0.000147
     18       0.000083  -0.000030  -0.000084  -0.000034   0.000037   0.089454
     19      -0.000057  -0.000047   0.000056  -0.000058  -0.000027  -0.060936
     20       0.000028  -0.000011  -0.000027  -0.000013   0.000012   0.029467
     21       0.147848  -0.256102  -0.372276  -0.541911   0.433351   0.001293
     22       0.080325  -0.138904  -0.201136  -0.287589   0.229959   0.000889
     23       0.051297  -0.088860  -0.129156  -0.187938   0.150288   0.000452
     24      -0.022898   0.030179   0.016356  -0.012216   0.018117  -0.000101
     25      -0.509978   0.640088   0.262971  -0.311834   0.389435   0.000743
     26      -0.015178   0.019538   0.009369  -0.008676   0.011808  -0.000023
     27       0.445210   0.532453  -0.225117  -0.239303  -0.330566  -0.000680
     28       0.241619   0.290675  -0.127490  -0.127542  -0.180018  -0.000210
     29       0.154405   0.184692  -0.078152  -0.082963  -0.114660  -0.000233
     30      -0.008170  -0.013229   0.018363  -0.023235  -0.019866  -0.000231
     31      -0.178795  -0.293864   0.420631  -0.633635  -0.543625  -0.001614
     32      -0.005333  -0.008701   0.012259  -0.016968  -0.014533  -0.000102
     33      -0.000112   0.000029  -0.000083   0.000154   0.000128  -0.024182
     34       0.000076   0.000045   0.000062   0.000255  -0.000078   0.016465
     35      -0.000037   0.000010  -0.000027   0.000056   0.000042  -0.007965
     36       0.000432  -0.000005  -0.000622  -0.000114   0.002268  -0.791990
     37      -0.000293   0.000035   0.000421  -0.000102  -0.001549   0.539608
     38       0.000143  -0.000002  -0.000205  -0.000040   0.000748  -0.260892
     39      -0.497184   0.007711  -0.550481   0.014440  -0.282493  -0.000536
     40       0.338774  -0.009811   0.375230  -0.005808   0.192585   0.000365
     41      -0.163553   0.002471  -0.181093   0.004810  -0.092933  -0.000176


-----------
IR SPECTRUM
-----------

 Mode    freq (cm**-1)   T**2         TX         TY         TZ
-------------------------------------------------------------------
   6:       145.70    0.902309  ( -0.308101  -0.019268   0.898338)
   7:       158.70    0.586415  ( -0.389702  -0.642369  -0.148018)
   8:       377.16    0.968851  ( -0.317742  -0.013972   0.931502)
   9:       412.89    0.000005  (  0.001170   0.000615  -0.001685)
  10:       471.59    0.291425  ( -0.431402   0.293001  -0.139528)
  11:       531.29    0.743217  (  0.447610   0.722535   0.144241)
  12:       546.73   35.855639  ( -1.921312  -0.085264   5.670708)
  13:       577.43   14.020429  (  1.213098   0.065127  -3.541833)
  14:       625.99   42.409999  ( -3.326639  -5.462703  -1.225703)
  15:       636.27    1.333553  ( -0.590441  -0.968679  -0.215857)
  16:       705.55   18.922527  (  1.392373   0.058463  -4.120729)
  17:       775.96   41.421556  ( -2.103524  -0.056614   6.082231)
  18:       777.06    2.882405  (  1.278584  -0.917018   0.637735)
  19:       857.63    0.000027  (  0.004533   0.002349  -0.001073)
  20:       930.33    3.504598  (  0.600975   0.019120  -1.772868)
  21:       968.34    0.000028  (  0.003573  -0.003543   0.001685)
  22:       997.39    0.101970  (  0.106317   0.004740  -0.301072)
  23:      1015.60    0.057803  ( -0.191916   0.130426  -0.062930)
  24:      1055.39    2.700056  ( -1.310728   0.890724  -0.434348)
  25:      1108.80    3.432298  (  0.946463   1.554692   0.345601)
  26:      1192.89    0.001528  (  0.025044   0.029380   0.006116)
  27:      1209.25    0.013711  ( -0.093446   0.062406  -0.032931)
  28:      1230.97    1.640606  (  1.021162  -0.697217   0.334249)
  29:      1329.55    0.047052  (  0.108890   0.183218   0.040326)
  30:      1363.39    0.310399  ( -0.283585  -0.468710  -0.101435)
  31:      1488.41    4.525450  (  1.086241   1.785880   0.395177)
  32:      1538.51   14.604258  ( -3.047123   2.075993  -1.004766)
  33:      1627.35    1.177932  (  0.558237   0.908569   0.202004)
  34:      1658.12    1.927035  (  1.106803  -0.754717   0.363902)
  35:      2223.33    1.592502  (  1.006641  -0.685343   0.330880)
  36:      3183.78    0.331447  ( -0.483803   0.268076  -0.159741)
  37:      3192.93    7.307116  ( -1.396570  -2.258434  -0.506149)
  38:      3204.01   23.478107  (  3.901620  -2.570770   1.283204)
  39:      3212.77   24.539535  (  2.431582   4.224030   0.885729)
  40:      3216.47    4.749126  (  1.779995  -1.111106   0.588377)
  41:      3494.29   77.777083  ( -7.031074   4.793499  -2.315912)

The first frequency considered to be a vibration is 6
The total number of vibrations considered is 36


--------------------------
THERMOCHEMISTRY AT 298.15K
--------------------------

Temperature         ... 298.15 K
Pressure            ... 1.00 atm
Total Mass          ... 102.14 AMU

Throughout the following assumptions are being made:
  (1) The electronic state is orbitally nondegenerate
  (2) There are no thermally accessible electronically excited states
  (3) Hindered rotations indicated by low frequency modes are not
      treated as such but are treated as vibrations and this may
      cause some error
  (4) All equations used are the standard statistical mechanics
      equations for an ideal gas
  (5) All vibrations are strictly harmonic

freq.     145.70  E(vib)   ...       0.41 
freq.     158.70  E(vib)   ...       0.39 
freq.     377.16  E(vib)   ...       0.21 
freq.     412.89  E(vib)   ...       0.19 
freq.     471.59  E(vib)   ...       0.15 
freq.     531.29  E(vib)   ...       0.13 
freq.     546.73  E(vib)   ...       0.12 
freq.     577.43  E(vib)   ...       0.11 
freq.     625.99  E(vib)   ...       0.09 
freq.     636.27  E(vib)   ...       0.09 
freq.     705.55  E(vib)   ...       0.07 
freq.     775.96  E(vib)   ...       0.05 
freq.     777.06  E(vib)   ...       0.05 
freq.     857.63  E(vib)   ...       0.04 
freq.     930.33  E(vib)   ...       0.03 
freq.     968.34  E(vib)   ...       0.03 
freq.     997.39  E(vib)   ...       0.02 
freq.    1015.60  E(vib)   ...       0.02 
freq.    1055.39  E(vib)   ...       0.02 
freq.    1108.80  E(vib)   ...       0.02 
freq.    1192.89  E(vib)   ...       0.01 
freq.    1209.25  E(vib)   ...       0.01 
freq.    1230.97  E(vib)   ...       0.01 
freq.    1329.55  E(vib)   ...       0.01 
freq.    1363.39  E(vib)   ...       0.01 
freq.    1488.41  E(vib)   ...       0.00 
freq.    1538.51  E(vib)   ...       0.00 
freq.    1627.35  E(vib)   ...       0.00 
freq.    1658.12  E(vib)   ...       0.00 
freq.    2223.33  E(vib)   ...       0.00 
freq.    3183.78  E(vib)   ...       0.00 
freq.    3192.93  E(vib)   ...       0.00 
freq.    3204.01  E(vib)   ...       0.00 
freq.    3212.77  E(vib)   ...       0.00 
freq.    3216.47  E(vib)   ...       0.00 
freq.    3494.29  E(vib)   ...       0.00 

------------
INNER ENERGY
------------

The inner energy is: U= E(el) + E(ZPE) + E(vib) + E(rot) + E(trans)
    E(el)   - is the total energy from the electronic structure calculation
              = E(kin-el) + E(nuc-el) + E(el-el) + E(nuc-nuc)
    E(ZPE)  - the the zero temperature vibrational energy from the frequency calculation
    E(vib)  - the the finite temperature correction to E(ZPE) due to population
              of excited vibrational states
    E(rot)  - is the rotational thermal energy
    E(trans)- is the translational thermal energy

Summary of contributions to the inner energy U:
Electronic energy                ...   -308.18811340 Eh
Zero point energy                ...      0.10944730 Eh      68.68 kcal/mol
Thermal vibrational correction   ...      0.00365036 Eh       2.29 kcal/mol
Thermal rotational correction    ...      0.00141627 Eh       0.89 kcal/mol
Thermal translational correction ...      0.00141627 Eh       0.89 kcal/mol
-----------------------------------------------------------------------
Total thermal energy                   -308.07218320 Eh


Summary of corrections to the electronic energy:
(perhaps to be used in another calculation)
Total thermal correction                  0.00648290 Eh       4.07 kcal/mol
Non-thermal (ZPE) correction              0.10944730 Eh      68.68 kcal/mol
-----------------------------------------------------------------------
Total correction                          0.11593020 Eh      72.75 kcal/mol


--------
ENTHALPY
--------

The enthalpy is H = U + kB*T
                kB is Boltzmann's constant
Total free energy                 ...   -308.07218320 Eh 
Thermal Enthalpy correction       ...      0.00094421 Eh       0.59 kcal/mol
-----------------------------------------------------------------------
Total Enthalpy                    ...   -308.07123899 Eh


Note: Rotational entropy computed according to Herzberg 
Infrared and Raman Spectra, Chapter V,1, Van Nostrand Reinhold, 1945 
Point Group:  C1, Symmetry Number:   1  
Rotational constants in cm-1:     0.189028     0.050794     0.040036 

Vibrational entropy computed according to the QRRHO of S. Grimme
Chem.Eur.J. 2012 18 9955


-------
ENTROPY
-------

The entropy contributions are T*S = T*(S(el)+S(vib)+S(rot)+S(trans))
     S(el)   - electronic entropy
     S(vib)  - vibrational entropy
     S(rot)  - rotational entropy
     S(trans)- translational entropy
The entropies will be listed as mutliplied by the temperature to get
units of energy

Electronic entropy                ...      0.00000000 Eh      0.00 kcal/mol
Vibrational entropy               ...      0.00571342 Eh      3.59 kcal/mol
Rotational entropy                ...      0.01322325 Eh      8.30 kcal/mol
Translational entropy             ...      0.01890118 Eh     11.86 kcal/mol
-----------------------------------------------------------------------
Final entropy term                ...      0.03783784 Eh     23.74 kcal/mol


-------------------
GIBBS FREE ENTHALPY
-------------------

The Gibbs free enthalpy is G = H - T*S

Total enthalpy                    ...   -308.07123899 Eh 
Total entropy correction          ...     -0.03783784 Eh    -23.74 kcal/mol
-----------------------------------------------------------------------
Final Gibbs free enthalpy         ...   -308.10907683 Eh

For completeness - the Gibbs free enthalpy minus the electronic energy
G-E(el)                           ...      0.07903657 Eh     49.60 kcal/mol


Timings for individual modules:

Sum of individual times         ...      743.042 sec (=  12.384 min)
GTO integral calculation        ...        0.550 sec (=   0.009 min)   0.1 %
SCF iterations                  ...       35.591 sec (=   0.593 min)   4.8 %
Analytical frequency calculation...      706.900 sec (=  11.782 min)  95.1 %
                             ****ORCA TERMINATED NORMALLY****
TOTAL RUN TIME: 0 days 0 hours 12 minutes 24 seconds 961 msec
