
                                 *****************
                                 * O   R   C   A *
                                 *****************

           --- An Ab Initio, DFT and Semiempirical electronic structure package ---

                  #######################################################
                  #                        -***-                        #
                  #          Department of theory and spectroscopy      #
                  #               Directorship: Frank Neese             #
                  #        Max Planck Institute fuer Kohlenforschung    #
                  #                Kaiser Wilhelm Platz 1               #
                  #                 D-45470 Muelheim/Ruhr               #
                  #                      Germany                        #
                  #                                                     #
                  #                  All rights reserved                #
                  #                        -***-                        #
                  #######################################################


                         Program Version 4.1.0  - RELEASE  -


 With contributions from (in alphabetic order):
   Daniel Aravena         : Magnetic Properties
   Michael Atanasov       : Ab Initio Ligand Field Theory
   Alexander A. Auer      : GIAO ZORA
   Ute Becker             : Parallelization
   Giovanni Bistoni       : ED, Open-shell LED
   Martin Brehm           : Molecular dynamics
   Dmytro Bykov           : SCF Hessian
   Vijay G. Chilkuri      : MRCI spin determinant printing
   Dipayan Datta          : RHF DLPNO-CCSD density
   Achintya Kumar Dutta   : EOM-CC, STEOM-CC
   Dmitry Ganyushin       : Spin-Orbit,Spin-Spin,Magnetic field MRCI
   Miquel Garcia          : C-PCM Hessian
   Yang Guo               : DLPNO-NEVPT2, CIM, IAO-localization
   Andreas Hansen         : Spin unrestricted coupled pair/coupled cluster methods
   Benjamin Helmich-Paris : CASSCF linear response (MC-RPA)
   Lee Huntington         : MR-EOM, pCC
   Robert Izsak           : Overlap fitted RIJCOSX, COSX-SCS-MP3, EOM
   Christian Kollmar      : KDIIS, OOCD, Brueckner-CCSD(T), CCSD density
   Simone Kossmann        : Meta GGA functionals, TD-DFT gradient, OOMP2, MP2 Hessian
   Martin Krupicka        : AUTO-CI
   Lucas Lang             : DCDCAS
   Dagmar Lenk            : GEPOL surface, SMD
   Dimitrios Liakos       : Extrapolation schemes; parallel MDCI
   Dimitrios Manganas     : ROCIS; embedding schemes
   Dimitrios Pantazis     : SARC Basis sets
   Taras Petrenko         : DFT Hessian,TD-DFT gradient, ASA, ECA, R-Raman, ABS, FL, XAS/XES, NRVS
   Peter Pinski           : DLPNO-MP2, DLPNO-MP2 Gradient
   Christoph Reimann      : Effective Core Potentials
   Marius Retegan         : Local ZFS, SOC
   Christoph Riplinger    : Optimizer, TS searches, QM/MM, DLPNO-CCSD(T), (RO)-DLPNO pert. Triples
   Tobias Risthaus        : Range-separated hybrids, TD-DFT gradient, RPA, STAB
   Michael Roemelt        : Restricted open shell CIS
   Masaaki Saitow         : Open-shell DLPNO
   Barbara Sandhoefer     : DKH picture change effects
   Avijit Sen             : IP-ROCIS
   Kantharuban Sivalingam : CASSCF convergence, NEVPT2, FIC-MRCI
   Bernardo de Souza      : ESD, SOC TD-DFT
   Georgi Stoychev        : AutoAux, RI-MP2 NMR
   Willem Van den Heuvel  : Paramagnetic NMR
   Boris Wezisla          : Elementary symmetry handling
   Frank Wennmohs         : Technical directorship


 We gratefully acknowledge several colleagues who have allowed us to
 interface, adapt or use parts of their codes:
   Stefan Grimme, W. Hujo, H. Kruse,             : VdW corrections, initial TS optimization,
                  C. Bannwarth                     DFT functionals, gCP, sTDA/sTD-DF
   Ed Valeev                                     : LibInt (2-el integral package), F12 methods
   Garnet Chan, S. Sharma, J. Yang, R. Olivares  : DMRG
   Ulf Ekstrom                                   : XCFun DFT Library
   Mihaly Kallay                                 : mrcc  (arbitrary order and MRCC methods)
   Andreas Klamt, Michael Diedenhofen            : otool_cosmo (COSMO solvation model)
   Jiri Pittner, Ondrej Demel                    : Mk-CCSD
   Frank Weinhold                                : gennbo (NPA and NBO analysis)
   Christopher J. Cramer and Donald G. Truhlar   : smd solvation model
   Lars Goerigk                                  : TD-DFT with DH, B97 family of functionals
   V. Asgeirsson, H. Jonsson                     : NEB implementation
   FAccTs GmbH                                   : IRC, NEB, NEB-TS, Multilevel


 Your calculation uses the libint2 library for the computation of 2-el integrals
 For citations please refer to: http://libint.valeyev.net

 This ORCA versions uses:
   CBLAS   interface :  Fast vector & matrix operations
   LAPACKE interface :  Fast linear algebra routines
   SCALAPACK package :  Parallel linear algebra routines




***************************************
The coordinates will be read from file: /Users/lailaal-madhagi/Desktop/Testing_XAS_Analysis_code/Phenylacetylene/Phenylacetylene_geom.xyz
***************************************


----- Orbital basis set information -----
Your calculation utilizes the basis: 6-31G*
   H-He, Li-Ne : W. J. Hehre, R. Ditchfield and J.A. Pople, J. Chem. Phys. 56, 2257 (1972).
                 Note: He and Ne are unpublished basis sets taken from the Gaussian program.
                 Note: Li and B from J. D. Dill and J. A. Pople, J. Chem. Phys. 62, 2921 (1975).
   Na - Ar     : M. M. Francl, W. J. Pietro, W. J. Hehre, J. S. Binkley, M. S. Gordon, 
                 D. J. DeFrees and J. A. Pople, J. Chem. Phys. 77, 3654 (1982).
   K - Zn      : V. A. Rassolov, J. A. Pople, M. A. Ratner, and T. L. Windus, J. Chem. Phys. 109, 1223 (1998).

================================================================================
                                        WARNINGS
                       Please study these warnings very carefully!
================================================================================


WARNING: Geometry Optimization
  ===> : Switching off AutoStart
         For restart on a previous wavefunction, please use MOREAD

INFO   : the flag for use of LIBINT has been found!

================================================================================
                                       INPUT FILE
================================================================================
NAME = /Users/lailaal-madhagi/Desktop/Testing_XAS_Analysis_code/Phenylacetylene//Results_dir_Phenylacetylene_geom_element_C_2019-11-16_20-30-06//GTE1_Phenylacetylene_geom_2019-11-16_20-30-22//opt.inp
|  1> ! B3LYP 6-31G* TIGHTSCF Grid3 FinalGrid5 Opt 
|  2> !NormalPrint 
|  3> %output 
|  4> Print[P_Basis] 2 
|  5> Print[P_MOS] 1 
|  6> end 
|  7> *xyzfile 0 1 /Users/lailaal-madhagi/Desktop/Testing_XAS_Analysis_code/Phenylacetylene/Phenylacetylene_geom.xyz                           ****END OF INPUT****
================================================================================

                       *****************************
                       * Geometry Optimization Run *
                       *****************************

Geometry optimization settings:
Update method            Update   .... BFGS
Choice of coordinates    CoordSys .... Z-matrix Internals
Initial Hessian          InHess   .... Almoef's Model

Convergence Tolerances:
Energy Change            TolE     ....  5.0000e-06 Eh
Max. Gradient            TolMAXG  ....  3.0000e-04 Eh/bohr
RMS Gradient             TolRMSG  ....  1.0000e-04 Eh/bohr
Max. Displacement        TolMAXD  ....  4.0000e-03 bohr
RMS Displacement         TolRMSD  ....  2.0000e-03 bohr

------------------------------------------------------------------------------
                        ORCA OPTIMIZATION COORDINATE SETUP
------------------------------------------------------------------------------

The optimization will be done in new redundant internal coordinates
Making redundant internal coordinates   ...  (new redundants) done
Evaluating the initial hessian          ...  (Almloef) done
Evaluating the coordinates              ...  done
Calculating the B-matrix                .... done
Calculating the G-matrix                .... done
Diagonalizing the G-matrix              .... done
Small eigenvalue found = 2.990e-02
The first mode is                       ....   24
The number of degrees of freedom        ....   36

    -----------------------------------------------------------------
                    Redundant Internal Coordinates


    -----------------------------------------------------------------
         Definition                    Initial Value    Approx d2E/dq
    -----------------------------------------------------------------
      1. B(C   1,C   0)                  1.4025         0.596646   
      2. B(C   2,C   0)                  1.3988         0.604909   
      3. B(C   3,C   2)                  1.3984         0.605699   
      4. B(C   4,C   3)                  1.3984         0.605762   
      5. B(C   5,C   4)                  1.3991         0.604296   
      6. B(C   5,C   1)                  1.4009         0.600268   
      7. B(H   7,C   0)                  1.0835         0.368812   
      8. B(H   8,C   2)                  1.0822         0.370526   
      9. B(H   9,C   4)                  1.0825         0.370187   
     10. B(H  10,C   5)                  1.0834         0.368977   
     11. B(C  11,C   6)                  1.3436         0.740785   
     12. B(C  11,C   1)                  1.4392         0.521464   
     13. B(H  12,C   6)                  0.9940         0.512372   
     14. B(H  13,C   3)                  1.0823         0.370393   
     15. A(C   2,C   0,H   7)          119.4878         0.352865   
     16. A(C   1,C   0,H   7)          120.5070         0.352045   
     17. A(C   1,C   0,C   2)          120.0052         0.429178   
     18. A(C   0,C   1,C  11)          119.9425         0.417939   
     19. A(C   5,C   1,C  11)          120.2299         0.418389   
     20. A(C   0,C   1,C   5)          119.8276         0.428585   
     21. A(C   0,C   2,C   3)          120.0601         0.430339   
     22. A(C   3,C   2,H   8)          119.9788         0.353220   
     23. A(C   0,C   2,H   8)          119.9611         0.353142   
     24. A(C   2,C   3,C   4)          120.0152         0.430448   
     25. A(C   2,C   3,H  13)          119.9780         0.353199   
     26. A(C   4,C   3,H  13)          120.0068         0.353205   
     27. A(C   5,C   4,H   9)          119.9894         0.353027   
     28. A(C   3,C   4,H   9)          119.9465         0.353171   
     29. A(C   3,C   4,C   5)          120.0640         0.430269   
     30. A(C   4,C   5,H  10)          119.4761         0.352831   
     31. A(C   1,C   5,H  10)          120.4960         0.352432   
     32. A(C   1,C   5,C   4)          120.0279         0.429566   
     33. L(C  11,C   6,H  12,C   1, 2) 180.0192         0.386589   
     34. L(C  11,C   6,H  12,C   1, 1) 180.0001         0.386589   
     35. L(C   1,C  11,C   6,C   0, 2) 179.9960         0.434450   
     36. L(C   1,C  11,C   6,C   0, 1) 177.6928         0.434450   
     37. D(C  11,C   1,C   0,C   2)   -179.9971         0.024526   
     38. D(C  11,C   1,C   0,H   7)     -0.0172         0.024526   
     39. D(C   5,C   1,C   0,H   7)    179.9997         0.024526   
     40. D(C   5,C   1,C   0,C   2)      0.0198         0.024526   
     41. D(H   8,C   2,C   0,C   1)    179.9806         0.025248   
     42. D(C   3,C   2,C   0,C   1)     -0.0171         0.025248   
     43. D(C   3,C   2,C   0,H   7)   -179.9973         0.025248   
     44. D(H   8,C   2,C   0,H   7)      0.0005         0.025248   
     45. D(H  13,C   3,C   2,H   8)      0.0054         0.025318   
     46. D(H  13,C   3,C   2,C   0)   -179.9968         0.025318   
     47. D(C   4,C   3,C   2,H   8)   -179.9935         0.025318   
     48. D(C   4,C   3,C   2,C   0)      0.0042         0.025318   
     49. D(H   9,C   4,C   3,C   2)   -179.9968         0.025323   
     50. D(C   5,C   4,C   3,H  13)   -179.9930         0.025323   
     51. D(C   5,C   4,C   3,C   2)      0.0060         0.025323   
     52. D(H   9,C   4,C   3,H  13)      0.0042         0.025323   
     53. D(H  10,C   5,C   4,H   9)      0.0021         0.025194   
     54. D(C   1,C   5,C   4,H   9)    179.9996         0.025194   
     55. D(C   1,C   5,C   4,C   3)     -0.0033         0.025194   
     56. D(H  10,C   5,C   1,C  11)      0.0047         0.024841   
     57. D(H  10,C   5,C   1,C   0)    179.9878         0.024841   
     58. D(H  10,C   5,C   4,C   3)    179.9993         0.025194   
     59. D(C   4,C   5,C   1,C  11)   -179.9927         0.024841   
     60. D(C   4,C   5,C   1,C   0)     -0.0096         0.024841   
    -----------------------------------------------------------------

Number of atoms                         .... 14
Number of degrees of freedom            .... 60

         *************************************************************
         *                GEOMETRY OPTIMIZATION CYCLE   1            *
         *************************************************************
---------------------------------
CARTESIAN COORDINATES (ANGSTROEM)
---------------------------------
  C     -0.372360    0.757360   -0.246620
  C     -0.302830    2.157490   -0.202500
  C      0.738480   -0.010050    0.119130
  C      1.919230    0.617460    0.528670
  C      1.990500    2.013360    0.573030
  C      0.881130    2.783760    0.208050
  C     -2.541410    3.635820   -0.940380
  H     -1.282510    0.261530   -0.562430
  H      0.683940   -1.090370    0.085120
  H      2.905040    2.497930    0.890160
  H      0.946850    3.864470    0.245980
  C     -1.446590    2.945750   -0.579050
  H     -3.351330    4.146320   -1.207690
  H      2.777960    0.022380    0.811330

----------------------------
CARTESIAN COORDINATES (A.U.)
----------------------------
  NO LB      ZA    FRAG     MASS         X           Y           Z
   0 C     6.0000    0    12.011   -0.703658    1.431203   -0.466044
   1 C     6.0000    0    12.011   -0.572266    4.077065   -0.382670
   2 C     6.0000    0    12.011    1.395525   -0.018992    0.225123
   3 C     6.0000    0    12.011    3.626819    1.166830    0.999042
   4 C     6.0000    0    12.011    3.761500    3.804699    1.082870
   5 C     6.0000    0    12.011    1.665094    5.260544    0.393158
   6 C     6.0000    0    12.011   -4.802569    6.870704   -1.777061
   7 H     1.0000    0     1.008   -2.423593    0.494220   -1.062839
   8 H     1.0000    0     1.008    1.292459   -2.060501    0.160853
   9 H     1.0000    0     1.008    5.489730    4.720404    1.682159
  10 H     1.0000    0     1.008    1.789287    7.302790    0.464835
  11 C     6.0000    0    12.011   -2.733659    5.566661   -1.094246
  12 H     1.0000    0     1.008   -6.333096    7.835409   -2.282203
  13 H     1.0000    0     1.008    5.249584    0.042292    1.533192

--------------------------------
INTERNAL COORDINATES (ANGSTROEM)
--------------------------------
 C      0   0   0     0.000000000000     0.00000000     0.00000000
 C      1   0   0     1.402549468718     0.00000000     0.00000000
 C      1   2   0     1.398805446158   120.00516808     0.00000000
 C      3   1   2     1.398449989882   120.06009818     0.00000000
 C      4   3   1     1.398421979411   120.01518608     0.00000000
 C      5   4   3     1.399081254717   120.06403466     0.00000000
 C      2   1   3     2.782295257463   118.82848480   180.00408563
 H      1   2   3     1.083492670718   120.50704534   179.97990183
 H      3   1   2     1.082230379402   119.96107342   179.98061850
 H      5   4   3     1.082479992148   119.94654138   180.00315919
 H      6   5   4     1.083370623286   119.47609455   179.99931227
 C      7   2   1     1.343646830905     1.19323972   180.05253585
 H      7   2   1     0.993999644115   178.80687276     0.03338488
 H      4   3   1     1.082328090230   119.97799504   180.00318261

---------------------------
INTERNAL COORDINATES (A.U.)
---------------------------
 C      0   0   0     0.000000000000     0.00000000     0.00000000
 C      1   0   0     2.650434385153     0.00000000     0.00000000
 C      1   2   0     2.643359207875   120.00516808     0.00000000
 C      3   1   2     2.642687492861   120.06009818     0.00000000
 C      4   3   1     2.642634560743   120.01518608     0.00000000
 C      5   4   3     2.643880410518   120.06403466     0.00000000
 C      2   1   3     5.257776060313   118.82848480   180.00408563
 H      1   2   3     2.047504415768   120.50704534   179.97990183
 H      3   1   2     2.045119030879   119.96107342   179.98061850
 H      5   4   3     2.045590730608   119.94654138   180.00315919
 H      6   5   4     2.047273779547   119.47609455   179.99931227
 C      7   2   1     2.539124531121     1.19323972   180.05253585
 H      7   2   1     1.878387104592   178.80687276     0.03338488
 H      4   3   1     2.045303677584   119.97799504   180.00318261

---------------------
BASIS SET INFORMATION
---------------------
There are 2 groups of distinct atoms

 Group   1 Type C   : 10s4p1d contracted to 3s2p1d pattern {631/31/1}
 Group   2 Type H   : 4s contracted to 2s pattern {31}

Atom   0C    basis set group =>   1
Atom   1C    basis set group =>   1
Atom   2C    basis set group =>   1
Atom   3C    basis set group =>   1
Atom   4C    basis set group =>   1
Atom   5C    basis set group =>   1
Atom   6C    basis set group =>   1
Atom   7H    basis set group =>   2
Atom   8H    basis set group =>   2
Atom   9H    basis set group =>   2
Atom  10H    basis set group =>   2
Atom  11C    basis set group =>   1
Atom  12H    basis set group =>   2
Atom  13H    basis set group =>   2

-------------------------
BASIS SET IN INPUT FORMAT
-------------------------

 # Basis set for element : H 
 NewGTO H 
 S 3 
   1      18.7311370000      0.0334945995
   2       2.8253937000      0.2347269467
   3       0.6401217000      0.8137573184
 S 1 
   1       0.1612778000      1.0000000000
  end;

 # Basis set for element : C 
 NewGTO C 
 S 6 
   1    3047.5249000000      0.0018347002
   2     457.3695100000      0.0140373012
   3     103.9486900000      0.0688426061
   4      29.2101550000      0.2321844206
   5       9.2866630000      0.4679413416
   6       3.1639270000      0.3623120322
 S 3 
   1       7.8682724000     -0.1193324086
   2       1.8812885000     -0.1608542116
   3       0.5442493000      1.1434564826
 P 3 
   1       7.8682724000      0.0689990956
   2       1.8812885000      0.3164239798
   3       0.5442493000      0.7443082524
 S 1 
   1       0.1687144000      1.0000000000
 P 1 
   1       0.1687144000      1.0000000000
 D 1 
   1       0.8000000000      1.0000000000
  end;

------------------------------------------------------------------------------
                           ORCA GTO INTEGRAL CALCULATION
------------------------------------------------------------------------------

                         BASIS SET STATISTICS AND STARTUP INFO

 # of primitive gaussian shells          ...  144
 # of primitive gaussian functions       ...  240
 # of contracted shells                  ...   60
 # of contracted basis functions         ...  124
 Highest angular momentum                ...    2
 Maximum contraction depth               ...    6
 Integral package used                   ... LIBINT
 Integral threshhold            Thresh   ...  2.500e-11
 Primitive cut-off              TCut     ...  2.500e-12


------------------------------ INTEGRAL EVALUATION ----------------------------


 * One electron integrals 
 Pre-screening matrix                    ... done
 Shell pair data                         ... done (   0.002 sec)

-------------------------------------------------------------------------------
                                 ORCA SCF
-------------------------------------------------------------------------------

------------
SCF SETTINGS
------------
Hamiltonian:
 Density Functional     Method          .... DFT(GTOs)
 Exchange Functional    Exchange        .... B88
   X-Alpha parameter    XAlpha          ....  0.666667
   Becke's b parameter  XBeta           ....  0.004200
 Correlation Functional Correlation     .... LYP
 LDA part of GGA corr.  LDAOpt          .... VWN-5
 Gradients option       PostSCFGGA      .... off
 Hybrid DFT is turned on
   Fraction HF Exchange ScalHFX         ....  0.200000
   Scaling of DF-GGA-X  ScalDFX         ....  0.720000
   Scaling of DF-GGA-C  ScalDFC         ....  0.810000
   Scaling of DF-LDA-C  ScalLDAC        ....  1.000000
   Perturbative correction              ....  0.000000
   Density functional embedding theory  .... OFF
   NL short-range parameter             ....  4.800000


General Settings:
 Integral files         IntName         .... /Users/lailaal-madhagi/Desktop/Testing_XAS_Analysis_code/Phenylacetylene//Results_dir_Phenylacetylene_geom_element_C_2019-11-16_20-30-06//GTE1_Phenylacetylene_geom_2019-11-16_20-30-22//opt
 Hartree-Fock type      HFTyp           .... RHF
 Total Charge           Charge          ....    0
 Multiplicity           Mult            ....    1
 Number of Electrons    NEL             ....   54
 Basis Dimension        Dim             ....  124
 Nuclear Repulsion      ENuc            ....    295.7174611983 Eh

Convergence Acceleration:
 DIIS                   CNVDIIS         .... on
   Start iteration      DIISMaxIt       ....    12
   Startup error        DIISStart       ....  0.200000
   # of expansion vecs  DIISMaxEq       ....     5
   Bias factor          DIISBfac        ....   1.050
   Max. coefficient     DIISMaxC        ....  10.000
 Newton-Raphson         CNVNR           .... off
 SOSCF                  CNVSOSCF        .... on
   Start iteration      SOSCFMaxIt      ....   150
   Startup grad/error   SOSCFStart      ....  0.003300
 Level Shifting         CNVShift        .... on
   Level shift para.    LevelShift      ....    0.2500
   Turn off err/grad.   ShiftErr        ....    0.0010
 Zerner damping         CNVZerner       .... off
 Static damping         CNVDamp         .... on
   Fraction old density DampFac         ....    0.7000
   Max. Damping (<1)    DampMax         ....    0.9800
   Min. Damping (>=0)   DampMin         ....    0.0000
   Turn off err/grad.   DampErr         ....    0.1000
 Fernandez-Rico         CNVRico         .... off

SCF Procedure:
 Maximum # iterations   MaxIter         ....   125
 SCF integral mode      SCFMode         .... Direct
   Integral package                     .... LIBINT
 Reset frequency        DirectResetFreq ....    20
 Integral Threshold     Thresh          ....  2.500e-11 Eh
 Primitive CutOff       TCut            ....  2.500e-12 Eh

Convergence Tolerance:
 Convergence Check Mode ConvCheckMode   .... Total+1el-Energy
 Convergence forced     ConvForced      .... 0
 Energy Change          TolE            ....  1.000e-08 Eh
 1-El. energy change                    ....  1.000e-05 Eh
 Orbital Gradient       TolG            ....  1.000e-05
 Orbital Rotation angle TolX            ....  1.000e-05
 DIIS Error             TolErr          ....  5.000e-07


Diagonalization of the overlap matrix:
Smallest eigenvalue                        ... 4.869e-04
Time for diagonalization                   ...    0.002 sec
Threshold for overlap eigenvalues          ... 1.000e-08
Number of eigenvalues below threshold      ... 0
Time for construction of square roots      ...    0.001 sec
Total time needed                          ...    0.004 sec

-------------------
DFT GRID GENERATION
-------------------

General Integration Accuracy     IntAcc      ...  4.340
Radial Grid Type                 RadialGrid  ... Gauss-Chebyshev
Angular Grid (max. acc.)         AngularGrid ... Lebedev-194
Angular grid pruning method      GridPruning ... 3 (G Style)
Weight generation scheme         WeightScheme... Becke
Basis function cutoff            BFCut       ...    1.0000e-11
Integration weight cutoff        WCut        ...    1.0000e-14
Grids for H and He will be reduced by one unit

# of grid points (after initial pruning)     ...  35372 (   0.0 sec)
# of grid points (after weights+screening)   ...  32919 (   0.0 sec)
nearest neighbour list constructed           ...    0.0 sec
Grid point re-assignment to atoms done       ...    0.0 sec
Grid point division into batches done        ...    0.1 sec
Reduced shell lists constructed in    0.2 sec

Total number of grid points                  ...    32919
Total number of batches                      ...      519
Average number of points per batch           ...       63
Average number of grid points per atom       ...     2351
Average number of shells per batch           ...    40.92 (68.20%)
Average number of basis functions per batch  ...    86.55 (69.80%)
Average number of large shells per batch     ...    31.86 (77.86%)
Average number of large basis fcns per batch ...    67.83 (78.37%)
Maximum spatial batch extension              ...  20.16, 20.19, 21.44 au
Average spatial batch extension              ...   3.33,  3.23,  3.85 au

Time for grid setup =    0.278 sec

------------------------------
INITIAL GUESS: MODEL POTENTIAL
------------------------------
Loading Hartree-Fock densities                     ... done
Calculating cut-offs                               ... done
Setting up the integral package                    ... done
Initializing the effective Hamiltonian             ... done
Starting the Coulomb interaction                   ... done (   0.1 sec)
Reading the grid                                   ... done
Mapping shells                                     ... done
Starting the XC term evaluation                    ... done (   0.2 sec)
  promolecular density results
     # of electrons  =     53.997562614
     EX              =    -42.802202888
     EC              =     -1.780369987
     EX+EC           =    -44.582572875
Transforming the Hamiltonian                       ... done (   0.0 sec)
Diagonalizing the Hamiltonian                      ... done (   0.0 sec)
Back transforming the eigenvectors                 ... done (   0.0 sec)
Now organizing SCF variables                       ... done
                      ------------------
                      INITIAL GUESS DONE (   0.7 sec)
                      ------------------
--------------
SCF ITERATIONS
--------------
               ***  Starting incremental Fock matrix formation  ***

                         ----------------------------
                         !        ITERATION     0   !
                         ----------------------------
   Total Energy        :    -308.008277840619 Eh
   Energy Change       :    -308.008277840619 Eh
   MAX-DP              :       0.041326828456
   RMS-DP              :       0.002300969915
   Actual Damping      :       0.7000
   Actual Level Shift  :       0.2500 Eh
   Int. Num. El.       :    54.00017429 (UP=   27.00008714 DN=   27.00008714)
   Exchange            :   -34.98112762
   Correlation         :    -2.13218093


                         ----------------------------
                         !        ITERATION     1   !
                         ----------------------------
   Total Energy        :    -308.072083250700 Eh
   Energy Change       :      -0.063805410081 Eh
   MAX-DP              :       0.028733800731
   RMS-DP              :       0.001681290241
   Actual Damping      :       0.7000
   Actual Level Shift  :       0.2500 Eh
   Int. Num. El.       :    54.00020576 (UP=   27.00010288 DN=   27.00010288)
   Exchange            :   -34.79355875
   Correlation         :    -2.12350180

                               ***Turning on DIIS***

                         ----------------------------
                         !        ITERATION     2   !
                         ----------------------------
   Total Energy        :    -308.101994379772 Eh
   Energy Change       :      -0.029911129072 Eh
   MAX-DP              :       0.050312319938
   RMS-DP              :       0.002978119268
   Actual Damping      :       0.0000
   Actual Level Shift  :       0.2500 Eh
   Int. Num. El.       :    54.00023248 (UP=   27.00011624 DN=   27.00011624)
   Exchange            :   -34.65715787
   Correlation         :    -2.11701824
   DIIS-Error          :       0.028587721613


                         ----------------------------
                         !        ITERATION     3   !
                         ----------------------------
   Total Energy        :    -308.145526950956 Eh
   Energy Change       :      -0.043532571184 Eh
   MAX-DP              :       0.022773532097
   RMS-DP              :       0.001170400663
   Actual Damping      :       0.0000
   Actual Level Shift  :       0.2500 Eh
   Int. Num. El.       :    54.00028402 (UP=   27.00014201 DN=   27.00014201)
   Exchange            :   -34.42178394
   Correlation         :    -2.10563988
   DIIS-Error          :       0.037550910110
   DIIS coefficients:
      0.51192   0.48808


                         ----------------------------
                         !        ITERATION     4   !
                         ----------------------------
   Total Energy        :    -308.155306937378 Eh
   Energy Change       :      -0.009779986423 Eh
   MAX-DP              :       0.007151176989
   RMS-DP              :       0.000324343030
   Actual Damping      :       0.0000
   Actual Level Shift  :       0.2500 Eh
   Int. Num. El.       :    54.00026794 (UP=   27.00013397 DN=   27.00013397)
   Exchange            :   -34.50416955
   Correlation         :    -2.10998167
   DIIS-Error          :       0.007282960834
   DIIS coefficients:
      0.16970   0.02804   0.80227

                      *** Initiating the SOSCF procedure ***
                           *** Shutting down DIIS ***
                      *** Re-Reading the Fockian *** 
                      *** Removing any level shift *** 

                         ----------------------------
                         !        ITERATION     5   !
                         ----------------------------
   Total Energy        :    -308.155772691341 Eh
   Energy Change       :      -0.000465753963 Eh
   MAX-DP              :       0.002349685680
   RMS-DP              :       0.000101082565
   Orbital gradient    :       0.000710816658
   Orbital Rotation    :       0.000710816658
   Actual Damping      :       0.0000
   Int. Num. El.       :    54.00026288 (UP=   27.00013144 DN=   27.00013144)
   Exchange            :   -34.52473641
   Correlation         :    -2.11098557

               *** Restarting incremental Fock matrix formation ***

                         ----------------------------
                         !        ITERATION     6   !
                         ----------------------------
   Total Energy        :    -308.155791297167 Eh
   Energy Change       :      -0.000018605827 Eh
   MAX-DP              :       0.002967682536
   RMS-DP              :       0.000093349876
   Orbital gradient    :       0.000886717975
   Orbital Rotation    :       0.003240526287
   Actual Damping      :       0.0000
   Int. Num. El.       :    54.00026214 (UP=   27.00013107 DN=   27.00013107)
   Exchange            :   -34.52829688
   Correlation         :    -2.11114982


                         ----------------------------
                         !        ITERATION     7   !
                         ----------------------------
   Total Energy        :    -308.155751874881 Eh
   Energy Change       :       0.000039422286 Eh
   MAX-DP              :       0.002372380611
   RMS-DP              :       0.000062727943
   Orbital gradient    :       0.003009295973
   Orbital Rotation    :       0.002635790180
   Actual Damping      :       0.0000
   Int. Num. El.       :    54.00026092 (UP=   27.00013046 DN=   27.00013046)
   Exchange            :   -34.52964239
   Correlation         :    -2.11123016


                         ----------------------------
                         !        ITERATION     8   !
                         ----------------------------
   Total Energy        :    -308.155796890087 Eh
   Energy Change       :      -0.000045015206 Eh
   MAX-DP              :       0.000226953215
   RMS-DP              :       0.000007519658
   Orbital gradient    :       0.000040636921
   Orbital Rotation    :       0.000156197267
   Actual Damping      :       0.0000
   Int. Num. El.       :    54.00026179 (UP=   27.00013090 DN=   27.00013090)
   Exchange            :   -34.52916554
   Correlation         :    -2.11119400


                         ----------------------------
                         !        ITERATION     9   !
                         ----------------------------
   Total Energy        :    -308.155796864689 Eh
   Energy Change       :       0.000000025398 Eh
   MAX-DP              :       0.000124346010
   RMS-DP              :       0.000003953110
   Orbital gradient    :       0.000051783205
   Orbital Rotation    :       0.000096436479
   Actual Damping      :       0.0000
   Int. Num. El.       :    54.00026187 (UP=   27.00013094 DN=   27.00013094)
   Exchange            :   -34.52877681
   Correlation         :    -2.11117445


                         ----------------------------
                         !        ITERATION    10   !
                         ----------------------------
   Total Energy        :    -308.155796947140 Eh
   Energy Change       :      -0.000000082452 Eh
   MAX-DP              :       0.000045010577
   RMS-DP              :       0.000002003378
   Orbital gradient    :       0.000015863963
   Orbital Rotation    :       0.000046036199
   Actual Damping      :       0.0000
   Int. Num. El.       :    54.00026184 (UP=   27.00013092 DN=   27.00013092)
   Exchange            :   -34.52890372
   Correlation         :    -2.11118127


                         ----------------------------
                         !        ITERATION    11   !
                         ----------------------------
   Total Energy        :    -308.155796944662 Eh
   Energy Change       :       0.000000002479 Eh
   MAX-DP              :       0.000024816057
   RMS-DP              :       0.000001183737
   Orbital gradient    :       0.000016820423
   Orbital Rotation    :       0.000024666391
   Actual Damping      :       0.0000
   Int. Num. El.       :    54.00026182 (UP=   27.00013091 DN=   27.00013091)
   Exchange            :   -34.52901040
   Correlation         :    -2.11118678

                  ***Gradient check signals convergence***
              ***Rediagonalizing the Fockian in SOSCF/NRSCF***

               *****************************************************
               *                     SUCCESS                       *
               *           SCF CONVERGED AFTER  12 CYCLES          *
               *****************************************************

Setting up the final grid:

General Integration Accuracy     IntAcc      ...  5.010
Radial Grid Type                 RadialGrid  ... Gauss-Chebyshev
Angular Grid (max. acc.)         AngularGrid ... Lebedev-434
Angular grid pruning method      GridPruning ... 3 (G Style)
Weight generation scheme         WeightScheme... Becke
Basis function cutoff            BFCut       ...    1.0000e-11
Integration weight cutoff        WCut        ...    1.0000e-14
Grids for H and He will be reduced by one unit

# of grid points (after initial pruning)     ... 125736 (   0.1 sec)
# of grid points (after weights+screening)   ... 116139 (   0.2 sec)
nearest neighbour list constructed           ...    0.0 sec
Grid point re-assignment to atoms done       ...    0.0 sec
Grid point division into batches done        ...    0.8 sec
Reduced shell lists constructed in    1.5 sec

Total number of grid points                  ...   116139
Total number of batches                      ...     1823
Average number of points per batch           ...       63
Average number of grid points per atom       ...     8296
Average number of shells per batch           ...    37.68 (62.80%)
Average number of basis functions per batch  ...    79.46 (64.08%)
Average number of large shells per batch     ...    28.89 (76.68%)
Average number of large basis fcns per batch ...    61.27 (77.11%)
Maximum spatial batch extension              ...  18.79, 20.63, 23.52 au
Average spatial batch extension              ...   2.23,  2.16,  2.42 au

Final grid set up in    1.9 sec
Final integration                            ... done (   0.9 sec)
Change in XC energy                          ...    -0.000062787
Integrated number of electrons               ...    53.999998882
Previous integrated no of electrons          ...    54.000261834

----------------
TOTAL SCF ENERGY
----------------

Total Energy       :         -308.15585974 Eh           -8385.34725 eV

Components:
Nuclear Repulsion  :          295.71746120 Eh            8046.88121 eV
Electronic Energy  :         -603.87332094 Eh          -16432.22846 eV
One Electron Energy:         -999.72650138 Eh          -27203.94112 eV
Two Electron Energy:          395.85318045 Eh           10771.71266 eV

Virial components:
Potential Energy   :         -614.13547579 Eh          -16711.47589 eV
Kinetic Energy     :          305.97961606 Eh            8326.12865 eV
Virial Ratio       :            2.00711238


DFT components:
N(Alpha)           :       26.999999441174 electrons
N(Beta)            :       26.999999441174 electrons
N(Total)           :       53.999998882348 electrons
E(X)               :      -34.529010864979 Eh       
E(C)               :       -2.111187921677 Eh       
E(XC)              :      -36.640198786656 Eh       
DFET-embed. en.    :        0.000000000000 Eh       

---------------
SCF CONVERGENCE
---------------

  Last Energy change         ...   -6.5587e-09  Tolerance :   1.0000e-08
  Last MAX-Density change    ...    4.9968e-06  Tolerance :   1.0000e-07
  Last RMS-Density change    ...    2.0391e-07  Tolerance :   5.0000e-09
  Last Orbital Gradient      ...    1.6488e-06  Tolerance :   1.0000e-05
  Last Orbital Rotation      ...    3.1729e-06  Tolerance :   1.0000e-05

             **** THE GBW FILE WAS UPDATED (/Users/lailaal-madhagi/Desktop/Testing_XAS_Analysis_code/Phenylacetylene//Results_dir_Phenylacetylene_geom_element_C_2019-11-16_20-30-06//GTE1_Phenylacetylene_geom_2019-11-16_20-30-22//opt.gbw) ****
             **** DENSITY FILE WAS UPDATED (/Users/lailaal-madhagi/Desktop/Testing_XAS_Analysis_code/Phenylacetylene//Results_dir_Phenylacetylene_geom_element_C_2019-11-16_20-30-06//GTE1_Phenylacetylene_geom_2019-11-16_20-30-22//opt.scfp.tmp) ****
             **** ENERGY FILE WAS UPDATED (/Users/lailaal-madhagi/Desktop/Testing_XAS_Analysis_code/Phenylacetylene//Results_dir_Phenylacetylene_geom_element_C_2019-11-16_20-30-06//GTE1_Phenylacetylene_geom_2019-11-16_20-30-22//opt.en.tmp) ****
----------------
ORBITAL ENERGIES
----------------

  NO   OCC          E(Eh)            E(eV) 
   0   2.0000     -10.213583      -277.9257 
   1   2.0000     -10.209789      -277.8225 
   2   2.0000     -10.195714      -277.4395 
   3   2.0000     -10.190914      -277.3089 
   4   2.0000     -10.190764      -277.3048 
   5   2.0000     -10.188892      -277.2539 
   6   2.0000     -10.188402      -277.2405 
   7   2.0000     -10.188212      -277.2354 
   8   2.0000      -0.861223       -23.4351 
   9   2.0000      -0.774275       -21.0691 
  10   2.0000      -0.748738       -20.3742 
  11   2.0000      -0.701110       -19.0782 
  12   2.0000      -0.624431       -16.9916 
  13   2.0000      -0.609567       -16.5872 
  14   2.0000      -0.556734       -15.1495 
  15   2.0000      -0.515919       -14.0389 
  16   2.0000      -0.475624       -12.9424 
  17   2.0000      -0.454736       -12.3740 
  18   2.0000      -0.435461       -11.8495 
  19   2.0000      -0.424971       -11.5640 
  20   2.0000      -0.376809       -10.2535 
  21   2.0000      -0.357979        -9.7411 
  22   2.0000      -0.352678        -9.5969 
  23   2.0000      -0.294776        -8.0213 
  24   2.0000      -0.254182        -6.9166 
  25   2.0000      -0.249555        -6.7907 
  26   2.0000      -0.220695        -6.0054 
  27   0.0000      -0.035297        -0.9605 
  28   0.0000      -0.004812        -0.1310 
  29   0.0000       0.024057         0.6546 
  30   0.0000       0.073720         2.0060 
  31   0.0000       0.091603         2.4926 
  32   0.0000       0.133918         3.6441 
  33   0.0000       0.142736         3.8840 
  34   0.0000       0.156464         4.2576 
  35   0.0000       0.175430         4.7737 
  36   0.0000       0.183882         5.0037 
  37   0.0000       0.191540         5.2121 
  38   0.0000       0.239773         6.5246 
  39   0.0000       0.301078         8.1928 
  40   0.0000       0.302029         8.2186 
  41   0.0000       0.316611         8.6154 
  42   0.0000       0.344022         9.3613 
  43   0.0000       0.439279        11.9534 
  44   0.0000       0.467365        12.7176 
  45   0.0000       0.514994        14.0137 
  46   0.0000       0.515322        14.0226 
  47   0.0000       0.539469        14.6797 
  48   0.0000       0.546742        14.8776 
  49   0.0000       0.557556        15.1719 
  50   0.0000       0.569073        15.4853 
  51   0.0000       0.586735        15.9659 
  52   0.0000       0.593024        16.1370 
  53   0.0000       0.595723        16.2104 
  54   0.0000       0.605457        16.4753 
  55   0.0000       0.619267        16.8511 
  56   0.0000       0.620791        16.8926 
  57   0.0000       0.660260        17.9666 
  58   0.0000       0.669748        18.2248 
  59   0.0000       0.670818        18.2539 
  60   0.0000       0.750772        20.4295 
  61   0.0000       0.753326        20.4990 
  62   0.0000       0.778065        21.1722 
  63   0.0000       0.799685        21.7605 
  64   0.0000       0.819399        22.2970 
  65   0.0000       0.836595        22.7649 
  66   0.0000       0.839755        22.8509 
  67   0.0000       0.868719        23.6390 
  68   0.0000       0.872832        23.7510 
  69   0.0000       0.910666        24.7805 
  70   0.0000       0.925440        25.1825 
  71   0.0000       0.948495        25.8099 
  72   0.0000       1.005038        27.3485 
  73   0.0000       1.063107        28.9286 
  74   0.0000       1.083591        29.4860 
  75   0.0000       1.119669        30.4677 
  76   0.0000       1.129653        30.7394 
  77   0.0000       1.187080        32.3021 
  78   0.0000       1.197272        32.5794 
  79   0.0000       1.246801        33.9272 
  80   0.0000       1.295619        35.2556 
  81   0.0000       1.304508        35.4975 
  82   0.0000       1.418492        38.5991 
  83   0.0000       1.429647        38.9027 
  84   0.0000       1.439362        39.1670 
  85   0.0000       1.464235        39.8439 
  86   0.0000       1.487383        40.4737 
  87   0.0000       1.505302        40.9614 
  88   0.0000       1.558194        42.4006 
  89   0.0000       1.599841        43.5339 
  90   0.0000       1.617631        44.0180 
  91   0.0000       1.688167        45.9374 
  92   0.0000       1.743278        47.4370 
  93   0.0000       1.797300        48.9070 
  94   0.0000       1.811122        49.2831 
  95   0.0000       1.875817        51.0436 
  96   0.0000       1.895920        51.5906 
  97   0.0000       1.903796        51.8049 
  98   0.0000       1.940408        52.8012 
  99   0.0000       1.971441        53.6456 
 100   0.0000       2.033175        55.3255 
 101   0.0000       2.051861        55.8340 
 102   0.0000       2.094664        56.9987 
 103   0.0000       2.140257        58.2394 
 104   0.0000       2.146578        58.4114 
 105   0.0000       2.153595        58.6023 
 106   0.0000       2.180721        59.3404 
 107   0.0000       2.267073        61.6902 
 108   0.0000       2.298463        62.5444 
 109   0.0000       2.303240        62.6744 
 110   0.0000       2.382983        64.8443 
 111   0.0000       2.429450        66.1087 
 112   0.0000       2.560382        69.6715 
 113   0.0000       2.578508        70.1648 
 114   0.0000       2.633036        71.6485 
 115   0.0000       2.644865        71.9704 
 116   0.0000       2.705858        73.6301 
 117   0.0000       2.726315        74.1868 
 118   0.0000       2.728847        74.2557 
 119   0.0000       2.784333        75.7655 
 120   0.0000       2.834866        77.1406 
 121   0.0000       3.104811        84.4862 
 122   0.0000       3.254238        88.5523 
 123   0.0000       3.457911        94.0945 
------------------
MOLECULAR ORBITALS
------------------
                      0         1         2         3         4         5   
                 -10.21358 -10.20979 -10.19571 -10.19091 -10.19076 -10.18889
                   2.00000   2.00000   2.00000   2.00000   2.00000   2.00000
                  --------  --------  --------  --------  --------  --------
  0C   1s         0.009038  0.000513  0.000173  0.991264 -0.018931 -0.035823
  0C   2s        -0.001447  0.000026  0.000014  0.036342 -0.000769 -0.002124
  0C   1pz       -0.000039 -0.000083 -0.000014  0.000231  0.000039 -0.000211
  0C   1px       -0.000059 -0.000258 -0.000041  0.000657  0.000109 -0.000633
  0C   1py       -0.001280  0.000315  0.000025  0.000551  0.000181  0.000230
  0C   3s         0.008929  0.005815  0.000544 -0.033389  0.006856  0.001658
  0C   2pz        0.000351  0.001691  0.000175 -0.002368  0.001267  0.000018
  0C   2px        0.000881  0.005044  0.000508 -0.006791  0.003659  0.000085
  0C   2py        0.003570 -0.001406  0.000206 -0.004296  0.001756 -0.000767
  0C   1dz2       0.000662  0.000046 -0.000010 -0.000459  0.000038  0.000157
  0C   1dxz      -0.000021 -0.000004  0.000001  0.000174 -0.000029 -0.000154
  0C   1dyz      -0.000073 -0.000072 -0.000016 -0.000084  0.000042  0.000110
  0C   1dx2y2     0.001097  0.000078 -0.000014 -0.000327 -0.000017 -0.000146
  0C   1dxy      -0.000117 -0.000205 -0.000049 -0.000297  0.000126  0.000333
  1C   1s         0.994514  0.032236 -0.000379 -0.008929  0.009340  0.000907
  1C   2s         0.036745  0.002632  0.000349 -0.002148  0.002226  0.000009
  1C   1pz       -0.000063 -0.000430 -0.000109  0.000014  0.000431 -0.000077
  1C   1px       -0.000189 -0.001304 -0.000331 -0.000021  0.001251 -0.000236
  1C   1py        0.000137  0.000870  0.000230  0.001431  0.000490  0.000181
  1C   3s        -0.032560 -0.000609  0.003376  0.009622 -0.009575 -0.005023
  1C   2pz        0.000103 -0.001304 -0.000578  0.002171 -0.003487  0.001436
  1C   2px        0.000304 -0.003991 -0.001766  0.006767 -0.010450  0.004376
  1C   2py       -0.000192  0.003412  0.001431 -0.008491  0.003864 -0.003300
  1C   1dz2      -0.000635 -0.000854 -0.000140  0.000675 -0.000542 -0.000083
  1C   1dxz       0.000384  0.000756  0.000127 -0.000027  0.000580  0.000024
  1C   1dyz       0.000052 -0.000502 -0.000111 -0.000069  0.000292  0.000066
  1C   1dx2y2    -0.000101  0.000567  0.000104  0.001104  0.000534 -0.000089
  1C   1dxy       0.000096 -0.001529 -0.000334 -0.000105  0.000835  0.000185
  2C   1s         0.000079  0.000122  0.000002  0.084907  0.000593  0.346400
  2C   2s        -0.000059  0.000365  0.000000  0.001034  0.000567  0.011055
  2C   1pz        0.000026  0.000018  0.000004  0.000322  0.000011 -0.000353
  2C   1px        0.000081  0.000059  0.000012  0.000977  0.000027 -0.001031
  2C   1py       -0.000132 -0.000102 -0.000006 -0.000649  0.000140 -0.000235
  2C   3s        -0.002419 -0.006906 -0.000444  0.011268 -0.005410 -0.002231
  2C   2pz       -0.000132  0.000568  0.000003 -0.000514 -0.000056  0.000674
  2C   2px       -0.000325  0.001794  0.000018 -0.001762 -0.000025  0.001940
  2C   2py       -0.001505 -0.002792 -0.000217  0.005787 -0.003315  0.001078
  2C   1dz2      -0.000041  0.000084  0.000001  0.000453  0.000053  0.000199
  2C   1dxz       0.000030 -0.000079 -0.000007 -0.000453 -0.000034 -0.000310
  2C   1dyz       0.000019  0.000025  0.000002  0.000314 -0.000004 -0.000260
  2C   1dx2y2     0.000004 -0.000064 -0.000017 -0.000442  0.000003 -0.000428
  2C   1dxy       0.000054  0.000079  0.000004  0.000947 -0.000007 -0.000765
  3C   1s        -0.000306 -0.000123 -0.000016  0.008016 -0.009755  0.846118
  3C   2s        -0.000402 -0.000236 -0.000037  0.000200 -0.000247  0.029510
  3C   1pz        0.000030  0.000018  0.000002  0.000103 -0.000013 -0.000076
  3C   1px        0.000090  0.000055  0.000005  0.000299 -0.000052 -0.000229
  3C   1py       -0.000063 -0.000048 -0.000005  0.000090  0.000327  0.000107
  3C   3s         0.002832  0.002388  0.000311 -0.005135  0.005264 -0.017971
  3C   2pz       -0.000495 -0.000708 -0.000066  0.000727 -0.000751  0.000503
  3C   2px       -0.001502 -0.002151 -0.000200  0.002211 -0.002280  0.001523
  3C   2py        0.001041  0.001464  0.000124 -0.001531  0.001549 -0.000925
  3C   1dz2      -0.000058 -0.000037 -0.000010 -0.000001 -0.000030 -0.000035
  3C   1dxz       0.000035  0.000020  0.000006 -0.000046 -0.000040  0.000051
  3C   1dyz       0.000003  0.000011  0.000002 -0.000032 -0.000002 -0.000034
  3C   1dx2y2    -0.000008 -0.000014 -0.000002 -0.000116 -0.000157  0.000078
  3C   1dxy       0.000005  0.000029  0.000004 -0.000099 -0.000013 -0.000099
  4C   1s         0.000080  0.000111  0.000010 -0.003997 -0.092326  0.388634
  4C   2s        -0.000061  0.000337 -0.000000 -0.000610 -0.001300  0.012624
  4C   1pz        0.000049  0.000036  0.000002  0.000028 -0.000311 -0.000069
  4C   1px        0.000146  0.000106  0.000006  0.000078 -0.000948 -0.000250
  4C   1py       -0.000026  0.000000 -0.000004  0.000101  0.000688  0.001068
  4C   3s        -0.002398 -0.006663 -0.000372  0.004952 -0.011164 -0.003538
  4C   2pz        0.000407  0.000995  0.000054 -0.000911  0.001948 -0.000001
  4C   2px        0.001160  0.002965  0.000156 -0.002629  0.005719  0.000090
  4C   2py        0.000917 -0.000705  0.000037 -0.001320  0.000612 -0.002205
  4C   1dz2      -0.000047  0.000084  0.000003 -0.000072 -0.000464  0.000305
  4C   1dxz       0.000013 -0.000052  0.000002  0.000046  0.000406  0.000133
  4C   1dyz       0.000012  0.000032  0.000005 -0.000009 -0.000332 -0.000090
  4C   1dx2y2    -0.000049  0.000006  0.000010 -0.000004  0.000305  0.000884
  4C   1dxy       0.000030  0.000100  0.000015 -0.000033 -0.001006 -0.000206
  5C   1s         0.009109  0.000516  0.000119 -0.018651 -0.990582 -0.043723
  5C   2s        -0.001456  0.000068  0.000000 -0.000621 -0.036312 -0.002496
  5C   1pz        0.000380 -0.000116 -0.000011  0.000042  0.000091 -0.000163
  5C   1px        0.001097 -0.000348 -0.000034  0.000116  0.000233 -0.000505
  5C   1py        0.000574  0.000114  0.000016  0.000211  0.000841  0.000559
  5C   3s         0.008918  0.004948  0.000388 -0.005389  0.033368  0.002562
  5C   2pz       -0.000967  0.001111  0.000015  0.000045 -0.000455  0.000236
  5C   2px       -0.002752  0.003449  0.000062 -0.000029 -0.000983  0.000696
  5C   2py       -0.002263 -0.004073 -0.000446  0.003848 -0.008399 -0.000022
  5C   1dz2       0.000502  0.000059 -0.000009 -0.000022  0.000392  0.000183
  5C   1dxz      -0.000562 -0.000008  0.000022  0.000036 -0.000402 -0.000165
  5C   1dyz      -0.000292 -0.000065 -0.000006 -0.000035 -0.000009  0.000127
  5C   1dx2y2    -0.000557  0.000091  0.000041  0.000060 -0.000370 -0.000131
  5C   1dxy      -0.000839 -0.000184 -0.000018 -0.000102 -0.000009  0.000386
  6C   1s         0.001148 -0.023890  0.994711 -0.000180  0.000139  0.000004
  6C   2s         0.000582  0.002170  0.033822 -0.000024  0.000057 -0.000091
  6C   1pz        0.000107  0.000659  0.000113  0.000013 -0.000021  0.000014
  6C   1px        0.000323  0.001995  0.000339  0.000041 -0.000064  0.000041
  6C   1py       -0.000187 -0.001249 -0.000179 -0.000047  0.000019 -0.000026
  6C   3s         0.001118 -0.008480 -0.024599  0.003404 -0.004106  0.004392
  6C   2pz       -0.000152 -0.001646 -0.001818  0.000576 -0.000713  0.000803
  6C   2px       -0.000464 -0.004990 -0.005508  0.001742 -0.002162  0.002431
  6C   2py        0.000352  0.003230  0.003444 -0.001018  0.001358 -0.001498
  6C   1dz2      -0.000120 -0.000728 -0.000942  0.000003  0.000004 -0.000006
  6C   1dxz       0.000125  0.000719  0.000914  0.000005 -0.000006  0.000007
  6C   1dyz      -0.000066 -0.000444 -0.000576 -0.000001  0.000006 -0.000003
  6C   1dx2y2     0.000128  0.000679  0.000835  0.000019 -0.000008  0.000009
  6C   1dxy      -0.000200 -0.001343 -0.001747 -0.000001  0.000018 -0.000008
  7H   1s        -0.000264  0.000462  0.000029 -0.001391  0.000132 -0.000058
  7H   2s         0.000106  0.000715  0.000255  0.002219  0.000917 -0.000239
  8H   1s        -0.000056  0.000043 -0.000006 -0.000238 -0.000084 -0.000617
  8H   2s        -0.000223 -0.000462 -0.000041  0.001477 -0.000862  0.001695
  9H   1s        -0.000055  0.000052 -0.000005  0.000093  0.000247 -0.000673
  9H   2s        -0.000219 -0.000407 -0.000025  0.000803 -0.001506  0.001804
 10H   1s        -0.000265  0.000458  0.000030 -0.000077  0.001395 -0.000056
 10H   2s         0.000100  0.000705  0.000185 -0.000982 -0.002173 -0.000249
 11C   1s         0.032383 -0.994149 -0.024095  0.000201 -0.000201 -0.000071
 11C   2s        -0.000527 -0.034109 -0.003868 -0.000335  0.000334 -0.000110
 11C   1pz       -0.000274 -0.000058  0.000658 -0.000038  0.000067 -0.000022
 11C   1px       -0.000834 -0.000181  0.001993 -0.000119  0.000200 -0.000067
 11C   1py        0.000582  0.000223 -0.001249  0.000154 -0.000056  0.000039
 11C   3s         0.007332  0.017095  0.010574  0.003000 -0.002884  0.001765
 11C   2pz        0.001287 -0.001612 -0.002750  0.001667 -0.001878  0.001918
 11C   2px        0.003912 -0.004872 -0.008334  0.005050 -0.005703  0.005817
 11C   2py       -0.002707  0.002854  0.005308 -0.003194  0.003906 -0.003803
 11C   1dz2       0.000728  0.000983  0.000736 -0.000093  0.000098 -0.000026
 11C   1dxz      -0.000616 -0.000961 -0.000709  0.000064 -0.000048  0.000024
 11C   1dyz       0.000349  0.000678  0.000455  0.000008 -0.000003 -0.000022
 11C   1dx2y2    -0.000398 -0.000903 -0.000640  0.000005  0.000044  0.000021
 11C   1dxy       0.001075  0.002047  0.001378  0.000017  0.000001 -0.000066
 12H   1s        -0.000221 -0.000634 -0.003260  0.000050 -0.000067  0.000085
 12H   2s        -0.000501 -0.001658  0.002587  0.000595 -0.000788  0.000918
 13H   1s         0.000053  0.000182  0.000010 -0.000091  0.000098 -0.001260
 13H   2s         0.000560  0.000757  0.000074 -0.000417  0.000423  0.003166
                      6         7         8         9        10        11   
                 -10.18840 -10.18821  -0.86122  -0.77427  -0.74874  -0.70111
                   2.00000   2.00000   2.00000   2.00000   2.00000   2.00000
                  --------  --------  --------  --------  --------  --------
  0C   1s        -0.056337 -0.053345  0.094672 -0.029142  0.113706  0.050654
  0C   2s        -0.003052 -0.003681 -0.180504  0.057116 -0.222548 -0.098993
  0C   1pz       -0.000216 -0.000241 -0.015560 -0.014688 -0.012732 -0.002800
  0C   1px       -0.000658 -0.000729 -0.044175 -0.046913 -0.039150 -0.007129
  0C   1py        0.000472  0.000410 -0.038643  0.084069  0.039016 -0.025846
  0C   3s         0.006732  0.016327 -0.104898  0.045433 -0.167619 -0.079185
  0C   2pz        0.000542  0.002413  0.000954 -0.002861  0.001613  0.000632
  0C   2px        0.001606  0.007029  0.002825 -0.009020  0.004295  0.001921
  0C   2py       -0.000215  0.001946 -0.000369  0.012823  0.009879 -0.000855
  0C   1dz2       0.000382  0.000359  0.007868 -0.002693  0.006990  0.003019
  0C   1dxz      -0.000307 -0.000289 -0.004551 -0.000874 -0.005557 -0.001314
  0C   1dyz       0.000221  0.000227 -0.000220  0.001185  0.000950 -0.001291
  0C   1dx2y2    -0.000171 -0.000165  0.001757 -0.007087 -0.002542  0.001969
  0C   1dxy       0.000676  0.000693  0.000079  0.002996  0.003289 -0.003476
  1C   1s        -0.000119  0.000704  0.112332 -0.117624 -0.000113  0.034720
  1C   2s        -0.000106  0.000654 -0.218729  0.233400  0.000205 -0.065672
  1C   1pz       -0.000007 -0.000017 -0.010728 -0.014479  0.023297 -0.026942
  1C   1px       -0.000020 -0.000052 -0.032626 -0.043961  0.064271 -0.081848
  1C   1py       -0.000023  0.000043  0.022368  0.030316  0.102861  0.055737
  1C   3s         0.001753 -0.012737 -0.102348  0.164490  0.000116 -0.106169
  1C   2pz        0.000499 -0.000968 -0.011193 -0.006562  0.003324  0.001902
  1C   2px        0.001418 -0.002954 -0.034125 -0.019892  0.009209  0.005857
  1C   2py        0.001250  0.002210  0.025206  0.014268  0.015080 -0.006349
  1C   1dz2       0.000002 -0.000015  0.008093 -0.006739  0.000820  0.001832
  1C   1dxz       0.000004 -0.000007 -0.004916  0.004417  0.002724 -0.000217
  1C   1dyz      -0.000004  0.000042 -0.000526 -0.000258  0.001116 -0.002116
  1C   1dx2y2     0.000015 -0.000051  0.001226 -0.000086  0.008359  0.002892
  1C   1dxy      -0.000012  0.000120 -0.000821 -0.001332  0.003673 -0.005972
  2C   1s         0.628495  0.684190  0.084065  0.075196  0.111122 -0.015650
  2C   2s         0.022933  0.026367 -0.159580 -0.145272 -0.217260  0.032002
  2C   1pz        0.000006  0.000172 -0.000377 -0.021732  0.017663  0.024485
  2C   1px       -0.000009  0.000469  0.001310 -0.063185  0.053046  0.072638
  2C   1py        0.000661  0.000886 -0.056441 -0.020797 -0.022364 -0.010376
  2C   3s        -0.015728 -0.033186 -0.103148 -0.106218 -0.161820  0.026557
  2C   2pz        0.000026 -0.000682  0.000037 -0.003225  0.003605  0.004348
  2C   2px        0.000165 -0.001581  0.000372 -0.009520  0.010252  0.013080
  2C   2py       -0.002099 -0.010102 -0.007207  0.000123  0.007595 -0.006706
  2C   1dz2      -0.000258 -0.000595  0.006938  0.005054  0.007122 -0.000676
  2C   1dxz       0.000241  0.000640 -0.004260 -0.003533 -0.004348  0.000953
  2C   1dyz      -0.000032  0.000114 -0.000033 -0.002127  0.001469  0.001860
  2C   1dx2y2     0.000187  0.000624  0.000875 -0.000189  0.000753  0.001058
  2C   1dxy      -0.000110  0.000309  0.000513 -0.005856  0.004944  0.005465
  3C   1s         0.093299 -0.515303  0.081529  0.117191  0.000148 -0.069810
  3C   2s         0.003702 -0.021410 -0.154457 -0.227260 -0.000288  0.139011
  3C   1pz        0.000242  0.000364  0.014306  0.009434  0.020998  0.002330
  3C   1px        0.000656  0.001097  0.043460  0.028642  0.057910  0.007034
  3C   1py        0.001370 -0.000518 -0.030110 -0.019694  0.093585 -0.003649
  3C   3s        -0.004952  0.033432 -0.096148 -0.161651 -0.000255  0.109916
  3C   2pz       -0.000237 -0.003010  0.001593 -0.000934  0.003615  0.003672
  3C   2px       -0.000540 -0.009121  0.004882 -0.002790  0.010019  0.011127
  3C   2py       -0.003691  0.005790 -0.003467  0.001790  0.016132 -0.007527
  3C   1dz2      -0.000233  0.000914  0.006738  0.008010 -0.000838 -0.003818
  3C   1dxz      -0.000309 -0.000496 -0.004224 -0.004915 -0.002852  0.002350
  3C   1dyz      -0.000108 -0.000352 -0.000109 -0.000393 -0.001158  0.000090
  3C   1dx2y2    -0.001192  0.000336  0.000634  0.001075 -0.008717 -0.000479
  3C   1dxy      -0.000381 -0.000949  0.000263 -0.000454 -0.003803 -0.000070
  4C   1s        -0.760469  0.502432  0.084070  0.074981 -0.110962 -0.017249
  4C   2s        -0.028223  0.019682 -0.159691 -0.144895  0.216950  0.035350
  4C   1pz        0.000245 -0.000151  0.017084 -0.001473 -0.013194  0.011918
  4C   1px        0.000700 -0.000415  0.049461 -0.007324 -0.040722  0.037965
  4C   1py        0.000517 -0.000708  0.021316  0.069669  0.042677 -0.066013
  4C   3s         0.023640 -0.028114 -0.102543 -0.105756  0.161552  0.027454
  4C   2pz       -0.001379  0.002584  0.002045 -0.001244  0.001038  0.004069
  4C   2px       -0.003971  0.007398  0.005949 -0.004013  0.002438  0.012412
  4C   2py       -0.002246  0.005201  0.002328  0.008922  0.012951 -0.009911
  4C   1dz2       0.000484 -0.000631  0.006872  0.005576 -0.006764 -0.001312
  4C   1dxz      -0.000183  0.000141 -0.004441 -0.001702  0.005522 -0.000946
  4C   1dyz       0.000083 -0.000052 -0.000112 -0.001394 -0.000997  0.001085
  4C   1dx2y2     0.000346 -0.000715  0.000302  0.005378  0.002860 -0.004878
  4C   1dxy       0.000297 -0.000233  0.000257 -0.003438 -0.003397  0.002904
  5C   1s         0.071475 -0.040490  0.094869 -0.029370 -0.113950  0.050196
  5C   2s         0.003961 -0.002912 -0.180717  0.057594  0.222943 -0.098243
  5C   1pz        0.000259 -0.000150  0.006295 -0.030863  0.016341  0.007435
  5C   1px        0.000786 -0.000461  0.016043 -0.091510  0.049176  0.021199
  5C   1py       -0.000545  0.000418  0.058296  0.011759 -0.022395  0.016715
  5C   3s        -0.010781  0.014312 -0.107213  0.045130  0.168159 -0.074791
  5C   2pz       -0.000302  0.000183  0.000621 -0.004775  0.002443  0.000573
  5C   2px       -0.001036  0.000841  0.001963 -0.014283  0.006799  0.001843
  5C   2py        0.003401 -0.007029 -0.002009  0.003798  0.007999 -0.003047
  5C   1dz2      -0.000438  0.000238  0.007739 -0.001780 -0.007323  0.002939
  5C   1dxz       0.000420 -0.000241 -0.005088  0.002163  0.004516 -0.001340
  5C   1dyz      -0.000241  0.000147 -0.000424  0.002410 -0.001364 -0.001354
  5C   1dx2y2     0.000373 -0.000238  0.000152  0.002226 -0.000667  0.001768
  5C   1dxy      -0.000732  0.000445 -0.000595  0.007041 -0.004653 -0.003681
  6C   1s         0.000010 -0.000001  0.010167 -0.046332  0.000700 -0.157482
  6C   2s         0.000009 -0.000057 -0.018457  0.090144 -0.001331  0.305869
  6C   1pz       -0.000001  0.000007 -0.003275  0.010890  0.000208  0.017737
  6C   1px       -0.000004  0.000022 -0.009934  0.033015  0.000528  0.053739
  6C   1py        0.000005 -0.000013  0.006473 -0.021160  0.001960 -0.033563
  6C   3s        -0.000389  0.002265 -0.048560  0.056743 -0.001074  0.286173
  6C   2pz       -0.000053  0.000438 -0.007845 -0.001244  0.000100  0.006002
  6C   2px       -0.000169  0.001324 -0.023759 -0.003767  0.000286  0.018158
  6C   2py        0.000259 -0.000799  0.014728  0.002237  0.000475 -0.011004
  6C   1dz2       0.000003 -0.000004  0.000626 -0.002426  0.000077 -0.008452
  6C   1dxz       0.000007  0.000005 -0.000591  0.002315  0.000056  0.008196
  6C   1dyz       0.000005 -0.000001  0.000373 -0.001471  0.000078 -0.005134
  6C   1dx2y2     0.000022  0.000008 -0.000513  0.002052  0.000269  0.007491
  6C   1dxy       0.000015 -0.000003  0.001132 -0.004458  0.000246 -0.015546
  7H   1s        -0.000105  0.000060 -0.035824  0.020400 -0.067964 -0.027912
  7H   2s        -0.000182  0.001275  0.000240  0.003924 -0.011609 -0.004372
  8H   1s        -0.000823 -0.000904 -0.031059 -0.039556 -0.066554  0.013330
  8H   2s         0.002116  0.000827 -0.003146 -0.007364 -0.012399  0.001785
  9H   1s         0.000988 -0.000667 -0.031031 -0.039419  0.066404  0.014483
  9H   2s        -0.002127  0.000260 -0.002997 -0.007274  0.012407  0.001757
 10H   1s         0.000075  0.000090 -0.035935  0.020509  0.068135 -0.027785
 10H   2s        -0.000136  0.001273  0.000228  0.003865  0.011716 -0.004442
 11C   1s        -0.000006  0.000064  0.041209 -0.099309  0.000607 -0.122699
 11C   2s         0.000012 -0.000179 -0.080863  0.195586 -0.001168  0.239643
 11C   1pz        0.000005 -0.000022 -0.011744  0.014066  0.002914 -0.035955
 11C   1px        0.000015 -0.000068 -0.035691  0.042803  0.008066 -0.108935
 11C   1py       -0.000004  0.000044  0.024973 -0.031306  0.012310  0.068355
 11C   3s         0.000250 -0.000875 -0.046591  0.125725 -0.000920  0.184373
 11C   2pz       -0.000216  0.000822 -0.016106 -0.000553  0.000681  0.013802
 11C   2px       -0.000629  0.002498 -0.048847 -0.001664  0.001845  0.041866
 11C   2py       -0.000144 -0.001694  0.032008  0.000770  0.003170 -0.027557
 11C   1dz2      -0.000002 -0.000026  0.003290 -0.005795  0.000214 -0.003900
 11C   1dxz      -0.000011  0.000020 -0.002904  0.005170  0.000625  0.003701
 11C   1dyz      -0.000003 -0.000017  0.001849 -0.003198  0.000274 -0.002318
 11C   1dx2y2    -0.000033  0.000012 -0.002144  0.003914  0.001959  0.003234
 11C   1dxy      -0.000009 -0.000053  0.005644 -0.009761  0.000899 -0.007037
 12H   1s        -0.000009  0.000049 -0.004059  0.021602 -0.000354  0.108916
 12H   2s        -0.000093  0.000514 -0.010158 -0.000162 -0.000014  0.033904
 13H   1s        -0.000112  0.000555 -0.030038 -0.062434 -0.000103  0.052362
 13H   2s         0.000081  0.000111 -0.003328 -0.010487 -0.000034  0.011429
                     12        13        14        15        16        17   
                  -0.62443  -0.60957  -0.55673  -0.51592  -0.47562  -0.45474
                   2.00000   2.00000   2.00000   2.00000   2.00000   2.00000
                  --------  --------  --------  --------  --------  --------
  0C   1s         0.059417 -0.084775 -0.003835  0.015442 -0.054579 -0.006949
  0C   2s        -0.121040  0.171891  0.009729 -0.029374  0.110997  0.018544
  0C   1pz       -0.013429 -0.031684 -0.020706  0.049588 -0.041800  0.029799
  0C   1px       -0.044273 -0.096630 -0.054259  0.144551 -0.122351  0.098563
  0C   1py        0.109735  0.074626 -0.158611  0.038832 -0.020361 -0.249421
  0C   3s        -0.092681  0.141082  0.000681 -0.068901  0.158799 -0.029854
  0C   2pz        0.000796 -0.018935 -0.011459  0.010588 -0.008808  0.011771
  0C   2px        0.000699 -0.056529 -0.031793  0.030879 -0.025598  0.039774
  0C   2py        0.038995  0.014950 -0.046230  0.007810 -0.009511 -0.116677
  0C   1dz2       0.001766 -0.003620 -0.000206  0.001752 -0.001428  0.000976
  0C   1dxz      -0.003096  0.001807  0.001369 -0.000455  0.003108  0.001317
  0C   1dyz      -0.000197  0.002097 -0.002076 -0.000802  0.003923 -0.000123
  0C   1dx2y2    -0.004985 -0.001830  0.003504  0.001948  0.005084  0.005127
  0C   1dxy      -0.000625  0.005803 -0.005998 -0.002146  0.011629 -0.000077
  1C   1s        -0.073838 -0.000539  0.042799  0.018106  0.040195  0.000823
  1C   2s         0.150433  0.000984 -0.089644 -0.033052 -0.078952 -0.001146
  1C   1pz       -0.035525 -0.041530 -0.051074  0.026453  0.040507  0.054167
  1C   1px       -0.108009 -0.114555 -0.155236  0.080409  0.123189  0.149372
  1C   1py        0.076500 -0.183832  0.107421 -0.055969 -0.087436  0.240289
  1C   3s         0.159500  0.004182 -0.049280 -0.146770 -0.176613 -0.014932
  1C   2pz       -0.022543 -0.007712 -0.009196  0.037139  0.013732  0.007000
  1C   2px       -0.068676 -0.021418 -0.027915  0.113070  0.042008  0.019966
  1C   2py        0.051007 -0.029873  0.019879 -0.084613 -0.034527  0.012861
  1C   1dz2      -0.001897 -0.000589  0.000499  0.001307  0.000858  0.000014
  1C   1dxz       0.001978 -0.001785  0.000237 -0.000120 -0.002512 -0.000379
  1C   1dyz      -0.001766 -0.000755 -0.001263 -0.001613  0.004636 -0.000056
  1C   1dx2y2     0.002120 -0.005564  0.001654  0.002174 -0.005711 -0.000955
  1C   1dxy      -0.005284 -0.002490 -0.003612 -0.004567  0.013519 -0.000195
  2C   1s         0.030109  0.089833 -0.043859 -0.007530  0.057405  0.003899
  2C   2s        -0.061728 -0.182813  0.090832  0.015847 -0.114850 -0.008769
  2C   1pz        0.050206 -0.027970 -0.026646  0.000623  0.005934 -0.084646
  2C   1px        0.148117 -0.085211 -0.073386 -0.004464  0.014573 -0.250618
  2C   1py       -0.001787  0.064703 -0.122027  0.148420  0.069510  0.025714
  2C   3s        -0.035439 -0.135470  0.093151  0.013731 -0.159991 -0.009907
  2C   2pz        0.012547 -0.007928 -0.010100 -0.000973  0.003977 -0.023719
  2C   2px        0.036255 -0.025389 -0.027571 -0.004906  0.011219 -0.070503
  2C   2py        0.015037  0.048377 -0.049767  0.047796  0.010989  0.016103
  2C   1dz2       0.001391  0.003881 -0.002076  0.000473  0.003106  0.000092
  2C   1dxz       0.000304 -0.000945  0.000557 -0.001364  0.002811  0.000174
  2C   1dyz       0.002314 -0.001626 -0.000286  0.000262 -0.000955 -0.001261
  2C   1dx2y2     0.002869  0.004459 -0.002086 -0.002777  0.012811  0.000790
  2C   1dxy       0.007035 -0.004307 -0.001082  0.000704 -0.002085 -0.003674
  3C   1s        -0.094971 -0.000367  0.036844  0.018470 -0.054794 -0.000493
  3C   2s         0.193023  0.000719 -0.074605 -0.037998  0.110611  0.001084
  3C   1pz        0.015392  0.037444  0.007459 -0.051238  0.047022  0.049600
  3C   1px        0.046842  0.103299  0.022701 -0.155610  0.142947  0.136830
  3C   1py       -0.034202  0.166622 -0.016284  0.106416 -0.101484  0.221606
  3C   3s         0.143113  0.000425 -0.048495 -0.045118  0.146077  0.001540
  3C   2pz        0.013097  0.009244 -0.000638 -0.017686  0.013351  0.018412
  3C   2px        0.039811  0.025523 -0.002010 -0.053654  0.040643  0.050786
  3C   2py       -0.027953  0.040806  0.001362  0.036882 -0.028782  0.081878
  3C   1dz2      -0.003816 -0.000742  0.000688  0.001498 -0.001994 -0.000350
  3C   1dxz       0.002853 -0.002434 -0.001247 -0.001065  0.003112 -0.001160
  3C   1dyz      -0.000939 -0.001001  0.001898  0.000277 -0.004300 -0.000517
  3C   1dx2y2     0.000972 -0.007480 -0.002324 -0.000227  0.005261 -0.003552
  3C   1dxy      -0.003048 -0.003283  0.005567  0.000932 -0.012644 -0.001679
  4C   1s         0.031485 -0.089470 -0.043614 -0.007121  0.057620 -0.003074
  4C   2s        -0.064687  0.181980  0.090298  0.015311 -0.115086  0.007465
  4C   1pz        0.018200  0.029798  0.027426 -0.045542 -0.019773  0.037023
  4C   1px        0.059745  0.090365  0.075733 -0.132010 -0.056676  0.119209
  4C   1py       -0.142181 -0.058081  0.120500 -0.053487 -0.038532 -0.234553
  4C   3s        -0.036379  0.134830  0.093079  0.011259 -0.161834  0.008756
  4C   2pz       -0.000633  0.017522  0.011404 -0.014595 -0.001736  0.013186
  4C   2px       -0.000117  0.051866  0.031631 -0.042463 -0.004573  0.041490
  4C   2py       -0.041287 -0.005899  0.047021 -0.013230 -0.013731 -0.061850
  4C   1dz2       0.000473 -0.003519 -0.001683  0.000942  0.001231 -0.000173
  4C   1dxz      -0.002907  0.002127  0.001844 -0.000006 -0.003623 -0.000744
  4C   1dyz       0.000983  0.002123  0.000224  0.000815 -0.003572  0.001024
  4C   1dx2y2    -0.006893 -0.000824  0.001868  0.001494 -0.006816 -0.002373
  4C   1dxy       0.002680  0.005930  0.000587  0.002537 -0.010677  0.002913
  5C   1s         0.058424  0.085187 -0.004245  0.014646 -0.055032  0.006141
  5C   2s        -0.118805 -0.172793  0.010561 -0.028232  0.111566 -0.016481
  5C   1pz       -0.038783  0.033667  0.041056  0.006269 -0.007565 -0.086341
  5C   1px       -0.114398  0.102028  0.116107  0.025133 -0.027723 -0.254598
  5C   1py       -0.000035 -0.064267  0.116719 -0.155549  0.126797 -0.001819
  5C   3s        -0.095391 -0.141227  0.000716 -0.059278  0.165920  0.029440
  5C   2pz       -0.011514  0.011242  0.009954  0.000687 -0.000455 -0.039790
  5C   2px       -0.033271  0.035322  0.027125  0.003594 -0.002529 -0.117093
  5C   2py       -0.014360 -0.049762  0.049821 -0.035011  0.026950 -0.003758
  5C   1dz2       0.002661  0.003801 -0.000389  0.001520 -0.003198 -0.000150
  5C   1dxz      -0.000100 -0.001205  0.000850 -0.000831 -0.002541  0.001389
  5C   1dyz       0.001057 -0.001826 -0.002279 -0.000989  0.001590  0.001193
  5C   1dx2y2     0.004177  0.003676  0.001868  0.000593 -0.012360  0.003191
  5C   1dxy       0.003492 -0.004933 -0.006672 -0.002775  0.003963  0.003621
  6C   1s         0.096661  0.001538  0.059791  0.015134 -0.012432 -0.000298
  6C   2s        -0.189102 -0.002912 -0.121714 -0.038509  0.018091 -0.000228
  6C   1pz        0.016182 -0.001038  0.062025  0.080786  0.052806  0.005243
  6C   1px        0.049063 -0.002727  0.187952  0.244758  0.159979  0.014540
  6C   1py       -0.031812 -0.007819 -0.119012 -0.153704 -0.100150  0.021414
  6C   3s        -0.224427 -0.006965 -0.139484  0.075848  0.090318  0.018067
  6C   2pz       -0.007260 -0.001105  0.002568  0.031931  0.020309  0.004683
  6C   2px       -0.021985 -0.003283  0.007797  0.096680  0.061530  0.013980
  6C   2py        0.013290  0.000627 -0.005196 -0.059599 -0.038376 -0.004498
  6C   1dz2       0.005696 -0.000003  0.005014  0.003374  0.001200  0.000136
  6C   1dxz      -0.005540 -0.000374 -0.004862 -0.003173 -0.001149  0.000583
  6C   1dyz       0.003445 -0.000092  0.003102  0.002061  0.000826  0.000265
  6C   1dx2y2    -0.005092 -0.000966 -0.004455 -0.002736 -0.001039  0.001715
  6C   1dxy       0.010432 -0.000307  0.009388  0.006248  0.002493  0.000858
  7H   1s        -0.051310  0.092543  0.061829 -0.091838  0.127823  0.021360
  7H   2s        -0.015389  0.027607  0.030588 -0.061280  0.087011  0.016114
  8H   1s        -0.027062 -0.099025  0.099174 -0.067830 -0.100616 -0.010208
  8H   2s        -0.006155 -0.033410  0.048104 -0.046682 -0.067685 -0.004405
  9H   1s        -0.028393  0.098541  0.098738 -0.068666 -0.101168  0.007133
  9H   2s        -0.006308  0.033428  0.047921 -0.047687 -0.068495  0.001559
 10H   1s        -0.050196 -0.093142  0.062578 -0.091165  0.128404 -0.019098
 10H   2s        -0.014959 -0.027604  0.031136 -0.061172  0.087348 -0.016116
 11C   1s        -0.041820  0.000074 -0.085571 -0.050739  0.010045 -0.000779
 11C   2s         0.087501 -0.000249  0.171506  0.099380 -0.029655  0.001985
 11C   1pz        0.049608 -0.007379  0.004812 -0.050128 -0.063973  0.014645
 11C   1px        0.150512 -0.020187  0.014649 -0.152037 -0.194019  0.040067
 11C   1py       -0.099858 -0.036591 -0.011068  0.099343  0.127287  0.072256
 11C   3s         0.075749  0.001491  0.205358  0.131092 -0.034564 -0.004348
 11C   2pz       -0.013805 -0.004707 -0.005614  0.033621  0.007341  0.016099
 11C   2px       -0.041816 -0.013359 -0.017030  0.101989  0.022205  0.046006
 11C   2py        0.026817 -0.012047  0.010529 -0.066647 -0.013848  0.034536
 11C   1dz2      -0.003065 -0.000514 -0.002899 -0.001023  0.000239  0.000814
 11C   1dxz       0.002746 -0.001627  0.002672  0.001240 -0.000465  0.002576
 11C   1dyz      -0.001866 -0.000674 -0.001619 -0.001039  0.000898  0.001050
 11C   1dx2y2     0.002123 -0.005033  0.002182  0.001610 -0.000923  0.007968
 11C   1dxy      -0.005676 -0.002217 -0.004931 -0.003090  0.002629  0.003459
 12H   1s        -0.120324 -0.002301 -0.181188 -0.179248 -0.099384 -0.000751
 12H   2s        -0.066667 -0.002454 -0.124337 -0.109982 -0.070451  0.004674
 13H   1s         0.100598  0.000353 -0.019701 -0.117633  0.160183  0.000411
 13H   2s         0.030887  0.000109 -0.005680 -0.073547  0.111145  0.000062
                     18        19        20        21        22        23   
                  -0.43546  -0.42497  -0.37681  -0.35798  -0.35268  -0.29478
                   2.00000   2.00000   2.00000   2.00000   2.00000   2.00000
                  --------  --------  --------  --------  --------  --------
  0C   1s        -0.006614 -0.019051  0.000004 -0.008674  0.001873  0.000008
  0C   2s         0.011825  0.042083  0.000007  0.022708  0.002375 -0.000006
  0C   1pz       -0.029942  0.085241  0.207629  0.068787  0.044027  0.022560
  0C   1px       -0.081458  0.247880 -0.070408  0.208705  0.122233 -0.007665
  0C   1py       -0.157148  0.080346 -0.003032 -0.138203  0.176303 -0.000278
  0C   3s        -0.009021  0.080323  0.000015 -0.009060 -0.042493 -0.000124
  0C   2pz       -0.019292  0.024364  0.118843  0.015971  0.004067  0.018932
  0C   2px       -0.056035  0.069640 -0.040430  0.050364  0.009468 -0.006429
  0C   2py       -0.020388  0.049613 -0.001652 -0.074704  0.060922 -0.000329
  0C   1dz2       0.000115  0.001670  0.003995  0.001615  0.000699 -0.003503
  0C   1dxz       0.005005 -0.000955  0.005740 -0.000811 -0.006383 -0.005751
  0C   1dyz      -0.000474 -0.003111  0.006419 -0.003908 -0.003944  0.010973
  0C   1dx2y2     0.013310  0.000827 -0.002121  0.001227 -0.014870  0.002340
  0C   1dxy      -0.000891 -0.009011 -0.002290 -0.011336 -0.012113 -0.003619
  1C   1s         0.044162 -0.000505 -0.000006  0.012827 -0.000042 -0.000012
  1C   2s        -0.096065  0.001075  0.000041 -0.033627  0.000031  0.000057
  1C   1pz       -0.067653 -0.014406  0.263937 -0.037705 -0.045620  0.222134
  1C   1px       -0.205447 -0.039453 -0.089558 -0.114707 -0.125705 -0.075351
  1C   1py        0.139083 -0.070267 -0.003862  0.080638 -0.200790 -0.003283
  1C   3s        -0.106343  0.002154 -0.000147  0.041912  0.002656 -0.000022
  1C   2pz       -0.014710  0.005187  0.144024  0.003386 -0.016533  0.135039
  1C   2px       -0.044768  0.014390 -0.048398  0.010045 -0.045641 -0.045831
  1C   2py        0.033909  0.023412 -0.002136 -0.003490 -0.070760 -0.002053
  1C   1dz2      -0.000844 -0.001102  0.001739 -0.001117 -0.000585 -0.005143
  1C   1dxz       0.001085 -0.003718  0.002712  0.003100 -0.001804 -0.008014
  1C   1dyz      -0.001496 -0.001483 -0.002108 -0.005602 -0.000788  0.006282
  1C   1dx2y2     0.001580 -0.011378 -0.001065  0.006937 -0.005599  0.003149
  1C   1dxy      -0.004419 -0.004890  0.000674 -0.016344 -0.002580 -0.001984
  2C   1s         0.003168 -0.019561 -0.000001  0.003302  0.001586  0.000000
  2C   2s        -0.005240  0.043267  0.000030 -0.004048 -0.010229 -0.000028
  2C   1pz        0.019138 -0.007285  0.179455 -0.073845 -0.056156 -0.176994
  2C   1px        0.047797 -0.032651 -0.060906 -0.222688 -0.157764  0.060058
  2C   1py        0.205139  0.264447 -0.002573  0.118565 -0.185137  0.002502
  2C   3s         0.012830  0.076496  0.000071 -0.021387  0.034997  0.000153
  2C   2pz       -0.006388  0.004575  0.100678 -0.027069 -0.022970 -0.121653
  2C   2px       -0.021816  0.010041 -0.034114 -0.081203 -0.066408  0.041306
  2C   2py        0.072168  0.079576 -0.001416  0.030999 -0.031762  0.001797
  2C   1dz2       0.002478  0.002211 -0.000092  0.002003 -0.004214 -0.004943
  2C   1dxz       0.002202  0.000759 -0.000489  0.002087 -0.004434 -0.007263
  2C   1dyz       0.002332 -0.002523  0.008231 -0.004292 -0.000805 -0.004178
  2C   1dx2y2     0.009681  0.006140  0.000289  0.009490 -0.018707  0.002730
  2C   1dxy       0.007436 -0.007028 -0.002778 -0.012133 -0.003411  0.001548
  3C   1s        -0.032736  0.000433  0.000001  0.005649  0.000031 -0.000002
  3C   2s         0.069306 -0.000970 -0.000007 -0.020004 -0.000109  0.000036
  3C   1pz       -0.063745 -0.014105  0.170803  0.070802  0.053735 -0.260414
  3C   1px       -0.193499 -0.038627 -0.057950  0.215175  0.148329  0.088343
  3C   1py        0.131463 -0.068675 -0.002422 -0.151211  0.236564  0.003772
  3C   3s         0.111381 -0.001266 -0.000115  0.010048 -0.000147  0.000014
  3C   2pz       -0.019573  0.003799  0.098104  0.015813  0.020065 -0.169423
  3C   2px       -0.059345  0.010695 -0.033199  0.048181  0.055389  0.057586
  3C   2py        0.040813  0.015544 -0.001508 -0.034292  0.088529  0.002626
  3C   1dz2       0.001153  0.001069 -0.003589 -0.002409 -0.000952  0.002871
  3C   1dxz      -0.000807  0.003667 -0.005597  0.004649 -0.003125  0.004475
  3C   1dyz       0.000356  0.001467  0.004391 -0.007227 -0.001328 -0.003495
  3C   1dx2y2    -0.000167  0.011189  0.002203  0.008957 -0.009596 -0.001768
  3C   1dxy       0.001143  0.004832 -0.001392 -0.021172 -0.004346  0.001108
  4C   1s         0.003569  0.019564  0.000001  0.003174 -0.001554  0.000001
  4C   2s        -0.006251 -0.043355 -0.000054 -0.003984  0.010114  0.000048
  4C   1pz       -0.053808  0.084417  0.179556 -0.062376 -0.037056 -0.176637
  4C   1px       -0.153330  0.245682 -0.060901 -0.191320 -0.099629  0.059908
  4C   1py       -0.124238  0.077532 -0.002646  0.171550 -0.224887  0.002534
  4C   3s         0.012058 -0.077333  0.000218 -0.019623 -0.034963 -0.000123
  4C   2pz       -0.024092  0.023277  0.100726 -0.019469 -0.001766 -0.121486
  4C   2px       -0.070804  0.066790 -0.034176 -0.060310 -0.002018  0.040993
  4C   2py       -0.006128  0.041954 -0.001541  0.067024 -0.076393  0.001923
  4C   1dz2       0.000322 -0.001739 -0.004381  0.001311  0.000956  0.000446
  4C   1dxz      -0.004758  0.000951 -0.006482 -0.000050 -0.006491  0.000259
  4C   1dyz      -0.000444  0.003166 -0.002757 -0.005166 -0.003693  0.009677
  4C   1dx2y2    -0.011783 -0.000968  0.002446  0.002856 -0.014747  0.000026
[...]
 3 C  dxz             5.4       0.1       0.2       1.7       4.9       0.8
 3 C  dyz            18.8       0.0       0.0       0.3       0.1       0.1
 3 C  dx2y2           0.7       0.0       1.8       0.4       0.6       7.7
 3 C  dxy             2.3       0.0       0.4       3.2       0.6       1.6
 4 C  s               0.0       0.0       0.5       0.2       2.1       5.4
 4 C  pz              0.4       0.3       0.0       0.0       0.0       0.1
 4 C  px              0.0       0.0       0.2       0.0       0.1       1.0
 4 C  py              0.0       0.0       0.1       0.1       1.2       0.2
 4 C  dz2             0.0       3.4       0.0       0.6       4.7       7.9
 4 C  dxz             0.0       8.4       0.3       0.0       1.5       4.7
 4 C  dyz             8.0      10.3       0.2       0.3       0.0       0.1
 4 C  dx2y2           0.0       1.3       2.5       1.5       0.3       0.5
 4 C  dxy             0.9       1.1       1.6       2.0       0.0       0.7
 5 C  s               0.0       0.0       1.6       1.7       0.3       3.4
 5 C  pz              0.3       0.3       0.2       0.0       0.1       0.0
 5 C  px              0.0       0.0       1.3       0.1       1.0       0.3
 5 C  py              0.0       0.0       0.1       0.1       0.2       0.4
 5 C  dz2             2.2       5.6       2.9       3.4       0.6       7.8
 5 C  dxz             4.8      13.2       0.5       0.2       1.1       1.4
 5 C  dyz             0.9       3.3       0.6       0.3       0.1       0.3
 5 C  dx2y2           0.7       2.0       1.4       4.6       2.1       2.8
 5 C  dxy             0.1       0.3       4.7       2.2       0.6       3.6
 6 C  s               0.0       0.0       0.0       0.8       0.2       0.0
 6 C  px              0.0       0.0       0.4       0.7       0.2       0.0
 6 C  py              0.0       0.0       1.0       0.3       0.1       0.0
 6 C  dz2             0.0       0.0       0.2       2.5       1.3       0.0
 6 C  dxz             0.1       0.0       1.8       2.1       1.2       0.1
 6 C  dyz             0.3       0.0       0.3       1.0       0.7       0.0
 6 C  dx2y2           0.0       0.0      17.0       1.4       1.0       1.1
 6 C  dxy             0.0       0.0       3.4       9.5       6.1       0.2
 7 H  s               0.0       0.0       0.8       1.1       0.1       1.0
 8 H  s               0.0       0.0       0.4       0.1       0.2       1.1
 9 H  s               0.0       0.0       0.5       0.1       0.2       1.1
10 H  s               0.0       0.0       0.8       1.2       0.1       1.0
11 C  s               0.0       0.0       0.0       3.9       0.5       0.0
11 C  pz              0.0       0.0       0.0       0.0       0.1       0.0
11 C  px              0.0       0.0       0.4       0.3       1.3       0.0
11 C  py              0.0       0.0       1.0       0.1       0.6       0.0
11 C  dz2             0.2       0.0       0.2       2.9       1.7       0.0
11 C  dxz             0.5       0.0       1.9       2.2       1.1       0.1
11 C  dyz             1.6       0.0       0.3       0.9       0.3       0.0
11 C  dx2y2           0.1       0.0      17.3       1.2       0.3       0.6
11 C  dxy             0.2       0.0       3.5       8.4       2.5       0.1
12 H  s               0.0       0.0       0.0       2.6       1.3       0.0
13 H  s               0.0       0.0       0.0       1.2       0.3       0.0

                    114       115       116       117       118       119   
                   2.64835   2.71904   2.73278   2.73817   2.76095   2.81767
                   0.00000   0.00000   0.00000   0.00000   0.00000   0.00000
                  --------  --------  --------  --------  --------  --------
 0 C  s               0.0       1.5       0.4       3.4       0.0       3.0
 0 C  pz              0.0       0.0       0.1       0.1       0.1       0.0
 0 C  px              0.0       0.2       1.0       0.7       0.0       0.4
 0 C  py              0.0       0.6       1.9       0.4       0.0       0.0
 0 C  dz2             0.9       1.9       0.5       4.1       0.3       2.8
 0 C  dxz             2.4       1.1       0.5       0.0       0.6       2.2
 0 C  dyz            11.4       0.4       0.7       0.6       0.9       0.1
 0 C  dx2y2           0.4       0.2       9.7       9.0       0.1       0.8
 0 C  dxy             1.3       4.0       5.4       6.4       0.1       1.0
 1 C  s               0.0       1.2       3.0       0.0       0.0       4.2
 1 C  pz              0.0       0.0       0.2       0.1       0.1       0.0
 1 C  px              0.0       0.2       1.6       1.1       0.0       0.1
 1 C  py              0.0       0.1       0.7       3.0       0.0       0.0
 1 C  dz2             1.5       2.0       1.3       0.0       3.8       4.9
 1 C  dxz             2.8       0.1       0.5       0.2       9.2       3.2
 1 C  dyz             9.9       1.4       0.0       0.0       5.5       0.8
 1 C  dx2y2           0.4       2.6       0.1       1.5       1.4       1.0
 1 C  dxy             1.2      10.6       0.1       0.3       0.5       7.5
 2 C  s               0.0       0.8       0.3       0.4       0.0       3.4
 2 C  pz              0.0       0.2       0.2       0.1       0.0       0.0
 2 C  px              0.0       1.4       2.0       1.1       0.0       0.0
 2 C  py              0.0       0.1       0.2       0.1       0.0       0.4
 2 C  dz2             4.7       1.5       0.0       0.6       0.0       4.2
 2 C  dxz            10.7       0.1       0.0       3.2       0.0       1.2
 2 C  dyz             0.1       0.0       1.9       0.1       0.2       0.0
 2 C  dx2y2           1.6       7.9       0.0      11.4       0.0       0.4
 2 C  dxy             0.0       0.0      16.0       1.0       0.0       0.5
 3 C  s               0.0       0.4       3.8       0.0       0.0       2.4
 3 C  px              0.0       0.0       0.8       0.3       0.0       0.1
 3 C  py              0.0       0.0       0.4       0.8       0.0       0.1
 3 C  dz2             1.6       0.1       1.8       0.0       0.0       2.9
 3 C  dxz             3.0       0.6       1.0       0.4       0.0       1.1
 3 C  dyz            10.6       2.0       0.1       0.1       0.0       0.0
 3 C  dx2y2           0.4       3.4       0.1       3.5       0.0       0.1
 3 C  dxy             1.3      17.3       0.9       0.7       0.0       0.0
 4 C  s               0.0       0.8       0.3       0.4       0.0       3.5
 4 C  px              0.0       0.6       0.9       0.4       0.0       0.3
 4 C  py              0.0       1.1       1.4       0.8       0.0       0.1
 4 C  dz2             0.8       0.6       0.2       1.6       0.1       3.7
 4 C  dxz             2.4       1.5       0.6       0.0       0.1       2.3
 4 C  dyz            12.1       0.5       1.0       1.1       0.0       0.0
 4 C  dx2y2           0.4       2.9       8.5       2.8       0.0       0.4
 4 C  dxy             1.3       4.0       7.8      10.7       0.0       0.0
 5 C  s               0.0       1.5       0.4       3.4       0.0       3.0
 5 C  pz              0.0       0.1       0.3       0.0       0.1       0.0
 5 C  px              0.0       0.5       2.5       0.3       0.0       0.2
 5 C  py              0.0       0.2       0.2       0.8       0.0       0.3
 5 C  dz2             4.5       1.8       0.1       1.9       0.1       3.8
 5 C  dxz            10.3       1.4       0.2       5.2       0.2       0.4
 5 C  dyz             0.1       0.3       1.7       0.0       1.5       0.0
 5 C  dx2y2           1.5       0.8       0.0      12.7       0.0       2.8
 5 C  dxy             0.0       3.2      14.7       0.2       0.2       0.0
 6 C  s               0.0       0.0       0.0       0.0       0.0       0.7
 6 C  pz              0.0       0.0       0.0       0.0       1.7       0.0
 6 C  px              0.0       0.0       0.0       0.0       0.2       0.4
 6 C  py              0.0       0.0       0.0       0.0       0.0       0.2
 6 C  dz2             0.0       1.1       0.0       0.0       4.4       2.7
 6 C  dxz             0.0       0.8       0.0       0.0      10.6       2.3
 6 C  dyz             0.0       0.3       0.0       0.0       6.3       1.0
 6 C  dx2y2           0.0       0.4       0.0       0.0       1.6       1.5
 6 C  dxy             0.0       2.8       0.2       0.0       0.6       9.6
 7 H  s               0.0       0.0       0.0       0.5       0.0       0.5
 8 H  s               0.0       0.9       0.1       0.7       0.0       0.2
 9 H  s               0.0       0.9       0.1       0.7       0.0       0.2
10 H  s               0.0       0.0       0.0       0.5       0.0       0.5
11 C  s               0.0       0.1       0.7       0.0       0.0       0.6
11 C  pz              0.0       0.1       0.0       0.0       0.4       0.5
11 C  px              0.0       1.3       0.1       0.0       0.0       4.7
11 C  py              0.0       0.6       0.1       0.0       0.0       2.2
11 C  dz2             0.1       0.0       0.0       0.0       9.1       0.0
11 C  dxz             0.1       0.0       0.0       0.0      22.0       0.0
11 C  dyz             0.4       0.2       0.0       0.0      13.1       0.0
11 C  dx2y2           0.0       0.3       0.0       0.1       3.4       0.0
11 C  dxy             0.0       1.3       0.0       0.0       1.3       0.1
12 H  s               0.0       0.7       0.1       0.0       0.0       1.8
13 H  s               0.0       2.0       0.4       0.0       0.0       0.0

                    120       121       122       123   
                   2.86693   3.14903   3.33881   3.53350
                   0.00000   0.00000   0.00000   0.00000
                  --------  --------  --------  --------
 0 C  s               0.7       0.1       1.6       0.3
 0 C  px              0.5       0.2       0.2       0.0
 0 C  py              0.1       2.7       0.0       0.1
 0 C  dz2             0.0       0.1       1.2       0.2
 0 C  dxz             0.3       0.4       0.0       0.1
 0 C  dyz             0.0       0.6       0.4       0.4
 0 C  dx2y2           1.8       5.2       2.3       1.8
 0 C  dxy             0.4       5.0       4.2       3.4
 1 C  s               0.0       0.0       4.1       0.4
 1 C  pz              0.0       0.1       0.0       0.2
 1 C  px              0.1       0.4       0.2       1.5
 1 C  py              0.2       1.1       0.1       0.7
 1 C  dz2             0.0       0.2       2.3       0.1
 1 C  dxz             0.5       2.6       0.6       0.6
 1 C  dyz             0.1       0.5       0.2       1.4
 1 C  dx2y2           4.9      23.9       0.5       2.3
 1 C  dxy             1.0       4.9       1.4      12.0
 2 C  s               0.7       0.1       2.0       0.2
 2 C  pz              0.3       0.2       0.0       0.0
 2 C  px              2.3       1.3       0.0       0.0
 2 C  py              0.2       0.1       0.1       0.0
 2 C  dz2             0.0       0.0       0.6       0.0
 2 C  dxz             0.5       0.0       2.4       0.6
 2 C  dyz             1.4       0.4       0.0       0.0
 2 C  dx2y2           1.7       0.0       7.4       3.6
 2 C  dxy            12.8       3.7       0.2       0.0
 3 C  s               0.0       0.0       1.5       0.4
 3 C  pz              0.2       0.0       0.0       0.0
 3 C  px              1.6       0.2       0.1       0.0
 3 C  py              4.3       0.6       0.0       0.0
 3 C  dz2             0.2       0.0       0.9       0.2
 3 C  dxz             1.8       0.2       0.0       0.0
 3 C  dyz             0.3       0.0       1.0       0.3
 3 C  dx2y2          16.9       2.3       1.9       0.6
 3 C  dxy             3.5       0.5       7.8       2.4
 4 C  s               0.7       0.1       2.0       0.2
 4 C  px              0.1       0.5       0.1       0.0
 4 C  py              2.7       1.0       0.0       0.0
 4 C  dz2             0.5       0.0       1.4       0.1
 4 C  dxz             0.8       0.2       0.0       0.1
 4 C  dyz             0.3       0.2       0.6       0.2
 4 C  dx2y2          13.1       1.8       2.7       1.6
 4 C  dxy             1.8       1.9       6.0       2.1
 5 C  s               0.7       0.1       1.6       0.3
 5 C  pz              0.0       0.3       0.0       0.0
 5 C  px              0.2       2.5       0.0       0.1
 5 C  py              0.5       0.1       0.2       0.0
 5 C  dz2             0.1       0.0       0.5       0.0
 5 C  dxz             0.1       0.0       1.9       0.8
 5 C  dyz             0.0       1.2       0.0       0.0
 5 C  dx2y2           1.9       0.0       5.6       5.0
 5 C  dxy             0.4      10.1       0.1       0.0
 6 C  s               0.0       0.0       2.3       4.3
 6 C  pz              0.0       0.0       0.2       0.4
 6 C  px              0.1       0.1       1.9       3.6
 6 C  py              0.3       0.4       0.9       1.7
 6 C  dz2             0.0       0.0       1.2       1.2
 6 C  dxz             0.4       0.4       1.0       1.1
 6 C  dyz             0.1       0.1       0.4       0.5
 6 C  dx2y2           3.5       3.6       0.6       0.7
 6 C  dxy             0.7       0.7       4.0       4.8
 7 H  s               0.1       0.0       0.3       0.3
 8 H  s               0.0       0.0       0.4       0.2
 9 H  s               0.0       0.0       0.4       0.2
10 H  s               0.2       0.0       0.3       0.3
11 C  s               0.0       0.0       3.2       7.6
11 C  pz              0.0       0.0       0.2       0.1
11 C  px              0.0       0.0       1.7       1.0
11 C  py              0.0       0.0       0.8       0.5
11 C  dz2             0.1       0.1       2.2       3.6
11 C  dxz             0.9       1.3       1.7       3.2
11 C  dyz             0.2       0.2       0.6       1.7
11 C  dx2y2           8.1      12.5       0.8       2.4
11 C  dxy             1.7       2.6       5.6      15.4
12 H  s               0.0       0.0       0.7       0.8
13 H  s               0.0       0.0       0.5       0.1


                      *****************************
                      * MAYER POPULATION ANALYSIS *
                      *****************************

  NA   - Mulliken gross atomic population
  ZA   - Total nuclear charge
  QA   - Mulliken gross atomic charge
  VA   - Mayer's total valence
  BVA  - Mayer's bonded valence
  FA   - Mayer's free valence

  ATOM       NA         ZA         QA         VA         BVA        FA
  0 C      6.1331     6.0000    -0.1331     3.9190     3.9190    -0.0000
  1 C      5.9827     6.0000     0.0173     3.8771     3.8771     0.0000
  2 C      6.1332     6.0000    -0.1332     3.9389     3.9389    -0.0000
  3 C      6.1199     6.0000    -0.1199     3.9407     3.9407     0.0000
  4 C      6.1331     6.0000    -0.1331     3.9385     3.9385     0.0000
  5 C      6.1329     6.0000    -0.1329     3.9189     3.9189     0.0000
  6 C      6.5961     6.0000    -0.5961     3.6529     3.6529     0.0000
  7 H      0.8580     1.0000     0.1420     0.9362     0.9362     0.0000
  8 H      0.8662     1.0000     0.1338     0.9365     0.9365    -0.0000
  9 H      0.8661     1.0000     0.1339     0.9365     0.9365     0.0000
 10 H      0.8583     1.0000     0.1417     0.9362     0.9362    -0.0000
 11 C      5.6507     6.0000     0.3493     3.7606     3.7606    -0.0000
 12 H      0.8023     1.0000     0.1977     0.9498     0.9498     0.0000
 13 H      0.8674     1.0000     0.1326     0.9365     0.9365    -0.0000

  Mayer bond orders larger than 0.1
B(  0-C ,  1-C ) :   1.3959 B(  0-C ,  2-C ) :   1.4393 B(  0-C ,  7-H ) :   0.9256 
B(  1-C ,  5-C ) :   1.3959 B(  1-C , 11-C ) :   0.9964 B(  2-C ,  3-C ) :   1.4442 
B(  2-C ,  8-H ) :   0.9289 B(  3-C ,  4-C ) :   1.4442 B(  3-C , 13-H ) :   0.9302 
B(  4-C ,  5-C ) :   1.4391 B(  4-C ,  9-H ) :   0.9288 B(  5-C , 10-H ) :   0.9257 
B(  6-C , 11-C ) :   2.6528 B(  6-C , 12-H ) :   0.9027 

-------
TIMINGS
-------

Total SCF time: 0 days 0 hours 0 min 16 sec 

Total time                  ....      16.417 sec
Sum of individual times     ....      16.130 sec  ( 98.3%)

Fock matrix formation       ....      14.268 sec  ( 86.9%)
  XC integration            ....       2.429 sec  ( 17.0% of F)
    Basis function eval.    ....       0.917 sec  ( 37.7% of XC)
    Density eval.           ....       0.615 sec  ( 25.3% of XC)
    XC-Functional eval.     ....       0.184 sec  (  7.6% of XC)
    XC-Potential eval.      ....       0.566 sec  ( 23.3% of XC)
Diagonalization             ....       0.002 sec  (  0.0%)
Density matrix formation    ....       0.002 sec  (  0.0%)
Population analysis         ....       0.054 sec  (  0.3%)
Initial guess               ....       0.004 sec  (  0.0%)
Orbital Transformation      ....       0.000 sec  (  0.0%)
Orbital Orthonormalization  ....       0.002 sec  (  0.0%)
DIIS solution               ....       0.001 sec  (  0.0%)
SOSCF solution              ....       0.010 sec  (  0.1%)
Grid generation             ....       1.788 sec  ( 10.9%)

-------------------------   --------------------
FINAL SINGLE POINT ENERGY      -308.188113401288
-------------------------   --------------------

                                *** OPTIMIZATION RUN DONE ***

                            ***************************************
                            *     ORCA property calculations      *
                            ***************************************

                                    ---------------------
                                    Active property flags
                                    ---------------------
   (+) Dipole Moment


------------------------------------------------------------------------------
                       ORCA ELECTRIC PROPERTIES CALCULATION
------------------------------------------------------------------------------

Dipole Moment Calculation                       ... on
Quadrupole Moment Calculation                   ... off
Polarizability Calculation                      ... off
GBWName                                         ... /Users/lailaal-madhagi/Desktop/Testing_XAS_Analysis_code/Phenylacetylene//Results_dir_Phenylacetylene_geom_element_C_2019-11-16_20-30-06//GTE1_Phenylacetylene_geom_2019-11-16_20-30-22//opt.gbw
Electron density file                           ... /Users/lailaal-madhagi/Desktop/Testing_XAS_Analysis_code/Phenylacetylene//Results_dir_Phenylacetylene_geom_element_C_2019-11-16_20-30-06//GTE1_Phenylacetylene_geom_2019-11-16_20-30-22//opt.scfp.tmp
The origin for moment calculation is the CENTER OF MASS  = ( 0.244034,  3.480863 -0.114583)

-------------
DIPOLE MOMENT
-------------
                                X             Y             Z
Electronic contribution:     -1.58378       1.07938      -0.52111
Nuclear contribution   :      1.78011      -1.21328       0.58548
                        -----------------------------------------
Total Dipole Moment    :      0.19633      -0.13390       0.06437
                        -----------------------------------------
Magnitude (a.u.)       :      0.24621
Magnitude (Debye)      :      0.62582



--------------------
Rotational spectrum 
--------------------
 
Rotational constants in cm-1:     0.189028     0.050794     0.040036 
Rotational constants in MHz :  5666.922580  1522.754048  1200.238869 

 Dipole components along the rotational axes: 
x,y,z [a.u.] :    -0.246210    -0.000163    -0.000263 
x,y,z [Debye]:    -0.625817    -0.000414    -0.000669 

 

Timings for individual modules:

Sum of individual times         ...      333.277 sec (=   5.555 min)
GTO integral calculation        ...        7.925 sec (=   0.132 min)   2.4 %
SCF iterations                  ...      209.134 sec (=   3.486 min)  62.8 %
SCF Gradient evaluation         ...      110.663 sec (=   1.844 min)  33.2 %
Geometry relaxation             ...        5.554 sec (=   0.093 min)   1.7 %
                             ****ORCA TERMINATED NORMALLY****
TOTAL RUN TIME: 0 days 0 hours 5 minutes 34 seconds 555 msec
