
                                 *****************
                                 * O   R   C   A *
                                 *****************

           --- An Ab Initio, DFT and Semiempirical electronic structure package ---

                  #######################################################
                  #                        -***-                        #
                  #          Department of theory and spectroscopy      #
                  #               Directorship: Frank Neese             #
                  #        Max Planck Institute fuer Kohlenforschung    #
                  #                Kaiser Wilhelm Platz 1               #
                  #                 D-45470 Muelheim/Ruhr               #
                  #                      Germany                        #
                  #                                                     #
                  #                  All rights reserved                #
                  #                        -***-                        #
                  #######################################################


                         Program Version 4.1.0  - RELEASE  -


 With contributions from (in alphabetic order):
   Daniel Aravena         : Magnetic Properties
   Michael Atanasov       : Ab Initio Ligand Field Theory
   Alexander A. Auer      : GIAO ZORA
   Ute Becker             : Parallelization
   Giovanni Bistoni       : ED, Open-shell LED
   Martin Brehm           : Molecular dynamics
   Dmytro Bykov           : SCF Hessian
   Vijay G. Chilkuri      : MRCI spin determinant printing
   Dipayan Datta          : RHF DLPNO-CCSD density
   Achintya Kumar Dutta   : EOM-CC, STEOM-CC
   Dmitry Ganyushin       : Spin-Orbit,Spin-Spin,Magnetic field MRCI
   Miquel Garcia          : C-PCM Hessian
   Yang Guo               : DLPNO-NEVPT2, CIM, IAO-localization
   Andreas Hansen         : Spin unrestricted coupled pair/coupled cluster methods
   Benjamin Helmich-Paris : CASSCF linear response (MC-RPA)
   Lee Huntington         : MR-EOM, pCC
   Robert Izsak           : Overlap fitted RIJCOSX, COSX-SCS-MP3, EOM
   Christian Kollmar      : KDIIS, OOCD, Brueckner-CCSD(T), CCSD density
   Simone Kossmann        : Meta GGA functionals, TD-DFT gradient, OOMP2, MP2 Hessian
   Martin Krupicka        : AUTO-CI
   Lucas Lang             : DCDCAS
   Dagmar Lenk            : GEPOL surface, SMD
   Dimitrios Liakos       : Extrapolation schemes; parallel MDCI
   Dimitrios Manganas     : ROCIS; embedding schemes
   Dimitrios Pantazis     : SARC Basis sets
   Taras Petrenko         : DFT Hessian,TD-DFT gradient, ASA, ECA, R-Raman, ABS, FL, XAS/XES, NRVS
   Peter Pinski           : DLPNO-MP2, DLPNO-MP2 Gradient
   Christoph Reimann      : Effective Core Potentials
   Marius Retegan         : Local ZFS, SOC
   Christoph Riplinger    : Optimizer, TS searches, QM/MM, DLPNO-CCSD(T), (RO)-DLPNO pert. Triples
   Tobias Risthaus        : Range-separated hybrids, TD-DFT gradient, RPA, STAB
   Michael Roemelt        : Restricted open shell CIS
   Masaaki Saitow         : Open-shell DLPNO
   Barbara Sandhoefer     : DKH picture change effects
   Avijit Sen             : IP-ROCIS
   Kantharuban Sivalingam : CASSCF convergence, NEVPT2, FIC-MRCI
   Bernardo de Souza      : ESD, SOC TD-DFT
   Georgi Stoychev        : AutoAux, RI-MP2 NMR
   Willem Van den Heuvel  : Paramagnetic NMR
   Boris Wezisla          : Elementary symmetry handling
   Frank Wennmohs         : Technical directorship


 We gratefully acknowledge several colleagues who have allowed us to
 interface, adapt or use parts of their codes:
   Stefan Grimme, W. Hujo, H. Kruse,             : VdW corrections, initial TS optimization,
                  C. Bannwarth                     DFT functionals, gCP, sTDA/sTD-DF
   Ed Valeev                                     : LibInt (2-el integral package), F12 methods
   Garnet Chan, S. Sharma, J. Yang, R. Olivares  : DMRG
   Ulf Ekstrom                                   : XCFun DFT Library
   Mihaly Kallay                                 : mrcc  (arbitrary order and MRCC methods)
   Andreas Klamt, Michael Diedenhofen            : otool_cosmo (COSMO solvation model)
   Jiri Pittner, Ondrej Demel                    : Mk-CCSD
   Frank Weinhold                                : gennbo (NPA and NBO analysis)
   Christopher J. Cramer and Donald G. Truhlar   : smd solvation model
   Lars Goerigk                                  : TD-DFT with DH, B97 family of functionals
   V. Asgeirsson, H. Jonsson                     : NEB implementation
   FAccTs GmbH                                   : IRC, NEB, NEB-TS, Multilevel


 Your calculation uses the libint2 library for the computation of 2-el integrals
 For citations please refer to: http://libint.valeyev.net

 This ORCA versions uses:
   CBLAS   interface :  Fast vector & matrix operations
   LAPACKE interface :  Fast linear algebra routines
   SCALAPACK package :  Parallel linear algebra routines




***************************************
The coordinates will be read from file: /Users/lailaal-madhagi/Desktop/Testing_XAS_Analysis_code/BenzylCarbamate/BenzylCarbamate_geom.xyz
***************************************


----- Orbital basis set information -----
Your calculation utilizes the basis: 6-31G*
   H-He, Li-Ne : W. J. Hehre, R. Ditchfield and J.A. Pople, J. Chem. Phys. 56, 2257 (1972).
                 Note: He and Ne are unpublished basis sets taken from the Gaussian program.
                 Note: Li and B from J. D. Dill and J. A. Pople, J. Chem. Phys. 62, 2921 (1975).
   Na - Ar     : M. M. Francl, W. J. Pietro, W. J. Hehre, J. S. Binkley, M. S. Gordon, 
                 D. J. DeFrees and J. A. Pople, J. Chem. Phys. 77, 3654 (1982).
   K - Zn      : V. A. Rassolov, J. A. Pople, M. A. Ratner, and T. L. Windus, J. Chem. Phys. 109, 1223 (1998).

================================================================================
                                        WARNINGS
                       Please study these warnings very carefully!
================================================================================


WARNING: Geometry Optimization
  ===> : Switching off AutoStart
         For restart on a previous wavefunction, please use MOREAD

INFO   : the flag for use of LIBINT has been found!

================================================================================
                                       INPUT FILE
================================================================================
NAME = /Users/lailaal-madhagi/Desktop/Testing_XAS_Analysis_code/BenzylCarbamate//Results_dir_BenzylCarbamate_geom_element_N_2019-11-07_07-11-17//GTE1_BenzylCarbamate_geom_2019-11-07_07-11-29//opt.inp
|  1> ! B3LYP 6-31G* TIGHTSCF Grid3 FinalGrid5 Opt 
|  2> !NormalPrint 
|  3> %output 
|  4> Print[P_Basis] 2 
|  5> Print[P_MOS] 1 
|  6> end 
|  7> *xyzfile 0 1 /Users/lailaal-madhagi/Desktop/Testing_XAS_Analysis_code/BenzylCarbamate/BenzylCarbamate_geom.xyz                           ****END OF INPUT****
================================================================================

                       *****************************
                       * Geometry Optimization Run *
                       *****************************

Geometry optimization settings:
Update method            Update   .... BFGS
Choice of coordinates    CoordSys .... Z-matrix Internals
Initial Hessian          InHess   .... Almoef's Model

Convergence Tolerances:
Energy Change            TolE     ....  5.0000e-06 Eh
Max. Gradient            TolMAXG  ....  3.0000e-04 Eh/bohr
RMS Gradient             TolRMSG  ....  1.0000e-04 Eh/bohr
Max. Displacement        TolMAXD  ....  4.0000e-03 bohr
RMS Displacement         TolRMSD  ....  2.0000e-03 bohr

------------------------------------------------------------------------------
                        ORCA OPTIMIZATION COORDINATE SETUP
------------------------------------------------------------------------------

The optimization will be done in new redundant internal coordinates
Making redundant internal coordinates   ...  (new redundants) done
Evaluating the initial hessian          ...  (Almloef) done
Evaluating the coordinates              ...  done
Calculating the B-matrix                .... done
Calculating the G-matrix                .... done
Diagonalizing the G-matrix              .... done
Small eigenvalue found = 8.324e-03
The first mode is                       ....   36
The number of degrees of freedom        ....   54

    -----------------------------------------------------------------
                    Redundant Internal Coordinates


    -----------------------------------------------------------------
         Definition                    Initial Value    Approx d2E/dq
    -----------------------------------------------------------------
      1. B(C   1,C   0)                  1.3968         0.609381   
      2. B(C   2,C   0)                  1.3986         0.605292   
      3. B(C   3,C   1)                  1.3966         0.609730   
      4. B(C   4,C   2)                  1.4098         0.581057   
      5. B(C   5,C   3)                  1.3982         0.606298   
      6. B(C   5,C   4)                  1.4052         0.590878   
      7. B(C   6,C   4)                  1.5091         0.403400   
      8. B(H   7,C   2)                  1.0822         0.370593   
      9. B(H   8,C   0)                  1.0824         0.370270   
     10. B(H   9,C   1)                  1.0823         0.370364   
     11. B(H  10,C   5)                  1.0833         0.369116   
     12. B(H  11,C   3)                  1.0824         0.370333   
     13. B(O  12,C   6)                  1.3816         0.577032   
     14. B(H  13,C   6)                  1.1121         0.332036   
     15. B(H  14,C   6)                  1.1121         0.332042   
     16. B(C  15,O  12)                  1.3597         0.625447   
     17. B(N  16,C  15)                  1.3569         0.631885   
     18. B(O  17,C  15)                  1.2207         1.042137   
     19. B(H  18,N  16)                  1.0292         0.403291   
     20. B(H  19,N  16)                  1.0309         0.400767   
     21. A(C   1,C   0,C   2)          120.1645         0.430857   
     22. A(C   1,C   0,H   8)          119.8914         0.353541   
     23. A(C   2,C   0,H   8)          119.9441         0.353139   
     24. A(C   3,C   1,H   9)          120.0074         0.353591   
     25. A(C   0,C   1,C   3)          119.9843         0.431422   
     26. A(C   0,C   1,H   9)          120.0083         0.353556   
     27. A(C   4,C   2,H   7)          121.1829         0.350759   
     28. A(C   0,C   2,C   4)          120.2987         0.427194   
     29. A(C   0,C   2,H   7)          118.5183         0.353191   
     30. A(C   5,C   3,H  11)          119.9647         0.353248   
     31. A(C   1,C   3,C   5)          120.0921         0.431030   
     32. A(C   1,C   3,H  11)          119.9432         0.353586   
     33. A(C   2,C   4,C   6)          122.4024         0.397516   
     34. A(C   2,C   4,C   5)          118.9549         0.425354   
     35. A(C   5,C   4,C   6)          118.6427         0.398689   
     36. A(C   3,C   5,H  10)          119.2143         0.353051   
     37. A(C   3,C   5,C   4)          120.5056         0.428607   
     38. A(C   4,C   5,H  10)          120.2801         0.351516   
     39. A(H  13,C   6,H  14)          109.4102         0.283561   
     40. A(O  12,C   6,H  14)          109.3496         0.341832   
     41. A(C   4,C   6,H  14)          108.5057         0.324089   
     42. A(O  12,C   6,H  13)          109.3486         0.341831   
     43. A(C   4,C   6,H  13)          108.5080         0.324088   
     44. A(C   4,C   6,O  12)          111.6859         0.394497   
     45. A(C   6,O  12,C  15)          125.6250         0.423600   
     46. A(N  16,C  15,O  17)          119.3012         0.472388   
     47. A(O  12,C  15,O  17)          118.6386         0.471500   
     48. A(O  12,C  15,N  16)          122.0602         0.430548   
     49. A(H  18,N  16,H  19)          117.9633         0.296242   
     50. A(C  15,N  16,H  19)          120.1553         0.355170   
     51. A(C  15,N  16,H  18)          121.8814         0.355548   
     52. D(H   9,C   1,C   0,H   8)      0.0006         0.025644   
     53. D(C   3,C   1,C   0,H   8)   -179.9998         0.025644   
     54. D(C   3,C   1,C   0,C   2)     -0.0005         0.025644   
     55. D(H   9,C   1,C   0,C   2)    179.9999         0.025644   
     56. D(C   4,C   2,C   0,C   1)     -0.0001         0.025282   
     57. D(C   4,C   2,C   0,H   8)    179.9993         0.025282   
     58. D(H   7,C   2,C   0,H   8)     -0.0000         0.025282   
     59. D(H   7,C   2,C   0,C   1)   -179.9994         0.025282   
     60. D(H  11,C   3,C   1,H   9)     -0.0004         0.025675   
     61. D(H  11,C   3,C   1,C   0)   -180.0000         0.025675   
     62. D(C   5,C   3,C   1,H   9)   -179.9995         0.025675   
     63. D(C   5,C   3,C   1,C   0)      0.0009         0.025675   
     64. D(C   5,C   4,C   2,H   7)    179.9995         0.023200   
     65. D(C   6,C   4,C   2,C   0)   -179.9984         0.023200   
     66. D(C   5,C   4,C   2,C   0)      0.0002         0.023200   
     67. D(C   6,C   4,C   2,H   7)      0.0009         0.023200   
     68. D(H  10,C   5,C   4,C   6)     -0.0018         0.024030   
     69. D(C   3,C   5,C   4,C   6)    179.9989         0.024030   
     70. D(C   3,C   5,C   4,C   2)      0.0002         0.024030   
     71. D(H  10,C   5,C   3,H  11)      0.0007         0.025370   
     72. D(H  10,C   5,C   3,C   1)    179.9999         0.025370   
     73. D(H  10,C   5,C   4,C   2)    179.9996         0.024030   
     74. D(C   4,C   5,C   3,H  11)   -179.9999         0.025370   
     75. D(C   4,C   5,C   3,C   1)     -0.0008         0.025370   
     76. D(H  14,C   6,C   4,C   5)    -59.3967         0.012068   
     77. D(H  14,C   6,C   4,C   2)    120.6019         0.012068   
     78. D(H  13,C   6,C   4,C   5)     59.3937         0.012068   
     79. D(H  13,C   6,C   4,C   2)   -120.6077         0.012068   
     80. D(O  12,C   6,C   4,C   5)    179.9987         0.012068   
     81. D(O  12,C   6,C   4,C   2)     -0.0027         0.012068   
     82. D(C  15,O  12,C   6,C   4)    179.9944         0.026688   
     83. D(C  15,O  12,C   6,H  14)     59.8839         0.026688   
     84. D(C  15,O  12,C   6,H  13)    -59.8929         0.026688   
     85. D(O  17,C  15,O  12,C   6)    179.9916         0.028737   
     86. D(N  16,C  15,O  12,C   6)     -0.0092         0.028737   
     87. D(H  19,N  16,C  15,O  17)      0.0000         0.032430   
     88. D(H  19,N  16,C  15,O  12)   -179.9992         0.032430   
     89. D(H  18,N  16,C  15,O  17)    179.9991         0.032430   
     90. D(H  18,N  16,C  15,O  12)     -0.0001         0.032430   
    -----------------------------------------------------------------

Number of atoms                         .... 20
Number of degrees of freedom            .... 90

         *************************************************************
         *                GEOMETRY OPTIMIZATION CYCLE   1            *
         *************************************************************
---------------------------------
CARTESIAN COORDINATES (ANGSTROEM)
---------------------------------
  C     -3.957840    0.137250    0.553450
  C     -3.799140   -0.866850   -0.404490
  C     -2.860320    0.906020    0.954220
  C     -2.542000   -1.104930   -0.964430
  C     -1.587140    0.673760    0.395220
  C     -1.441390   -0.339430   -0.567470
  C     -0.371190    1.474300    0.792660
  H     -3.013490    1.676850    1.698180
  H     -4.932820    0.320480    0.986430
  H     -4.650200   -1.460260   -0.712780
  H     -0.472880   -0.536210   -1.011020
  H     -2.419780   -1.883170   -1.706680
  O     -0.676570    2.427950    1.744630
  H      0.033530    1.975170   -0.114020
  H      0.392420    0.776840    1.201530
  C      0.203920    3.302140    2.300830
  N      1.516700    3.318400    1.957900
  O     -0.205730    4.094570    3.134160
  H      1.904390    2.668510    1.260390
  H      2.158660    3.994110    2.398360

----------------------------
CARTESIAN COORDINATES (A.U.)
----------------------------
  NO LB      ZA    FRAG     MASS         X           Y           Z
   0 C     6.0000    0    12.011   -7.479234    0.259365    1.045869
   1 C     6.0000    0    12.011   -7.179334   -1.638109   -0.764375
   2 C     6.0000    0    12.011   -5.405221    1.712130    1.803214
   3 C     6.0000    0    12.011   -4.803684   -2.088015   -1.822509
   4 C     6.0000    0    12.011   -2.999260    1.273222    0.746858
   5 C     6.0000    0    12.011   -2.723832   -0.641430   -1.072363
   6 C     6.0000    0    12.011   -0.701447    2.786023    1.497910
   7 H     1.0000    0     1.008   -5.694671    3.168787    3.209095
   8 H     1.0000    0     1.008   -9.321679    0.605619    1.864083
   9 H     1.0000    0     1.008   -8.787604   -2.759491   -1.346959
  10 H     1.0000    0     1.008   -0.893614   -1.013290   -1.910551
  11 H     1.0000    0     1.008   -4.572722   -3.558676   -3.225158
  12 O     8.0000    0    15.999   -1.278532    4.588161    3.296873
  13 H     1.0000    0     1.008    0.063363    3.732530   -0.215467
  14 H     1.0000    0     1.008    0.741566    1.468015    2.270563
  15 C     6.0000    0    12.011    0.385353    6.240140    4.347939
  16 N     7.0000    0    14.007    2.866148    6.270867    3.699895
  17 O     8.0000    0    15.999   -0.388773    7.737616    5.922704
  18 H     1.0000    0     1.008    3.598776    5.042753    2.381792
  19 H     1.0000    0     1.008    4.079276    7.547774    4.532244

--------------------------------
INTERNAL COORDINATES (ANGSTROEM)
--------------------------------
 C      0   0   0     0.000000000000     0.00000000     0.00000000
 C      1   0   0     1.396800466638     0.00000000     0.00000000
 C      1   2   0     1.398632924037   120.16450433     0.00000000
 C      2   1   3     1.396644503659   119.98427635     0.00000000
 C      3   1   2     1.409756369023   120.29873682     0.00000000
 C      4   2   1     1.398180912364   120.09206034     0.00000000
 C      5   3   1     1.509091530591   122.40240435   180.00159418
 H      3   1   2     1.082181324640   118.51832511   180.00062090
 H      1   2   3     1.082419010227   119.89143943   180.00066515
 H      2   1   3     1.082349886035   120.00830049   179.99994986
 H      6   4   2     1.083268475956   119.21431332   179.99986221
 H      4   2   1     1.082372527599   119.94319470   180.00001703
 O      7   5   3     1.381648344478   111.68594124     0.00000000
 H      7   5   3     1.112087072895   108.50796041   239.39233226
 H      7   5   3     1.112081544043   108.50565762   120.60189613
 C     13   7   5     1.359716601428   125.62504257   179.99435301
 N     16  13   7     1.356929143655   122.06024101     0.00000000
 O     16  13   7     1.220736382803   118.63855511   179.99158271
 H     17  16  13     1.029165073397   121.88140961     0.00000000
 H     17  16  13     1.030874219922   120.15528781   180.00084407

---------------------------
INTERNAL COORDINATES (A.U.)
---------------------------
 C      0   0   0     0.000000000000     0.00000000     0.00000000
 C      1   0   0     2.639570345679     0.00000000     0.00000000
 C      1   2   0     2.643033188315   120.16450433     0.00000000
 C      2   1   3     2.639275618361   119.98427635     0.00000000
 C      3   1   2     2.664053453004   120.29873682     0.00000000
 C      4   2   1     2.642179010045   120.09206034     0.00000000
 C      5   3   1     2.851769703836   122.40240435   180.00159418
 H      3   1   2     2.045026330814   118.51832511   180.00062090
 H      1   2   3     2.045475491478   119.89143943   180.00066515
 H      2   1   3     2.045344865687   120.00830049   179.99994986
 H      6   4   2     2.047080749067   119.21431332   179.99986221
 H      4   2   1     2.045387652041   119.94319470   180.00001703
 O      7   5   3     2.610936984450   111.68594124     0.00000000
 H      7   5   3     2.101540004846   108.50796041   239.39233226
 H      7   5   3     2.101529556829   108.50565762   120.60189613
 C     13   7   5     2.569491996446   125.62504257   179.99435301
 N     16  13   7     2.564224464644   122.06024101     0.00000000
 O     16  13   7     2.306857445212   118.63855511   179.99158271
 H     17  16  13     1.944840135317   121.88140961     0.00000000
 H     17  16  13     1.948069954172   120.15528781   180.00084407

---------------------
BASIS SET INFORMATION
---------------------
There are 4 groups of distinct atoms

 Group   1 Type C   : 10s4p1d contracted to 3s2p1d pattern {631/31/1}
 Group   2 Type H   : 4s contracted to 2s pattern {31}
 Group   3 Type O   : 10s4p1d contracted to 3s2p1d pattern {631/31/1}
 Group   4 Type N   : 10s4p1d contracted to 3s2p1d pattern {631/31/1}

Atom   0C    basis set group =>   1
Atom   1C    basis set group =>   1
Atom   2C    basis set group =>   1
Atom   3C    basis set group =>   1
Atom   4C    basis set group =>   1
Atom   5C    basis set group =>   1
Atom   6C    basis set group =>   1
Atom   7H    basis set group =>   2
Atom   8H    basis set group =>   2
Atom   9H    basis set group =>   2
Atom  10H    basis set group =>   2
Atom  11H    basis set group =>   2
Atom  12O    basis set group =>   3
Atom  13H    basis set group =>   2
Atom  14H    basis set group =>   2
Atom  15C    basis set group =>   1
Atom  16N    basis set group =>   4
Atom  17O    basis set group =>   3
Atom  18H    basis set group =>   2
Atom  19H    basis set group =>   2

-------------------------
BASIS SET IN INPUT FORMAT
-------------------------

 # Basis set for element : H 
 NewGTO H 
 S 3 
   1      18.7311370000      0.0334945995
   2       2.8253937000      0.2347269467
   3       0.6401217000      0.8137573184
 S 1 
   1       0.1612778000      1.0000000000
  end;

 # Basis set for element : C 
 NewGTO C 
 S 6 
   1    3047.5249000000      0.0018347002
   2     457.3695100000      0.0140373012
   3     103.9486900000      0.0688426061
   4      29.2101550000      0.2321844206
   5       9.2866630000      0.4679413416
   6       3.1639270000      0.3623120322
 S 3 
   1       7.8682724000     -0.1193324086
   2       1.8812885000     -0.1608542116
   3       0.5442493000      1.1434564826
 P 3 
   1       7.8682724000      0.0689990956
   2       1.8812885000      0.3164239798
   3       0.5442493000      0.7443082524
 S 1 
   1       0.1687144000      1.0000000000
 P 1 
   1       0.1687144000      1.0000000000
 D 1 
   1       0.8000000000      1.0000000000
  end;

 # Basis set for element : N 
 NewGTO N 
 S 6 
   1    4173.5110000000      0.0018347994
   2     627.4579000000      0.0139949958
   3     142.9021000000      0.0685869792
   4      40.2343300000      0.2322409295
   5      12.8202100000      0.4690698576
   6       4.3904370000      0.3604548906
 S 3 
   1      11.6263580000     -0.1149610229
   2       2.7162800000     -0.1691180337
   3       0.7722180000      1.1458522281
 P 3 
   1      11.6263580000      0.0675800232
   2       2.7162800000      0.3239071114
   3       0.7722180000      0.7408952549
 S 1 
   1       0.2120313000      1.0000000000
 P 1 
   1       0.2120313000      1.0000000000
 D 1 
   1       0.8000000000      1.0000000000
  end;

 # Basis set for element : O 
 NewGTO O 
 S 6 
   1    5484.6717000000      0.0018310998
   2     825.2349500000      0.0139500985
   3     188.0469600000      0.0684450927
   4      52.9645000000      0.2327142753
   5      16.8975700000      0.4701929501
   6       5.7996353000      0.3585208619
 S 3 
   1      15.5396160000     -0.1107775038
   2       3.5999336000     -0.1480263051
   3       1.0137618000      1.1307670390
 P 3 
   1      15.5396160000      0.0708742995
   2       3.5999336000      0.3397527978
   3       1.0137618000      0.7271585953
 S 1 
   1       0.2700058000      1.0000000000
 P 1 
   1       0.2700058000      1.0000000000
 D 1 
   1       0.8000000000      1.0000000000
  end;

------------------------------------------------------------------------------
                           ORCA GTO INTEGRAL CALCULATION
------------------------------------------------------------------------------

                         BASIS SET STATISTICS AND STARTUP INFO

 # of primitive gaussian shells          ...  201
 # of primitive gaussian functions       ...  333
 # of contracted shells                  ...   84
 # of contracted basis functions         ...  172
 Highest angular momentum                ...    2
 Maximum contraction depth               ...    6
 Integral package used                   ... LIBINT
 Integral threshhold            Thresh   ...  2.500e-11
 Primitive cut-off              TCut     ...  2.500e-12


------------------------------ INTEGRAL EVALUATION ----------------------------


 * One electron integrals 
 Pre-screening matrix                    ... done
 Shell pair data                         ... done (   0.003 sec)

-------------------------------------------------------------------------------
                                 ORCA SCF
-------------------------------------------------------------------------------

------------
SCF SETTINGS
------------
Hamiltonian:
 Density Functional     Method          .... DFT(GTOs)
 Exchange Functional    Exchange        .... B88
   X-Alpha parameter    XAlpha          ....  0.666667
   Becke's b parameter  XBeta           ....  0.004200
 Correlation Functional Correlation     .... LYP
 LDA part of GGA corr.  LDAOpt          .... VWN-5
 Gradients option       PostSCFGGA      .... off
 Hybrid DFT is turned on
   Fraction HF Exchange ScalHFX         ....  0.200000
   Scaling of DF-GGA-X  ScalDFX         ....  0.720000
   Scaling of DF-GGA-C  ScalDFC         ....  0.810000
   Scaling of DF-LDA-C  ScalLDAC        ....  1.000000
   Perturbative correction              ....  0.000000
   Density functional embedding theory  .... OFF
   NL short-range parameter             ....  4.800000


General Settings:
 Integral files         IntName         .... /Users/lailaal-madhagi/Desktop/Testing_XAS_Analysis_code/BenzylCarbamate//Results_dir_BenzylCarbamate_geom_element_N_2019-11-07_07-11-17//GTE1_BenzylCarbamate_geom_2019-11-07_07-11-29//opt
 Hartree-Fock type      HFTyp           .... RHF
 Total Charge           Charge          ....    0
 Multiplicity           Mult            ....    1
 Number of Electrons    NEL             ....   80
 Basis Dimension        Dim             ....  172
 Nuclear Repulsion      ENuc            ....    564.8936062309 Eh

Convergence Acceleration:
 DIIS                   CNVDIIS         .... on
   Start iteration      DIISMaxIt       ....    12
   Startup error        DIISStart       ....  0.200000
   # of expansion vecs  DIISMaxEq       ....     5
   Bias factor          DIISBfac        ....   1.050
   Max. coefficient     DIISMaxC        ....  10.000
 Newton-Raphson         CNVNR           .... off
 SOSCF                  CNVSOSCF        .... on
   Start iteration      SOSCFMaxIt      ....   150
   Startup grad/error   SOSCFStart      ....  0.003300
 Level Shifting         CNVShift        .... on
   Level shift para.    LevelShift      ....    0.2500
   Turn off err/grad.   ShiftErr        ....    0.0010
 Zerner damping         CNVZerner       .... off
 Static damping         CNVDamp         .... on
   Fraction old density DampFac         ....    0.7000
   Max. Damping (<1)    DampMax         ....    0.9800
   Min. Damping (>=0)   DampMin         ....    0.0000
   Turn off err/grad.   DampErr         ....    0.1000
 Fernandez-Rico         CNVRico         .... off

SCF Procedure:
 Maximum # iterations   MaxIter         ....   125
 SCF integral mode      SCFMode         .... Direct
   Integral package                     .... LIBINT
 Reset frequency        DirectResetFreq ....    20
 Integral Threshold     Thresh          ....  2.500e-11 Eh
 Primitive CutOff       TCut            ....  2.500e-12 Eh

Convergence Tolerance:
 Convergence Check Mode ConvCheckMode   .... Total+1el-Energy
 Convergence forced     ConvForced      .... 0
 Energy Change          TolE            ....  1.000e-08 Eh
 1-El. energy change                    ....  1.000e-05 Eh
 Orbital Gradient       TolG            ....  1.000e-05
 Orbital Rotation angle TolX            ....  1.000e-05
 DIIS Error             TolErr          ....  5.000e-07


Diagonalization of the overlap matrix:
Smallest eigenvalue                        ... 4.898e-04
Time for diagonalization                   ...    0.006 sec
Threshold for overlap eigenvalues          ... 1.000e-08
Number of eigenvalues below threshold      ... 0
Time for construction of square roots      ...    0.006 sec
Total time needed                          ...    0.012 sec

-------------------
DFT GRID GENERATION
-------------------

General Integration Accuracy     IntAcc      ...  4.340
Radial Grid Type                 RadialGrid  ... Gauss-Chebyshev
Angular Grid (max. acc.)         AngularGrid ... Lebedev-194
Angular grid pruning method      GridPruning ... 3 (G Style)
Weight generation scheme         WeightScheme... Becke
Basis function cutoff            BFCut       ...    1.0000e-11
Integration weight cutoff        WCut        ...    1.0000e-14
Grids for H and He will be reduced by one unit

# of grid points (after initial pruning)     ...  50012 (   0.0 sec)
# of grid points (after weights+screening)   ...  45979 (   0.1 sec)
nearest neighbour list constructed           ...    0.0 sec
Grid point re-assignment to atoms done       ...    0.0 sec
Grid point division into batches done        ...    0.1 sec
Reduced shell lists constructed in    0.3 sec

Total number of grid points                  ...    45979
Total number of batches                      ...      728
Average number of points per batch           ...       63
Average number of grid points per atom       ...     2299
Average number of shells per batch           ...    48.72 (58.00%)
Average number of basis functions per batch  ...   100.97 (58.71%)
Average number of large shells per batch     ...    35.68 (73.24%)
Average number of large basis fcns per batch ...    74.70 (73.98%)
Maximum spatial batch extension              ...  20.10, 18.65, 19.31 au
Average spatial batch extension              ...   2.97,  3.18,  3.23 au

Time for grid setup =    0.497 sec

------------------------------
INITIAL GUESS: MODEL POTENTIAL
------------------------------
Loading Hartree-Fock densities                     ... done
Calculating cut-offs                               ... done
Setting up the integral package                    ... done
Initializing the effective Hamiltonian             ... done
Starting the Coulomb interaction                   ... done (   0.1 sec)
Reading the grid                                   ... done
Mapping shells                                     ... done
Starting the XC term evaluation                    ... done (   0.3 sec)
  promolecular density results
     # of electrons  =     79.994659541
     EX              =    -66.779655772
     EC              =     -2.724843068
     EX+EC           =    -69.504498840
Transforming the Hamiltonian                       ... done (   0.0 sec)
Diagonalizing the Hamiltonian                      ... done (   0.0 sec)
Back transforming the eigenvectors                 ... done (   0.0 sec)
Now organizing SCF variables                       ... done
                      ------------------
                      INITIAL GUESS DONE (   1.1 sec)
                      ------------------
--------------
SCF ITERATIONS
--------------
               ***  Starting incremental Fock matrix formation  ***

                         ----------------------------
                         !        ITERATION     0   !
                         ----------------------------
   Total Energy        :    -514.820815403302 Eh
   Energy Change       :    -514.820815403302 Eh
   MAX-DP              :       0.099702816088
   RMS-DP              :       0.002712080001
   Actual Damping      :       0.7000
   Actual Level Shift  :       0.2500 Eh
   Int. Num. El.       :    80.00001829 (UP=   40.00000915 DN=   40.00000915)
   Exchange            :   -54.73933440
   Correlation         :    -3.24724586


                         ----------------------------
                         !        ITERATION     1   !
                         ----------------------------
   Total Energy        :    -514.982284304421 Eh
   Energy Change       :      -0.161468901118 Eh
   MAX-DP              :       0.053098527743
   RMS-DP              :       0.001789616950
   Actual Damping      :       0.7000
   Actual Level Shift  :       0.2500 Eh
   Int. Num. El.       :    80.00004439 (UP=   40.00002220 DN=   40.00002220)
   Exchange            :   -54.31611639
   Correlation         :    -3.23240997

                               ***Turning on DIIS***

                         ----------------------------
                         !        ITERATION     2   !
                         ----------------------------
   Total Energy        :    -515.042888612763 Eh
   Energy Change       :      -0.060604308343 Eh
   MAX-DP              :       0.068220866231
   RMS-DP              :       0.002689099430
   Actual Damping      :       0.0000
   Actual Level Shift  :       0.2500 Eh
   Int. Num. El.       :    80.00004912 (UP=   40.00002456 DN=   40.00002456)
   Exchange            :   -54.05099948
   Correlation         :    -3.22232233
   DIIS-Error          :       0.042442717699


                         ----------------------------
                         !        ITERATION     3   !
                         ----------------------------
   Total Energy        :    -515.141692990377 Eh
   Energy Change       :      -0.098804377614 Eh
   MAX-DP              :       0.036442391808
   RMS-DP              :       0.001266755834
   Actual Damping      :       0.0000
   Actual Level Shift  :       0.2500 Eh
   Int. Num. El.       :    80.00003541 (UP=   40.00001771 DN=   40.00001771)
   Exchange            :   -53.67828107
   Correlation         :    -3.20674537
   DIIS-Error          :       0.058259170542
   DIIS coefficients:
      0.59069   0.40931


                         ----------------------------
                         !        ITERATION     4   !
                         ----------------------------
   Total Energy        :    -515.161761414444 Eh
   Energy Change       :      -0.020068424067 Eh
   MAX-DP              :       0.011824188269
   RMS-DP              :       0.000416758961
   Actual Damping      :       0.0000
   Actual Level Shift  :       0.2500 Eh
   Int. Num. El.       :    80.00002781 (UP=   40.00001390 DN=   40.00001390)
   Exchange            :   -53.84055877
   Correlation         :    -3.21322581
   DIIS-Error          :       0.014870801607
   DIIS coefficients:
      0.27369   0.09630   0.63001


                         ----------------------------
                         !        ITERATION     5   !
                         ----------------------------
   Total Energy        :    -515.163320229644 Eh
   Energy Change       :      -0.001558815200 Eh
   MAX-DP              :       0.004014892704
   RMS-DP              :       0.000128865218
   Actual Damping      :       0.0000
   Actual Level Shift  :       0.2500 Eh
   Int. Num. El.       :    80.00003242 (UP=   40.00001621 DN=   40.00001621)
   Exchange            :   -53.87054953
   Correlation         :    -3.21488790
   DIIS-Error          :       0.005546932446
   DIIS coefficients:
      0.06440   0.00495   0.15630   0.77435

                      *** Initiating the SOSCF procedure ***
                           *** Shutting down DIIS ***
                      *** Re-Reading the Fockian *** 
                      *** Removing any level shift *** 

                         ----------------------------
                         !        ITERATION     6   !
                         ----------------------------
   Total Energy        :    -515.163395569276 Eh
   Energy Change       :      -0.000075339632 Eh
   MAX-DP              :       0.001358357229
   RMS-DP              :       0.000040210442
   Orbital gradient    :       0.000315250576
   Orbital Rotation    :       0.000315250576
   Actual Damping      :       0.0000
   Int. Num. El.       :    80.00003610 (UP=   40.00001805 DN=   40.00001805)
   Exchange            :   -53.87924566
   Correlation         :    -3.21521465

               *** Restarting incremental Fock matrix formation ***

                         ----------------------------
                         !        ITERATION     7   !
                         ----------------------------
   Total Energy        :    -515.163402861519 Eh
   Energy Change       :      -0.000007292242 Eh
   MAX-DP              :       0.001046228870
   RMS-DP              :       0.000023670153
   Orbital gradient    :       0.000136835398
   Orbital Rotation    :       0.000439442315
   Actual Damping      :       0.0000
   Int. Num. El.       :    80.00003653 (UP=   40.00001827 DN=   40.00001827)
   Exchange            :   -53.87967789
   Correlation         :    -3.21521573


                         ----------------------------
                         !        ITERATION     8   !
                         ----------------------------
   Total Energy        :    -515.163402916931 Eh
   Energy Change       :      -0.000000055412 Eh
   MAX-DP              :       0.000284250744
   RMS-DP              :       0.000010042384
   Orbital gradient    :       0.000232209793
   Orbital Rotation    :       0.000270425368
   Actual Damping      :       0.0000
   Int. Num. El.       :    80.00003744 (UP=   40.00001872 DN=   40.00001872)
   Exchange            :   -53.87902535
   Correlation         :    -3.21521104


                         ----------------------------
                         !        ITERATION     9   !
                         ----------------------------
   Total Energy        :    -515.163403905877 Eh
   Energy Change       :      -0.000000988946 Eh
   MAX-DP              :       0.000158705394
   RMS-DP              :       0.000004931168
   Orbital gradient    :       0.000047517962
   Orbital Rotation    :       0.000148888755
   Actual Damping      :       0.0000
   Int. Num. El.       :    80.00003742 (UP=   40.00001871 DN=   40.00001871)
   Exchange            :   -53.87951883
   Correlation         :    -3.21521868


                         ----------------------------
                         !        ITERATION    10   !
                         ----------------------------
   Total Energy        :    -515.163403868509 Eh
   Energy Change       :       0.000000037367 Eh
   MAX-DP              :       0.000082141200
   RMS-DP              :       0.000002328123
   Orbital gradient    :       0.000054053995
   Orbital Rotation    :       0.000075584686
   Actual Damping      :       0.0000
   Int. Num. El.       :    80.00003727 (UP=   40.00001864 DN=   40.00001864)
   Exchange            :   -53.87947386
   Correlation         :    -3.21521434


                         ----------------------------
                         !        ITERATION    11   !
                         ----------------------------
   Total Energy        :    -515.163403947265 Eh
   Energy Change       :      -0.000000078755 Eh
   MAX-DP              :       0.000027111542
   RMS-DP              :       0.000000938124
   Orbital gradient    :       0.000006956957
   Orbital Rotation    :       0.000017696918
   Actual Damping      :       0.0000
   Int. Num. El.       :    80.00003732 (UP=   40.00001866 DN=   40.00001866)
   Exchange            :   -53.87943994
   Correlation         :    -3.21521485


                         ----------------------------
                         !        ITERATION    12   !
                         ----------------------------
   Total Energy        :    -515.163403947107 Eh
   Energy Change       :       0.000000000158 Eh
   MAX-DP              :       0.000013855842
   RMS-DP              :       0.000000477505
   Orbital gradient    :       0.000009257246
   Orbital Rotation    :       0.000010407075
   Actual Damping      :       0.0000
   Int. Num. El.       :    80.00003734 (UP=   40.00001867 DN=   40.00001867)
   Exchange            :   -53.87948767
   Correlation         :    -3.21521727

                  ***Gradient check signals convergence***
              ***Rediagonalizing the Fockian in SOSCF/NRSCF***

               *****************************************************
               *                     SUCCESS                       *
               *           SCF CONVERGED AFTER  13 CYCLES          *
               *****************************************************

Setting up the final grid:

General Integration Accuracy     IntAcc      ...  5.010
Radial Grid Type                 RadialGrid  ... Gauss-Chebyshev
Angular Grid (max. acc.)         AngularGrid ... Lebedev-434
Angular grid pruning method      GridPruning ... 3 (G Style)
Weight generation scheme         WeightScheme... Becke
Basis function cutoff            BFCut       ...    1.0000e-11
Integration weight cutoff        WCut        ...    1.0000e-14
Grids for H and He will be reduced by one unit

# of grid points (after initial pruning)     ... 178086 (   0.1 sec)
# of grid points (after weights+screening)   ... 161994 (   0.4 sec)
nearest neighbour list constructed           ...    0.0 sec
Grid point re-assignment to atoms done       ...    0.0 sec
Grid point division into batches done        ...    0.8 sec
Reduced shell lists constructed in    1.8 sec

Total number of grid points                  ...   161994
Total number of batches                      ...     2541
Average number of points per batch           ...       63
Average number of grid points per atom       ...     8100
Average number of shells per batch           ...    44.95 (53.52%)
Average number of basis functions per batch  ...    92.83 (53.97%)
Average number of large shells per batch     ...    32.36 (71.99%)
Average number of large basis fcns per batch ...    67.61 (72.83%)
Maximum spatial batch extension              ...  16.66, 18.48, 18.99 au
Average spatial batch extension              ...   1.98,  2.04,  2.07 au

Final grid set up in    2.3 sec
Final integration                            ... done (   1.5 sec)
Change in XC energy                          ...    -0.000167443
Integrated number of electrons               ...    79.999961392
Previous integrated no of electrons          ...    80.000037330

----------------
TOTAL SCF ENERGY
----------------

Total Energy       :         -515.16357139 Eh          -14018.31345 eV

Components:
Nuclear Repulsion  :          564.89360623 Eh           15371.53650 eV
Electronic Energy  :        -1080.05717762 Eh          -29389.84995 eV
One Electron Energy:        -1819.98580731 Eh          -49524.33159 eV
Two Electron Energy:          739.92862969 Eh           20134.48163 eV

Virial components:
Potential Energy   :        -1027.23826665 Eh          -27952.57432 eV
Kinetic Energy     :          512.07469526 Eh           13934.26086 eV
Virial Ratio       :            2.00603208


DFT components:
N(Alpha)           :       39.999980695914 electrons
N(Beta)            :       39.999980695914 electrons
N(Total)           :       79.999961391828 electrons
E(X)               :      -53.879618656814 Eh       
E(C)               :       -3.215236410466 Eh       
E(XC)              :      -57.094855067281 Eh       
DFET-embed. en.    :        0.000000000000 Eh       

---------------
SCF CONVERGENCE
---------------

  Last Energy change         ...   -8.1320e-10  Tolerance :   1.0000e-08
  Last MAX-Density change    ...    7.4679e-06  Tolerance :   1.0000e-07
  Last RMS-Density change    ...    2.5592e-07  Tolerance :   5.0000e-09
  Last Orbital Gradient      ...    2.2119e-06  Tolerance :   1.0000e-05
  Last Orbital Rotation      ...    3.3338e-06  Tolerance :   1.0000e-05

             **** THE GBW FILE WAS UPDATED (/Users/lailaal-madhagi/Desktop/Testing_XAS_Analysis_code/BenzylCarbamate//Results_dir_BenzylCarbamate_geom_element_N_2019-11-07_07-11-17//GTE1_BenzylCarbamate_geom_2019-11-07_07-11-29//opt.gbw) ****
             **** DENSITY FILE WAS UPDATED (/Users/lailaal-madhagi/Desktop/Testing_XAS_Analysis_code/BenzylCarbamate//Results_dir_BenzylCarbamate_geom_element_N_2019-11-07_07-11-17//GTE1_BenzylCarbamate_geom_2019-11-07_07-11-29//opt.scfp.tmp) ****
             **** ENERGY FILE WAS UPDATED (/Users/lailaal-madhagi/Desktop/Testing_XAS_Analysis_code/BenzylCarbamate//Results_dir_BenzylCarbamate_geom_element_N_2019-11-07_07-11-17//GTE1_BenzylCarbamate_geom_2019-11-07_07-11-29//opt.en.tmp) ****
----------------
ORBITAL ENERGIES
----------------

  NO   OCC          E(Eh)            E(eV) 
   0   2.0000     -19.182852      -521.9919 
   1   2.0000     -19.092765      -519.5405 
   2   2.0000     -14.360496      -390.7690 
   3   2.0000     -10.327940      -281.0375 
   4   2.0000     -10.254046      -279.0268 
   5   2.0000     -10.197877      -277.4984 
   6   2.0000     -10.185944      -277.1736 
   7   2.0000     -10.183951      -277.1194 
   8   2.0000     -10.181094      -277.0417 
   9   2.0000     -10.180461      -277.0244 
  10   2.0000     -10.180160      -277.0162 
  11   2.0000      -1.103645       -30.0317 
  12   2.0000      -1.005105       -27.3503 
  13   2.0000      -0.902492       -24.5581 
  14   2.0000      -0.852863       -23.2076 
  15   2.0000      -0.777753       -21.1637 
  16   2.0000      -0.742329       -20.1998 
  17   2.0000      -0.702760       -19.1231 
  18   2.0000      -0.620951       -16.8969 
  19   2.0000      -0.597199       -16.2506 
  20   2.0000      -0.587689       -15.9918 
  21   2.0000      -0.560641       -15.2558 
  22   2.0000      -0.527099       -14.3431 
  23   2.0000      -0.509508       -13.8644 
  24   2.0000      -0.498459       -13.5638 
  25   2.0000      -0.463427       -12.6105 
  26   2.0000      -0.438084       -11.9209 
  27   2.0000      -0.432797       -11.7770 
  28   2.0000      -0.417851       -11.3703 
  29   2.0000      -0.415205       -11.2983 
  30   2.0000      -0.400933       -10.9099 
  31   2.0000      -0.359302        -9.7771 
  32   2.0000      -0.356250        -9.6941 
  33   2.0000      -0.343539        -9.3482 
  34   2.0000      -0.334778        -9.1098 
  35   2.0000      -0.301822        -8.2130 
  36   2.0000      -0.260725        -7.0947 
  37   2.0000      -0.255400        -6.9498 
  38   2.0000      -0.247903        -6.7458 
  39   2.0000      -0.240721        -6.5503 
  40   0.0000      -0.004610        -0.1255 
  41   0.0000       0.002404         0.0654 
  42   0.0000       0.056053         1.5253 
  43   0.0000       0.060189         1.6378 
  44   0.0000       0.097727         2.6593 
  45   0.0000       0.105018         2.8577 
  46   0.0000       0.123290         3.3549 
  47   0.0000       0.136358         3.7105 
  48   0.0000       0.139328         3.7913 
  49   0.0000       0.152486         4.1494 
  50   0.0000       0.164325         4.4715 
  51   0.0000       0.191995         5.2245 
  52   0.0000       0.193206         5.2574 
  53   0.0000       0.214042         5.8244 
  54   0.0000       0.225561         6.1378 
  55   0.0000       0.266751         7.2587 
  56   0.0000       0.297172         8.0865 
  57   0.0000       0.306055         8.3282 
  58   0.0000       0.329312         8.9610 
  59   0.0000       0.342269         9.3136 
  60   0.0000       0.363984         9.9045 
  61   0.0000       0.397077        10.8050 
  62   0.0000       0.476434        12.9644 
  63   0.0000       0.512873        13.9560 
  64   0.0000       0.525086        14.2883 
  65   0.0000       0.527301        14.3486 
  66   0.0000       0.540471        14.7070 
  67   0.0000       0.548733        14.9318 
  68   0.0000       0.572883        15.5889 
  69   0.0000       0.583157        15.8685 
  70   0.0000       0.588154        16.0045 
  71   0.0000       0.599830        16.3222 
  72   0.0000       0.601693        16.3729 
  73   0.0000       0.605944        16.4886 
  74   0.0000       0.619481        16.8569 
  75   0.0000       0.623656        16.9705 
  76   0.0000       0.639567        17.4035 
  77   0.0000       0.657257        17.8849 
  78   0.0000       0.670430        18.2433 
  79   0.0000       0.671978        18.2855 
  80   0.0000       0.683594        18.6015 
  81   0.0000       0.690059        18.7775 
  82   0.0000       0.712456        19.3869 
  83   0.0000       0.745660        20.2904 
  84   0.0000       0.784868        21.3573 
  85   0.0000       0.829651        22.5760 
  86   0.0000       0.831067        22.6145 
  87   0.0000       0.839058        22.8319 
  88   0.0000       0.846382        23.0312 
  89   0.0000       0.850729        23.1495 
  90   0.0000       0.856172        23.2976 
  91   0.0000       0.873236        23.7620 
  92   0.0000       0.883800        24.0494 
  93   0.0000       0.920464        25.0471 
  94   0.0000       0.923654        25.1339 
  95   0.0000       0.949036        25.8246 
  96   0.0000       0.955822        26.0092 
  97   0.0000       0.989953        26.9380 
  98   0.0000       1.005509        27.3613 
  99   0.0000       1.028218        27.9792 
 100   0.0000       1.056999        28.7624 
 101   0.0000       1.089851        29.6564 
 102   0.0000       1.090872        29.6841 
 103   0.0000       1.117376        30.4053 
 104   0.0000       1.134808        30.8797 
 105   0.0000       1.164900        31.6985 
 106   0.0000       1.197783        32.5933 
 107   0.0000       1.207848        32.8672 
 108   0.0000       1.254801        34.1449 
 109   0.0000       1.272641        34.6303 
 110   0.0000       1.286758        35.0145 
 111   0.0000       1.351851        36.7857 
 112   0.0000       1.375360        37.4255 
 113   0.0000       1.410484        38.3812 
 114   0.0000       1.433635        39.0112 
 115   0.0000       1.458358        39.6839 
 116   0.0000       1.464490        39.8508 
 117   0.0000       1.481904        40.3247 
 118   0.0000       1.487070        40.4652 
 119   0.0000       1.495621        40.6979 
 120   0.0000       1.513368        41.1808 
 121   0.0000       1.561154        42.4812 
 122   0.0000       1.654716        45.0271 
 123   0.0000       1.675249        45.5858 
 124   0.0000       1.739738        47.3407 
 125   0.0000       1.768797        48.1314 
 126   0.0000       1.794619        48.8341 
 127   0.0000       1.810934        49.2780 
 128   0.0000       1.814186        49.3665 
 129   0.0000       1.840120        50.0722 
 130   0.0000       1.882774        51.2329 
 131   0.0000       1.903306        51.7916 
 132   0.0000       1.917448        52.1764 
 133   0.0000       1.926172        52.4138 
 134   0.0000       1.940968        52.8164 
 135   0.0000       1.979723        53.8710 
 136   0.0000       1.986956        54.0678 
 137   0.0000       2.024635        55.0931 
 138   0.0000       2.052446        55.8499 
 139   0.0000       2.057320        55.9825 
 140   0.0000       2.096637        57.0524 
 141   0.0000       2.119202        57.6664 
 142   0.0000       2.134779        58.0903 
 143   0.0000       2.140554        58.2474 
 144   0.0000       2.168870        59.0180 
 145   0.0000       2.189860        59.5891 
 146   0.0000       2.225348        60.5548 
 147   0.0000       2.237563        60.8872 
 148   0.0000       2.250593        61.2418 
 149   0.0000       2.283406        62.1346 
 150   0.0000       2.306801        62.7712 
 151   0.0000       2.325984        63.2932 
 152   0.0000       2.399215        65.2860 
 153   0.0000       2.418664        65.8152 
 154   0.0000       2.564005        69.7701 
 155   0.0000       2.578145        70.1549 
 156   0.0000       2.592997        70.5590 
 157   0.0000       2.595929        70.6388 
 158   0.0000       2.648991        72.0827 
 159   0.0000       2.653649        72.2095 
 160   0.0000       2.661280        72.4171 
 161   0.0000       2.716019        73.9066 
 162   0.0000       2.722216        74.0753 
 163   0.0000       2.741537        74.6010 
 164   0.0000       2.769476        75.3613 
 165   0.0000       2.838896        77.2503 
 166   0.0000       2.884329        78.4866 
 167   0.0000       2.950286        80.2814 
 168   0.0000       3.043317        82.8129 
 169   0.0000       3.180849        86.5553 
 170   0.0000       3.220066        87.6225 
 171   0.0000       3.411384        92.8285 
------------------
MOLECULAR ORBITALS
------------------
                      0         1         2         3         4         5   
                 -19.18285 -19.09276 -14.36050 -10.32794 -10.25405 -10.19788
                   2.00000   2.00000   2.00000   2.00000   2.00000   2.00000
                  --------  --------  --------  --------  --------  --------
  0C   1s        -0.000011 -0.000013 -0.000011 -0.000037  0.000090 -0.000104
  0C   2s        -0.000049 -0.000095 -0.000070 -0.000189  0.000408  0.000101
  0C   1pz       -0.000019 -0.000007  0.000015  0.000059 -0.000026  0.000007
  0C   1px        0.000060 -0.000019  0.000007  0.000057  0.000011  0.000168
  0C   1py       -0.000003 -0.000014  0.000018  0.000081 -0.000025  0.000058
  0C   3s         0.002120  0.000685  0.000940  0.002527 -0.004195  0.002161
  0C   2pz        0.000306  0.000234 -0.000179 -0.000268  0.000738 -0.000911
  0C   2px        0.000784  0.000424  0.000638  0.001524 -0.002381  0.001126
  0C   2py        0.000571  0.000383 -0.000005  0.000162  0.000097 -0.000663
  0C   1dz2      -0.000017 -0.000015 -0.000010 -0.000035  0.000047 -0.000009
  0C   1dxz       0.000020  0.000001  0.000001  0.000026 -0.000016  0.000029
  0C   1dyz       0.000014  0.000022  0.000010  0.000035 -0.000099 -0.000077
  0C   1dx2y2     0.000010  0.000016  0.000012  0.000028 -0.000035  0.000016
  0C   1dxy       0.000036  0.000020  0.000013  0.000062 -0.000078  0.000017
  1C   1s         0.000009  0.000002  0.000005  0.000010 -0.000014  0.000442
  1C   2s         0.000085  0.000000  0.000032  0.000053 -0.000073  0.000416
  1C   1pz        0.000019  0.000001 -0.000014 -0.000059  0.000009  0.000030
  1C   1px        0.000040 -0.000011  0.000006  0.000082  0.000013  0.000100
  1C   1py        0.000033 -0.000002 -0.000013 -0.000040  0.000014  0.000063
  1C   3s        -0.000230 -0.000183 -0.000652 -0.000211  0.001996 -0.002814
  1C   2pz       -0.000220  0.000067 -0.000028 -0.000166  0.000951 -0.000591
  1C   2px       -0.000612 -0.000355 -0.000321 -0.000204  0.001102 -0.001346
  1C   2py       -0.000425 -0.000032 -0.000127 -0.000243  0.001375 -0.001052
  1C   1dz2       0.000003  0.000003  0.000001 -0.000007  0.000005  0.000016
  1C   1dxz       0.000009 -0.000001  0.000003 -0.000005 -0.000001  0.000019
  1C   1dyz      -0.000013  0.000006 -0.000008 -0.000027  0.000016 -0.000060
  1C   1dx2y2    -0.000005 -0.000006 -0.000001  0.000020 -0.000011 -0.000019
  1C   1dxy       0.000003 -0.000002 -0.000000 -0.000003 -0.000002 -0.000011
  2C   1s         0.000016 -0.000013  0.000012  0.000052  0.000087 -0.010983
  2C   2s         0.000058 -0.000117  0.000063  0.000307  0.000183  0.001423
  2C   1pz       -0.000022 -0.000031 -0.000024 -0.000030  0.000044 -0.000496
  2C   1px       -0.000059 -0.000012 -0.000032 -0.000216  0.000310  0.001161
  2C   1py       -0.000041 -0.000038 -0.000036 -0.000098  0.000142 -0.000196
  2C   3s        -0.000920  0.001155 -0.001259 -0.005801  0.003746 -0.009300
  2C   2pz        0.000877 -0.000360  0.000659  0.001717 -0.001294  0.002043
  2C   2px        0.001619  0.001392 -0.000042 -0.000538 -0.000424 -0.003604
  2C   2py        0.001448  0.000022  0.000711  0.001724 -0.001548  0.001164
  2C   1dz2       0.000010 -0.000002  0.000010  0.000067 -0.000096 -0.000341
  2C   1dxz      -0.000049 -0.000058  0.000005 -0.000013  0.000086 -0.000788
  2C   1dyz      -0.000057  0.000025 -0.000015 -0.000054 -0.000127  0.000150
  2C   1dx2y2     0.000025  0.000028 -0.000014 -0.000077  0.000125  0.000874
  2C   1dxy      -0.000063 -0.000043 -0.000008 -0.000086  0.000140 -0.000321
  3C   1s        -0.000013 -0.000014  0.000000  0.000038  0.000097 -0.000211
  3C   2s        -0.000056 -0.000106  0.000001  0.000199  0.000433  0.000117
  3C   1pz        0.000048 -0.000014 -0.000002  0.000037 -0.000001  0.000095
  3C   1px        0.000025  0.000003 -0.000009 -0.000091  0.000016  0.000082
  3C   1py        0.000061 -0.000015 -0.000005  0.000014  0.000004  0.000129
  3C   3s         0.002533  0.000542  0.000138 -0.000696 -0.004956  0.002068
  3C   2pz        0.000327  0.000287  0.000163 -0.000722 -0.001297  0.000900
  3C   2px        0.000927 -0.000069 -0.000320  0.000142 -0.001914 -0.000426
  3C   2py        0.000636  0.000294  0.000083 -0.000750 -0.001997  0.000861
  3C   1dz2      -0.000021 -0.000014  0.000004  0.000025  0.000058  0.000016
  3C   1dxz       0.000017 -0.000001 -0.000008 -0.000019 -0.000016  0.000060
  3C   1dyz       0.000006  0.000024 -0.000003 -0.000048 -0.000083 -0.000036
  3C   1dx2y2     0.000020  0.000015 -0.000001 -0.000015 -0.000055 -0.000046
  3C   1dxy       0.000037  0.000017 -0.000012 -0.000050 -0.000086  0.000029
  4C   1s         0.000089 -0.000013 -0.000009  0.000031 -0.001569 -0.994936
  4C   2s         0.000430 -0.000087 -0.000025  0.000171  0.000713 -0.036666
  4C   1pz        0.000014  0.000033 -0.000006 -0.000229  0.000297  0.000075
  4C   1px       -0.000029 -0.000056  0.000068  0.000175  0.000415  0.000032
  4C   1py        0.000007  0.000019  0.000014 -0.000199  0.000450  0.000092
  4C   3s        -0.004823  0.000964  0.001156 -0.004126 -0.005603  0.031606
  4C   2pz       -0.002221 -0.000547  0.000047  0.002404 -0.002561  0.000250
  4C   2px       -0.002981  0.002731 -0.000752 -0.006011 -0.000528 -0.000955
  4C   2py       -0.003331  0.000218 -0.000174  0.000839 -0.002970 -0.000012
  4C   1dz2       0.000085 -0.000034 -0.000010  0.000002 -0.000355  0.000110
  4C   1dxz      -0.000113  0.000054 -0.000012 -0.000085  0.000423  0.000335
  4C   1dyz      -0.000130  0.000018  0.000001 -0.000085  0.000250 -0.000546
  4C   1dx2y2    -0.000031  0.000017  0.000020  0.000063  0.000228 -0.000202
  4C   1dxy      -0.000204  0.000083 -0.000000 -0.000092  0.000750  0.000074
  5C   1s         0.000003  0.000002  0.000004 -0.000039  0.000049 -0.016931
  5C   2s        -0.000032 -0.000017  0.000039 -0.000232  0.000279  0.001185
  5C   1pz       -0.000081 -0.000029  0.000019  0.000084  0.000113  0.000889
  5C   1px       -0.000076 -0.000021  0.000022  0.000094  0.000207 -0.000107
  5C   1py       -0.000112 -0.000038  0.000028  0.000121  0.000186  0.000944
  5C   3s        -0.002395 -0.000874 -0.000159  0.004159  0.001038 -0.008420
  5C   2pz        0.000316 -0.000022 -0.000354  0.001102 -0.001756 -0.002480
  5C   2px        0.002298 -0.000270  0.000090 -0.000022 -0.003187  0.001031
  5C   2py        0.001036 -0.000105 -0.000362  0.001203 -0.002883 -0.002414
  5C   1dz2       0.000035  0.000009 -0.000010 -0.000018 -0.000004  0.000262
  5C   1dxz      -0.000011 -0.000043  0.000019  0.000070  0.000145 -0.000150
  5C   1dyz       0.000034  0.000005 -0.000013  0.000091 -0.000116  0.001126
  5C   1dx2y2    -0.000054  0.000008  0.000008 -0.000034 -0.000043 -0.000577
  5C   1dxy      -0.000037 -0.000044  0.000023  0.000094  0.000104 -0.000154
  6C   1s        -0.000114 -0.000050  0.000010  0.000201 -0.995272  0.001516
  6C   2s        -0.001001 -0.000572  0.000113  0.000663 -0.037687  0.000946
  6C   1pz        0.000481 -0.000244 -0.000138  0.000295 -0.001187 -0.000188
  6C   1px       -0.000134 -0.000156  0.000096  0.000196  0.000568 -0.000771
  6C   1py        0.000488 -0.000314 -0.000123  0.000382 -0.001133 -0.000438
  6C   3s         0.012697 -0.000624 -0.002040  0.002040  0.026711 -0.005998
  6C   2pz        0.002207  0.001540 -0.000730 -0.002996 -0.001673 -0.000007
  6C   2px       -0.002752  0.001669  0.000095 -0.003639 -0.000465  0.003683
  6C   2py        0.001599  0.002191 -0.000773 -0.004379 -0.001975  0.001096
  6C   1dz2      -0.000095  0.000033 -0.000050 -0.000089 -0.000211 -0.000468
  6C   1dxz       0.000187 -0.000106  0.000046  0.000064  0.000156  0.000428
  6C   1dyz      -0.000014  0.000022 -0.000084 -0.000200 -0.000818  0.000287
  6C   1dx2y2     0.000042  0.000003  0.000068  0.000144  0.000425  0.000379
  6C   1dxy       0.000248 -0.000118  0.000071  0.000099  0.000172  0.000870
  7H   1s        -0.000170 -0.000047 -0.000030 -0.000124  0.000169  0.000290
  7H   2s        -0.000496  0.000193 -0.000324 -0.000240  0.000518 -0.000227
  8H   1s        -0.000048 -0.000020  0.000020  0.000034 -0.000031  0.000067
  8H   2s         0.000007  0.000086  0.000183  0.000326 -0.000710  0.000211
  9H   1s        -0.000072 -0.000024 -0.000004 -0.000023  0.000122 -0.000043
  9H   2s        -0.000262 -0.000067 -0.000072 -0.000119  0.000448 -0.000543
 10H   1s        -0.000193  0.000003  0.000031 -0.000005  0.000305  0.000271
 10H   2s        -0.000281  0.000285 -0.000220 -0.000284  0.000353 -0.000100
 11H   1s        -0.000052  0.000010  0.000016 -0.000064  0.000043  0.000052
 11H   2s        -0.000020  0.000143  0.000065 -0.000367 -0.000542  0.000137
 12O   1s         0.995184  0.000343 -0.000014 -0.000166 -0.000104 -0.000005
 12O   2s         0.031115 -0.000484  0.000114 -0.001364 -0.000585  0.000058
 12O   1pz       -0.000518 -0.000001  0.000230  0.000016 -0.000127 -0.000037
 12O   1px        0.001670 -0.000275 -0.000015  0.000089 -0.000004  0.000005
 12O   1py       -0.000069 -0.000083  0.000248  0.000045 -0.000141 -0.000039
 12O   3s        -0.025836  0.001526 -0.000160  0.006470  0.000952  0.000487
 12O   2pz        0.001176 -0.000671 -0.001934  0.002337 -0.002009 -0.000499
 12O   2px       -0.004949  0.002059  0.001125  0.003564  0.001399 -0.000236
 12O   2py       -0.000190 -0.000121 -0.001787  0.003633 -0.001787 -0.000619
 12O   1dz2       0.000040 -0.000225 -0.000117 -0.000554  0.000337  0.000110
 12O   1dxz      -0.000028 -0.000123  0.000005  0.000941 -0.000638 -0.000044
 12O   1dyz      -0.000528 -0.000104 -0.000184  0.001139  0.001719 -0.000031
 12O   1dx2y2     0.000087  0.000417  0.000213  0.000023 -0.000573 -0.000128
 12O   1dxy      -0.000168  0.000088  0.000080  0.001561 -0.000526 -0.000149
 13H   1s        -0.000546 -0.000116  0.000060  0.000248  0.000424  0.000413
 13H   2s        -0.000948  0.000106  0.000494 -0.000012 -0.005344 -0.001058
 14H   1s        -0.000546 -0.000116  0.000060  0.000248  0.000424  0.000413
 14H   2s        -0.000948  0.000106  0.000495 -0.000011 -0.005344 -0.001058
 15C   1s         0.000036  0.000282 -0.000051 -0.995020 -0.000038 -0.000000
 15C   2s         0.000145  0.000796  0.001376 -0.036120  0.000769  0.000038
 15C   1pz       -0.000269 -0.000012 -0.000135  0.000115 -0.000072 -0.000012
 15C   1px       -0.000315 -0.000001  0.000493  0.000931 -0.000031 -0.000014
 15C   1py       -0.000390 -0.000013 -0.000000  0.000404 -0.000088 -0.000017
 15C   3s         0.005492  0.008002 -0.009702  0.003084 -0.001083  0.000534
 15C   2pz       -0.004525  0.009884  0.002303 -0.003806  0.002755 -0.000223
 15C   2px       -0.005202 -0.004748 -0.010001  0.005458 -0.002329 -0.000449
 15C   2py       -0.006525  0.009432 -0.000464 -0.002546  0.002328 -0.000379
 15C   1dz2       0.000102 -0.000281 -0.000463  0.000465  0.000108 -0.000019
 15C   1dxz      -0.000361  0.000335 -0.000492  0.000518  0.000041  0.000016
 15C   1dyz       0.000149 -0.000633 -0.000276 -0.002213 -0.000081  0.000048
 15C   1dx2y2     0.000008  0.000385  0.000998 -0.000401 -0.000158  0.000007
 15C   1dxy      -0.000377  0.000429 -0.000036 -0.000437 -0.000084  0.000042
 16N   1s        -0.000004 -0.000048 -0.995236 -0.000020 -0.000023  0.000004
 16N   2s        -0.000192 -0.000724 -0.032469  0.000612 -0.000091  0.000058
 16N   1pz       -0.000148  0.000020 -0.000116  0.000295 -0.000028 -0.000036
 16N   1px        0.000171  0.000272  0.000623 -0.001053 -0.000118 -0.000026
 16N   1py       -0.000111  0.000104  0.000060  0.000009 -0.000067 -0.000047
 16N   3s         0.000937  0.003387  0.026619 -0.002618  0.002167 -0.000026
 16N   2pz        0.002319 -0.002288  0.001265  0.000655 -0.000018  0.000276
 16N   2px       -0.000085 -0.001890 -0.004828 -0.000725 -0.000933  0.000180
 16N   2py        0.002521 -0.003077 -0.000056  0.000502 -0.000299  0.000358
 16N   1dz2       0.000103 -0.000126  0.000010 -0.000719 -0.000035  0.000012
 16N   1dxz      -0.000189  0.000204  0.000017 -0.000764  0.000022  0.000003
 16N   1dyz       0.000151  0.000156  0.000040  0.000006 -0.000071 -0.000015
 16N   1dx2y2    -0.000086  0.000036 -0.000033  0.001443  0.000056 -0.000016
 16N   1dxy      -0.000230  0.000326  0.000013  0.000030  0.000038 -0.000013
 17O   1s        -0.000363  0.995175  0.000013 -0.000004  0.000029  0.000001
 17O   2s        -0.000526  0.030542  0.000549 -0.001147  0.000481  0.000010
 17O   1pz        0.000096 -0.001574 -0.000132 -0.000620  0.000019 -0.000002
 17O   1px       -0.000169  0.000775 -0.000033  0.000376  0.000022 -0.000012
 17O   1py        0.000055 -0.001497 -0.000154 -0.000569  0.000027 -0.000006
 17O   3s         0.002232 -0.025234 -0.001297  0.009050 -0.002924 -0.000022
 17O   2pz       -0.000012  0.005059  0.000399 -0.003833  0.000468  0.000044
 17O   2px        0.001875 -0.002448  0.001666  0.001034 -0.000264  0.000094
 17O   2py        0.000548  0.004822  0.000937 -0.003899  0.000435  0.000077
 17O   1dz2      -0.000113 -0.000085  0.000057  0.000358 -0.000018 -0.000005
 17O   1dxz      -0.000231  0.000100 -0.000230 -0.000657  0.000048  0.000000
 17O   1dyz      -0.000196 -0.000209 -0.000278  0.001480  0.000040 -0.000013
 17O   1dx2y2     0.000334  0.000122  0.000108 -0.000536 -0.000008  0.000010
 17O   1dxy      -0.000130  0.000125 -0.000306 -0.000610  0.000066  0.000002
 18H   1s         0.000413 -0.000633  0.000207  0.000118 -0.000152  0.000054
 18H   2s         0.000921 -0.000950 -0.002955  0.000733  0.000395  0.000101
 19H   1s        -0.000532  0.000310  0.000129  0.000234  0.000021 -0.000076
 19H   2s        -0.000374  0.001032 -0.002815 -0.000499 -0.000056 -0.000157
                      6         7         8         9        10        11   
                 -10.18594 -10.18395 -10.18109 -10.18046 -10.18016  -1.10365
                   2.00000   2.00000   2.00000   2.00000   2.00000   2.00000
                  --------  --------  --------  --------  --------  --------
  0C   1s         0.001493  0.004656  0.905304  0.286865  0.297366 -0.000394
  0C   2s         0.000599  0.000097  0.031997  0.011937  0.013293  0.000533
  0C   1pz       -0.000078  0.000214 -0.000080 -0.001020  0.000053  0.000134
  0C   1px        0.000132 -0.000100  0.000406  0.000106  0.001241  0.000350
  0C   1py       -0.000046  0.000205  0.000034 -0.001088  0.000430  0.000252
  0C   3s        -0.004665 -0.005064 -0.021835 -0.018907 -0.025334 -0.002853
  0C   2pz        0.001258  0.001033  0.001046  0.004017  0.002817  0.002013
  0C   2px       -0.002859 -0.002505 -0.002893 -0.004682 -0.009010 -0.000489
  0C   2py        0.000524  0.000383  0.000282  0.003006  0.000393  0.002062
  0C   1dz2       0.000029 -0.000055 -0.000094  0.000342 -0.000410 -0.000036
  0C   1dxz       0.000013  0.000028 -0.000003 -0.000207  0.000542  0.000024
  0C   1dyz      -0.000081 -0.000052  0.000131  0.001109  0.000740  0.000047
  0C   1dx2y2    -0.000028  0.000077  0.000106 -0.000659  0.000124  0.000028
  0C   1dxy      -0.000033  0.000066  0.000114 -0.000283  0.001003  0.000064
  1C   1s        -0.004252  0.063198  0.346376 -0.914358 -0.173978 -0.000183
  1C   2s         0.000027  0.000203  0.010843 -0.034287 -0.007079  0.000079
  1C   1pz       -0.000090  0.000501 -0.000786 -0.000482 -0.000168 -0.000062
  1C   1px        0.000359 -0.001119  0.000349 -0.000695 -0.000040  0.000094
  1C   1py        0.000009  0.000214 -0.000758 -0.000737 -0.000197 -0.000039
  1C   3s         0.004768  0.011738 -0.001215  0.033451  0.015562  0.002057
  1C   2pz        0.000767  0.000140  0.001923  0.002617  0.002314  0.002737
  1C   2px        0.001975  0.005938  0.000236  0.006119  0.004319  0.000519
  1C   2py        0.001434  0.001933  0.002182  0.004707  0.003834  0.003160
  1C   1dz2      -0.000043  0.000278 -0.000303 -0.000022 -0.000045 -0.000001
  1C   1dxz      -0.000096  0.000823  0.000047  0.000492  0.000190 -0.000021
  1C   1dyz      -0.000057 -0.000141 -0.000780 -0.000859 -0.000431  0.000045
  1C   1dx2y2     0.000127 -0.000803  0.000606 -0.000017  0.000071  0.000001
  1C   1dxy      -0.000053  0.000413  0.000174  0.000271  0.000120 -0.000008
  2C   1s         0.000852 -0.001810  0.223424  0.262095 -0.933596 -0.003190
  2C   2s         0.000043 -0.000551  0.006279  0.008916 -0.034958  0.005216
  2C   1pz       -0.000142  0.000102  0.000265 -0.000160  0.000703 -0.000012
  2C   1px        0.000134 -0.000017  0.001000  0.000241  0.000177  0.003844
  2C   1py       -0.000116  0.000106  0.000590 -0.000103  0.000825  0.001138
  2C   3s         0.005454  0.003974  0.002541  0.001092  0.037221  0.005883
  2C   2pz       -0.002240 -0.001967 -0.001320 -0.002014 -0.006920 -0.005069
  2C   2px        0.000404  0.000062 -0.001699 -0.000523  0.000901  0.004651
  2C   2py       -0.002338 -0.002140 -0.001957 -0.002368 -0.007327 -0.004171
  2C   1dz2       0.000041 -0.000023  0.000378  0.000068  0.000480 -0.000322
  2C   1dxz      -0.000039 -0.000019 -0.000484 -0.000133 -0.000024 -0.000180
  2C   1dyz      -0.000042  0.000051 -0.000186 -0.000015 -0.000321  0.000413
  2C   1dx2y2    -0.000029  0.000030 -0.000245 -0.000025 -0.000603  0.000459
  2C   1dxy      -0.000081  0.000015 -0.000812 -0.000182 -0.000541  0.000234
  3C   1s        -0.107361  0.987291 -0.025789  0.057608  0.008105 -0.000152
  3C   2s        -0.001814  0.036334 -0.001812  0.003939  0.001184  0.000890
  3C   1pz        0.000337  0.000593 -0.000359  0.000474  0.000145 -0.000021
  3C   1px        0.000989  0.000099  0.000570 -0.001042 -0.000172 -0.000042
  3C   1py        0.000667  0.000681 -0.000224  0.000209  0.000108 -0.000036
  3C   3s        -0.010085 -0.033205  0.001888 -0.014829 -0.009241 -0.013756
  3C   2pz       -0.003630 -0.005252  0.000434 -0.004252 -0.003588 -0.002253
  3C   2px       -0.001382  0.000535 -0.000827  0.002740  0.000894 -0.007222
  3C   2py       -0.004398 -0.005606  0.000228 -0.003847 -0.003671 -0.004636
  3C   1dz2      -0.000484 -0.000382  0.000110 -0.000382 -0.000044  0.000076
  3C   1dxz       0.000500 -0.000048  0.000297 -0.000728 -0.000105 -0.000100
  3C   1dyz       0.000232  0.000299  0.000018  0.000119 -0.000036 -0.000050
  3C   1dx2y2     0.000378  0.000504 -0.000321  0.000909  0.000128 -0.000044
  3C   1dxy       0.000935  0.000382  0.000154 -0.000237 -0.000055 -0.000168
  4C   1s         0.016954  0.001699 -0.002484 -0.003251  0.010323 -0.010050
  4C   2s         0.002632  0.000358 -0.000648 -0.000184  0.002347  0.016992
  4C   1pz       -0.000938  0.000010 -0.000081 -0.000177  0.000443  0.006409
  4C   1px        0.000031  0.000138  0.000538  0.000228 -0.001150  0.008226
  4C   1py       -0.001020  0.000052  0.000072 -0.000126  0.000142  0.009499
  4C   3s        -0.013133 -0.007399 -0.000473 -0.002626 -0.014958  0.019057
  4C   2pz        0.003863  0.001549 -0.000472  0.001263  0.000523  0.007602
  4C   2px        0.004214  0.000968 -0.001164  0.002248  0.008958  0.017948
  4C   2py        0.005503  0.001991 -0.000866  0.002059  0.003258  0.013731
  4C   1dz2       0.000271  0.000015  0.000104  0.000104 -0.000284 -0.001048
  4C   1dxz      -0.000206 -0.000105  0.000162  0.000263 -0.000771  0.001494
  4C   1dyz       0.001076  0.000100  0.000057 -0.000093  0.000170  0.001844
  4C   1dx2y2    -0.000549  0.000010 -0.000250 -0.000267  0.000778  0.000269
  4C   1dxy      -0.000220 -0.000084  0.000052  0.000108 -0.000356  0.002646
  5C   1s        -0.989172 -0.107565  0.002745 -0.001774 -0.000368 -0.001389
  5C   2s        -0.036140 -0.006098 -0.000277 -0.000367 -0.000204  0.002709
  5C   1pz       -0.000392  0.000320 -0.000106 -0.000031  0.000119  0.001661
  5C   1px        0.000579  0.001162  0.000198 -0.000069 -0.000105  0.000842
  5C   1py       -0.000256  0.000700 -0.000057 -0.000055  0.000099  0.002076
  5C   3s         0.032296  0.017044 -0.000230  0.006143  0.007808  0.013844
  5C   2pz        0.003409  0.001490  0.000103  0.001213  0.001775 -0.002184
  5C   2px       -0.006260 -0.006490 -0.000486 -0.003323 -0.004498 -0.015103
  5C   2py        0.001866 -0.000308 -0.000033  0.000337  0.000601 -0.006926
  5C   1dz2       0.000072  0.000464 -0.000043 -0.000004  0.000033 -0.000083
  5C   1dxz      -0.000074 -0.000554  0.000014 -0.000016 -0.000041  0.000005
  5C   1dyz      -0.000586 -0.000421  0.000099 -0.000054 -0.000019  0.000165
  5C   1dx2y2     0.000080 -0.000274  0.000030  0.000027 -0.000022  0.000078
  5C   1dxy      -0.000249 -0.001000  0.000073 -0.000021 -0.000070  0.000117
  6C   1s        -0.000031 -0.000004  0.000013  0.000043 -0.000071 -0.058185
  6C   2s         0.000245 -0.000271 -0.000345 -0.000054  0.000345  0.113237
  6C   1pz       -0.000028  0.000027 -0.000009 -0.000007  0.000047  0.058829
  6C   1px       -0.000074 -0.000011  0.000016  0.000083 -0.000098 -0.013382
  6C   1py       -0.000053  0.000027 -0.000005  0.000017  0.000022  0.060579
  6C   3s        -0.001889  0.001023  0.001863 -0.001467 -0.002964  0.007305
  6C   2pz        0.000418 -0.000415 -0.000164  0.000030  0.000518 -0.008122
  6C   2px        0.001073 -0.000298 -0.000795  0.000521  0.001003  0.013392
  6C   2py        0.000780 -0.000544 -0.000419  0.000189  0.000869 -0.004935
  6C   1dz2       0.000030 -0.000016 -0.000033  0.000003  0.000000  0.003353
  6C   1dxz       0.000015  0.000038  0.000019  0.000004  0.000005 -0.003006
  6C   1dyz      -0.000030  0.000023  0.000035  0.000002 -0.000096  0.012030
  6C   1dx2y2    -0.000044 -0.000003  0.000029 -0.000006  0.000021 -0.006225
  6C   1dxy      -0.000022  0.000052  0.000055  0.000001 -0.000015 -0.003379
  7H   1s         0.000072  0.000096 -0.000470 -0.000309  0.001264  0.002343
  7H   2s         0.000661  0.000832  0.001259  0.001598 -0.001841  0.006560
  8H   1s        -0.000099 -0.000079 -0.001312 -0.000305 -0.000282  0.000074
  8H   2s        -0.000908 -0.000411  0.003192 -0.000079 -0.000668 -0.000334
  9H   1s         0.000083 -0.000212 -0.000606  0.001198  0.000263  0.000195
  9H   2s         0.000351  0.001446  0.001915 -0.002153  0.000389  0.000969
 10H   1s         0.001361 -0.000007  0.000042  0.000084  0.000132  0.001436
 10H   2s        -0.002581  0.000736  0.000361  0.000720  0.001051  0.002754
 11H   1s         0.000258 -0.001360 -0.000038  0.000057 -0.000097  0.000220
 11H   2s        -0.001609  0.002573  0.000209 -0.000872 -0.001208 -0.000301
 12O   1s         0.000003  0.000002  0.000003 -0.000001 -0.000004 -0.178109
 12O   2s         0.000068  0.000024  0.000010 -0.000041  0.000012  0.386708
 12O   1pz       -0.000027 -0.000011  0.000020  0.000018 -0.000050 -0.016973
 12O   1px       -0.000020 -0.000003  0.000049  0.000032 -0.000013  0.088613
 12O   1py       -0.000035 -0.000013  0.000036  0.000029 -0.000058  0.007893
 12O   3s        -0.000121 -0.000069 -0.000301  0.000114  0.000168  0.401094
 12O   2pz        0.000225  0.000086 -0.000036 -0.000144  0.000120 -0.012098
 12O   2px        0.000139  0.000053 -0.000250 -0.000142  0.000002  0.050715
 12O   2py        0.000289  0.000110 -0.000115 -0.000200  0.000132  0.001886
 12O   1dz2       0.000003 -0.000002 -0.000007  0.000006  0.000002 -0.002272
 12O   1dxz       0.000012 -0.000010 -0.000003 -0.000006 -0.000010  0.001214
 12O   1dyz      -0.000022 -0.000008  0.000016  0.000009 -0.000018  0.010971
 12O   1dx2y2    -0.000005  0.000010  0.000007 -0.000008  0.000007 -0.000057
 12O   1dxy       0.000003 -0.000008  0.000007 -0.000009 -0.000014  0.005387
 13H   1s         0.000082 -0.000054 -0.000044  0.000014  0.000015  0.019069
 13H   2s        -0.000173 -0.000125 -0.000076  0.000012  0.000065  0.000588
 14H   1s         0.000082 -0.000054 -0.000044  0.000014  0.000015  0.019065
 14H   2s        -0.000173 -0.000125 -0.000076  0.000012  0.000065  0.000565
 15C   1s        -0.000001  0.000003 -0.000010 -0.000007  0.000009 -0.105430
 15C   2s         0.000040 -0.000077 -0.000005  0.000020  0.000043  0.206132
 15C   1pz        0.000006  0.000009 -0.000020 -0.000014  0.000013 -0.013926
 15C   1px        0.000034  0.000000 -0.000043 -0.000018  0.000036 -0.057956
 15C   1py        0.000017  0.000010 -0.000034 -0.000021  0.000025 -0.032635
 15C   3s        -0.000077  0.000031  0.000186  0.000196 -0.000173  0.026087
 15C   2pz        0.000204 -0.000178 -0.000237 -0.000106  0.000195  0.001926
 15C   2px        0.000162  0.000135  0.000095  0.000044 -0.000132  0.018126
 15C   2py        0.000273 -0.000155 -0.000232 -0.000103  0.000175  0.007550
 15C   1dz2       0.000008 -0.000003 -0.000008 -0.000009  0.000015 -0.002854
 15C   1dxz      -0.000013  0.000004  0.000012  0.000003 -0.000006  0.003391
 15C   1dyz      -0.000003  0.000000  0.000011  0.000004  0.000005  0.016447
 15C   1dx2y2    -0.000005  0.000002  0.000003  0.000011 -0.000019 -0.001722
 15C   1dxy      -0.000020  0.000007  0.000020  0.000013 -0.000019  0.008891
 16N   1s         0.000002  0.000001  0.000002  0.000002 -0.000002 -0.037505
 16N   2s         0.000031  0.000007  0.000020  0.000020 -0.000017  0.077309
 16N   1pz       -0.000005  0.000002 -0.000001 -0.000003 -0.000002  0.005653
 16N   1px       -0.000022  0.000012  0.000018 -0.000003 -0.000017 -0.035318
 16N   1py       -0.000012  0.000005  0.000005 -0.000004 -0.000008 -0.004364
 16N   3s        -0.000057 -0.000153 -0.000222 -0.000114  0.000223  0.065676
 16N   2pz       -0.000039  0.000013  0.000036  0.000016  0.000001 -0.002824
 16N   2px        0.000135  0.000000 -0.000004  0.000100 -0.000008 -0.013096
 16N   2py       -0.000002  0.000014  0.000038  0.000047 -0.000002 -0.007023
 16N   1dz2       0.000004  0.000000  0.000001  0.000005 -0.000002 -0.002852
 16N   1dxz       0.000008 -0.000004 -0.000003  0.000003 -0.000001 -0.001623
 16N   1dyz      -0.000010  0.000004  0.000005 -0.000000 -0.000005  0.002091
 16N   1dx2y2    -0.000007  0.000001 -0.000000 -0.000008  0.000005  0.004470
 16N   1dxy       0.000002 -0.000003 -0.000003 -0.000002 -0.000000  0.001738
 17O   1s         0.000003 -0.000002 -0.000003 -0.000001  0.000003 -0.064890
 17O   2s         0.000045 -0.000036 -0.000044 -0.000018  0.000050  0.140043
 17O   1pz        0.000000 -0.000002  0.000001  0.000001 -0.000002 -0.046390
 17O   1px        0.000003 -0.000000 -0.000001 -0.000000 -0.000004  0.017467
 17O   1py        0.000001 -0.000002  0.000000  0.000001 -0.000003 -0.045708
 17O   3s        -0.000217  0.000208  0.000233  0.000081 -0.000230  0.124350
 17O   2pz        0.000044 -0.000038 -0.000045 -0.000017  0.000060 -0.018304
 17O   2px       -0.000068  0.000014  0.000020  0.000006 -0.000006  0.001852
 17O   2py        0.000028 -0.000037 -0.000043 -0.000017  0.000064 -0.019548
 17O   1dz2      -0.000001  0.000002  0.000001 -0.000000 -0.000002  0.001934
 17O   1dxz       0.000007 -0.000001  0.000001  0.000001  0.000002 -0.001211
 17O   1dyz      -0.000007  0.000002  0.000006  0.000005 -0.000015  0.005310
 17O   1dx2y2    -0.000001 -0.000003 -0.000003 -0.000001  0.000005 -0.003469
 17O   1dxy       0.000005 -0.000003  0.000001  0.000002  0.000000 -0.001825
 18H   1s         0.000009 -0.000005 -0.000005  0.000017  0.000007  0.015282
 18H   2s        -0.000097  0.000071  0.000126 -0.000035 -0.000099 -0.002689
 19H   1s        -0.000005  0.000008  0.000010 -0.000010 -0.000015  0.014073
[...]
 0 C  dxy             1.3       0.2       7.5       0.7       0.5       1.4
 1 C  s               0.6       2.0       0.3       0.1       2.0       0.0
 1 C  pz              0.1       0.2       0.1       1.5       0.0       0.2
 1 C  px              0.2       0.5       0.3       1.1       0.1       0.2
 1 C  py              0.0       0.3       0.1       1.1       0.1       0.1
 1 C  dz2             1.2       1.5       0.0       1.3       0.0       0.2
 1 C  dxz             8.8       0.1       0.4       0.6       0.9       0.6
 1 C  dyz             0.3       0.0       0.3       3.9       2.6       0.2
 1 C  dx2y2           0.0       4.0       0.4       6.6       0.1       1.4
 1 C  dxy            13.7       0.7       0.3       0.0       0.1       0.1
 2 C  s               1.3       2.0       2.4       0.4       1.9       0.3
 2 C  pz              0.0       0.2       0.2       0.2       0.1       0.0
 2 C  px              0.4       2.0       1.0       0.2       0.1       0.4
 2 C  py              0.0       0.0       0.6       0.1       0.2       0.1
 2 C  dz2             1.4       1.3       1.6       0.3       0.0       0.0
 2 C  dxz             1.0       9.0       1.0       0.0       0.4       0.5
 2 C  dyz             1.3       0.0       0.3       0.5       5.7       0.5
 2 C  dx2y2           0.8      10.4       1.4       0.9       0.3       0.2
 2 C  dxy             4.9       2.2       4.9       0.1       0.0       0.7
 3 C  s               0.6       0.2       0.0       0.7       3.4       0.2
 3 C  pz              0.0       0.0       0.0       0.2       0.2       0.0
 3 C  px              1.6       3.0       0.3       0.8       0.0       0.3
 3 C  py              0.1       0.4       0.0       0.1       0.2       0.0
 3 C  dz2             0.6       2.3       0.4       0.1       0.7       0.0
 3 C  dxz             0.0       6.9       1.4       3.3       0.0       0.6
 3 C  dyz             5.8       0.3       0.2       0.1       3.0       0.0
 3 C  dx2y2           3.4       0.9       2.7       2.3       0.6       0.4
 3 C  dxy             0.0      12.9       0.3       1.8       1.2       0.2
 4 C  s               0.9       2.3       1.2       0.0       7.9       0.1
 4 C  pz              0.2       0.3       1.2       0.1       0.0       0.0
 4 C  px              0.1       3.2       0.0       0.0       0.4       0.3
 4 C  py              0.3       0.0       1.5       0.0       0.1       0.0
 4 C  dz2             0.7       0.5       0.1       0.7       3.7       0.1
 4 C  dxz             4.1       1.0       0.1       1.6       2.2       0.2
 4 C  dyz             6.3       0.1       1.6       1.7       4.2       0.1
 4 C  dx2y2           0.6       2.1       0.3       4.9       2.2       0.0
 4 C  dxy             4.1       0.0       0.1       0.3      12.4       0.6
 5 C  s               2.4       1.8       1.7       0.3       3.7       0.0
 5 C  pz              0.5       0.2       0.7       0.1       0.0       0.0
 5 C  px              0.1       1.6       0.0       0.2       0.6       0.0
 5 C  py              0.5       0.7       0.8       0.1       0.1       0.0
 5 C  dz2             0.6       0.7       0.7       0.0       0.6       0.0
 5 C  dxz             0.1       3.7       0.0       1.1       1.6       0.1
 5 C  dyz             2.9       0.4       9.2       0.3       2.4       0.1
 5 C  dx2y2           0.3       0.0       3.7       0.6       2.1       0.0
 5 C  dxy             2.0       6.5       0.1       0.9       0.0       0.1
 6 C  s               0.0       0.3       0.1       1.0       2.3       0.0
 6 C  pz              0.1       0.0       0.2       0.4       0.1       0.1
 6 C  px              0.1       0.1       0.0       0.1       1.7       0.0
 6 C  py              0.2       0.0       0.2       0.4       0.4       0.1
 6 C  dz2             0.2       0.0       0.1       0.7       1.7       0.1
 6 C  dxz             0.6       0.0       0.2       0.2       0.8       1.1
 6 C  dyz             0.0       0.1       1.7       6.2       2.0       0.1
 6 C  dx2y2           0.1       0.0       0.2       4.3       1.1       0.0
 6 C  dxy             1.1       0.0       0.2       0.0       5.3       1.3
 7 H  s               0.0       0.1       0.1       0.1       0.4       0.0
 8 H  s               1.0       0.1       0.1       0.1       0.1       0.0
 9 H  s               2.0       0.2       0.1       0.0       0.0       0.0
10 H  s               0.0       0.2       0.1       0.1       0.4       0.0
11 H  s               0.9       0.5       0.1       0.0       0.0       0.0
12 O  s               0.7       0.1       9.2       0.4       1.5       1.8
12 O  pz              0.2       0.0       0.1       1.4       0.0       0.0
12 O  px              0.1       0.1       0.9       0.2       0.1       0.2
12 O  py              0.3       0.0       0.0       1.5       0.0       0.1
12 O  dz2             0.1       0.0       0.8       0.4       0.0       0.0
12 O  dxz             0.2       0.0       0.0       3.4       0.0       1.4
12 O  dyz             0.2       0.1       4.3       1.5       1.3       2.5
12 O  dx2y2           0.0       0.0       0.5       0.0       0.1       1.1
12 O  dxy             0.7       0.0       1.9       3.6       0.0       1.7
13 H  s               0.0       0.0       0.1       0.0       0.1       0.0
14 H  s               0.0       0.0       0.1       0.0       0.1       0.0
15 C  s               0.5       0.0       0.3       0.2       0.5      11.1
15 C  pz              0.1       0.0       0.3       0.3       0.0       1.9
15 C  px              0.0       0.0       0.4       0.5       0.1       1.0
15 C  py              0.2       0.0       0.6       0.5       0.0       1.4
15 C  dz2             0.2       0.0       0.2       0.0       0.4       1.0
15 C  dxz             0.2       0.0       0.5       3.0       0.1       0.6
15 C  dyz             0.0       0.1       5.7       0.0       0.0       0.2
15 C  dx2y2           0.8       0.0       0.8       0.5       1.1       0.9
15 C  dxy             0.0       0.0       0.3       2.7       0.1       2.9
16 N  s               0.1       0.0       0.2       0.2       0.1       0.1
16 N  px              0.1       0.0       0.0       0.1       0.1       0.0
16 N  dz2             0.0       0.0       0.4       0.7       0.0       0.2
16 N  dxz             0.3       0.0       1.0       0.4       0.3       1.1
16 N  dyz             0.0       0.0       0.0       0.6       0.0       0.1
16 N  dx2y2           0.2       0.0       0.2       1.1       0.0       0.0
16 N  dxy             0.1       0.0       2.1       1.4       0.5       1.6
17 O  s               0.0       0.0       2.8       0.4       0.3      14.6
17 O  pz              0.0       0.0       0.6       0.1       0.0       1.9
17 O  px              0.0       0.0       0.1       0.5       0.0       0.6
17 O  py              0.0       0.0       0.6       0.0       0.1       1.7
17 O  dz2             0.0       0.0       0.0       0.0       0.0       1.0
17 O  dxz             0.3       0.0       0.2       2.9       0.0       5.6
17 O  dyz             0.0       0.0       0.8       0.0       0.9      18.9
17 O  dx2y2           0.1       0.0       0.1       1.3       0.2       1.4
17 O  dxy             0.2       0.0       0.1       1.6       0.0       4.2
18 H  s               0.0       0.0       0.2       0.5       0.0       0.2
19 H  s               0.0       0.0       0.5       0.2       0.1       0.3

                    168       169       170       171   
                   3.04236   3.15875   3.18789   3.41763
                   0.00000   0.00000   0.00000   0.00000
                  --------  --------  --------  --------
 0 C  s               0.0       0.0       0.2       1.6
 0 C  pz              0.6       0.1       0.0       0.0
 0 C  px              0.3       0.1       0.0       0.1
 0 C  py              1.0       0.2       0.0       0.0
 0 C  dz2             1.0       0.2       0.0       0.0
 0 C  dxz             1.0       0.2       0.1       3.3
 0 C  dyz             0.9       0.2       0.4       4.3
 0 C  dx2y2           1.3       0.2       0.1       3.0
 0 C  dxy             2.6       0.5       0.1       3.2
 1 C  s               0.0       0.0       0.1       1.7
 1 C  pz              0.7       0.1       0.0       0.0
 1 C  px              0.6       0.1       0.0       0.1
 1 C  py              0.4       0.1       0.0       0.0
 1 C  dz2             0.6       0.1       0.0       0.4
 1 C  dxz             0.7       0.1       0.2       5.5
 1 C  dyz             1.4       0.3       0.2       2.0
 1 C  dx2y2           3.4       0.6       0.0       0.0
 1 C  dxy             0.1       0.0       0.3       5.5
 2 C  s               0.0       0.1       0.2       1.6
 2 C  px              2.1       0.9       0.0       0.0
 2 C  dz2             0.1       0.0       0.0       3.1
 2 C  dxz             3.9       1.7       0.1       0.0
 2 C  dyz             0.1       0.0       0.0       0.9
 2 C  dx2y2           0.6       0.2       0.2       8.1
 2 C  dxy             3.9       1.6       0.0       1.9
 3 C  s               0.0       0.1       0.2       1.5
 3 C  px              1.8       0.5       0.0       0.0
 3 C  py              0.1       0.1       0.0       0.1
 3 C  dz2             0.0       0.0       0.1       2.9
 3 C  dxz             2.9       0.7       0.0       0.0
 3 C  dyz             0.1       0.0       0.0       0.9
 3 C  dx2y2           0.5       0.0       0.2       7.9
 3 C  dxy             2.9       0.9       0.2       1.6
 4 C  s               0.0       0.0       0.2       1.0
 4 C  pz              0.7       0.3       0.1       0.0
 4 C  px              0.7       0.2       0.0       0.2
 4 C  py              0.4       0.2       0.2       0.1
 4 C  dz2             1.1       1.3       0.1       0.7
 4 C  dxz             1.2       1.1       0.0       6.1
 4 C  dyz             2.4       2.7       0.0       1.8
 4 C  dx2y2           6.3       6.8       0.3       0.0
 4 C  dxy             0.1       0.0       0.1       7.0
 5 C  s               0.0       0.0       0.0       1.6
 5 C  pz              0.7       0.5       0.0       0.0
 5 C  px              0.3       0.0       0.0       0.1
 5 C  py              1.1       0.7       0.1       0.0
 5 C  dz2             1.2       0.5       0.0       0.0
 5 C  dxz             1.2       1.0       0.1       3.1
 5 C  dyz             1.2       0.5       0.0       4.5
 5 C  dx2y2           1.6       0.5       0.0       3.1
 5 C  dxy             3.0       2.0       0.1       3.1
 6 C  s               0.0       0.4       0.7       0.0
 6 C  pz              0.0       0.0       0.9       0.1
 6 C  px              0.0       0.2       0.1       0.1
 6 C  py              0.0       0.0       0.9       0.2
 6 C  dz2             0.1       0.2       0.4       0.2
 6 C  dxz             0.0       1.8       1.7       0.4
 6 C  dyz             0.5       1.0       0.9       0.0
 6 C  dx2y2           0.5       2.8       0.2       0.1
 6 C  dxy             0.0       0.7       2.3       0.8
 7 H  s               0.0       0.0       0.0       0.6
 8 H  s               0.0       0.0       0.0       0.5
 9 H  s               0.0       0.0       0.0       0.5
10 H  s               0.0       0.0       0.0       0.5
11 H  s               0.0       0.0       0.0       0.5
12 O  s               0.2       0.8       1.4       0.0
12 O  pz              0.0       1.1       0.5       0.0
12 O  px              0.1       0.2       0.8       0.0
12 O  py              0.1       1.4       1.2       0.0
12 O  dz2             0.0       0.1       3.6       0.1
12 O  dxz             0.0       5.6       0.4       0.0
12 O  dyz             0.7       1.5       7.7       0.2
12 O  dx2y2           0.2       1.4       9.3       0.2
12 O  dxy             0.0       6.3       3.3       0.1
15 C  s               2.6       0.1       0.4       0.0
15 C  pz              1.1       1.0       0.2       0.0
15 C  px              0.1       0.2       0.7       0.0
15 C  py              1.1       1.6       0.1       0.0
15 C  dz2             0.7       1.9       2.6       0.0
15 C  dxz             3.7       8.0       6.2       0.0
15 C  dyz             1.2       0.8       7.9       0.1
15 C  dx2y2           0.2       0.5      18.8       0.2
15 C  dxy             4.8      12.4       1.2       0.0
16 N  s               0.0       0.0       0.5       0.0
16 N  pz              0.0       0.0       0.2       0.0
16 N  px              0.1       0.2       1.3       0.0
16 N  dz2             0.7       1.2       0.1       0.0
16 N  dxz             0.8       1.3       1.2       0.0
16 N  dyz             0.6       0.8       0.0       0.0
16 N  dx2y2           0.8       1.4       1.2       0.0
16 N  dxy             1.9       3.4       0.4       0.0
17 O  s               3.2       1.3       0.4       0.0
17 O  pz              1.0       0.8       0.3       0.0
17 O  px              0.0       0.1       1.2       0.0
17 O  py              1.2       1.0       0.1       0.0
17 O  dz2             0.7       0.4       0.0       0.0
17 O  dxz             0.1       0.2       6.4       0.1
17 O  dyz             8.0       3.6       0.1       0.0
17 O  dx2y2           3.1       2.6       1.4       0.0
17 O  dxy             0.3       0.0       5.5       0.0
18 H  s               0.5       0.8       0.0       0.0
19 H  s               0.2       0.4       0.1       0.0


                      *****************************
                      * MAYER POPULATION ANALYSIS *
                      *****************************

  NA   - Mulliken gross atomic population
  ZA   - Total nuclear charge
  QA   - Mulliken gross atomic charge
  VA   - Mayer's total valence
  BVA  - Mayer's bonded valence
  FA   - Mayer's free valence

  ATOM       NA         ZA         QA         VA         BVA        FA
  0 C      6.1327     6.0000    -0.1327     3.9314     3.9314    -0.0000
  1 C      6.1237     6.0000    -0.1237     3.9442     3.9442     0.0000
  2 C      6.1574     6.0000    -0.1574     3.9279     3.9279    -0.0000
  3 C      6.1295     6.0000    -0.1295     3.9579     3.9579     0.0000
  4 C      5.9056     6.0000     0.0944     4.0081     4.0081     0.0000
  5 C      6.1673     6.0000    -0.1673     3.9191     3.9191     0.0000
  6 C      6.0941     6.0000    -0.0941     3.7708     3.7708    -0.0000
  7 H      0.8355     1.0000     0.1645     0.9412     0.9412    -0.0000
  8 H      0.8666     1.0000     0.1334     0.9369     0.9369    -0.0000
  9 H      0.8703     1.0000     0.1297     0.9371     0.9371     0.0000
 10 H      0.8838     1.0000     0.1162     0.9395     0.9395     0.0000
 11 H      0.8704     1.0000     0.1296     0.9371     0.9371    -0.0000
 12 O      8.4524     8.0000    -0.4524     2.0059     2.0059     0.0000
 13 H      0.8472     1.0000     0.1528     0.9224     0.9224     0.0000
 14 H      0.8473     1.0000     0.1527     0.9224     0.9224     0.0000
 15 C      5.2999     6.0000     0.7001     4.0662     4.0662    -0.0000
 16 N      7.7697     7.0000    -0.7697     2.8364     2.8364    -0.0000
 17 O      8.4487     8.0000    -0.4487     2.1165     2.1165    -0.0000
 18 H      0.6553     1.0000     0.3447     0.8548     0.8548     0.0000
 19 H      0.6424     1.0000     0.3576     0.8518     0.8518     0.0000

  Mayer bond orders larger than 0.1
B(  0-C ,  1-C ) :   1.4616 B(  0-C ,  2-C ) :   1.4162 B(  0-C ,  8-H ) :   0.9295 
B(  1-C ,  3-C ) :   1.4440 B(  1-C ,  9-H ) :   0.9303 B(  2-C ,  4-C ) :   1.4705 
B(  2-C ,  7-H ) :   0.9096 B(  3-C ,  5-C ) :   1.4580 B(  3-C , 11-H ) :   0.9296 
B(  4-C ,  5-C ) :   1.4098 B(  4-C ,  6-C ) :   0.9997 B(  5-C , 10-H ) :   0.9280 
B(  6-C , 12-O ) :   0.8814 B(  6-C , 13-H ) :   0.9073 B(  6-C , 14-H ) :   0.9075 
B( 12-O , 15-C ) :   1.0106 B( 15-C , 16-N ) :   1.0862 B( 15-C , 17-O ) :   1.9402 
B( 16-N , 18-H ) :   0.8138 B( 16-N , 19-H ) :   0.8283 

-------
TIMINGS
-------

Total SCF time: 0 days 0 hours 0 min 30 sec 

Total time                  ....      30.869 sec
Sum of individual times     ....      30.562 sec  ( 99.0%)

Fock matrix formation       ....      27.790 sec  ( 90.0%)
  XC integration            ....       3.672 sec  ( 13.2% of F)
    Basis function eval.    ....       1.433 sec  ( 39.0% of XC)
    Density eval.           ....       0.980 sec  ( 26.7% of XC)
    XC-Functional eval.     ....       0.236 sec  (  6.4% of XC)
    XC-Potential eval.      ....       0.841 sec  ( 22.9% of XC)
Diagonalization             ....       0.005 sec  (  0.0%)
Density matrix formation    ....       0.004 sec  (  0.0%)
Population analysis         ....       0.069 sec  (  0.2%)
Initial guess               ....       0.005 sec  (  0.0%)
Orbital Transformation      ....       0.000 sec  (  0.0%)
Orbital Orthonormalization  ....       0.002 sec  (  0.0%)
DIIS solution               ....       0.001 sec  (  0.0%)
SOSCF solution              ....       0.016 sec  (  0.1%)
Grid generation             ....       2.672 sec  (  8.7%)

-------------------------   --------------------
FINAL SINGLE POINT ENERGY      -515.170630217461
-------------------------   --------------------

                                *** OPTIMIZATION RUN DONE ***

                            ***************************************
                            *     ORCA property calculations      *
                            ***************************************

                                    ---------------------
                                    Active property flags
                                    ---------------------
   (+) Dipole Moment


------------------------------------------------------------------------------
                       ORCA ELECTRIC PROPERTIES CALCULATION
------------------------------------------------------------------------------

Dipole Moment Calculation                       ... on
Quadrupole Moment Calculation                   ... off
Polarizability Calculation                      ... off
GBWName                                         ... /Users/lailaal-madhagi/Desktop/Testing_XAS_Analysis_code/BenzylCarbamate//Results_dir_BenzylCarbamate_geom_element_N_2019-11-07_07-11-17//GTE1_BenzylCarbamate_geom_2019-11-07_07-11-29//opt.gbw
Electron density file                           ... /Users/lailaal-madhagi/Desktop/Testing_XAS_Analysis_code/BenzylCarbamate//Results_dir_BenzylCarbamate_geom_element_N_2019-11-07_07-11-17//GTE1_BenzylCarbamate_geom_2019-11-07_07-11-29//opt.scfp.tmp
The origin for moment calculation is the CENTER OF MASS  = (-2.512944,  2.620497  1.845104)

-------------
DIPOLE MOMENT
-------------
                                X             Y             Z
Electronic contribution:      0.10880       3.68367       3.34560
Nuclear contribution   :      0.97495      -4.65162      -4.53704
                        -----------------------------------------
Total Dipole Moment    :      1.08375      -0.96795      -1.19144
                        -----------------------------------------
Magnitude (a.u.)       :      1.87909
Magnitude (Debye)      :      4.77626



--------------------
Rotational spectrum 
--------------------
 
Rotational constants in cm-1:     0.114033     0.017166     0.014962 
Rotational constants in MHz :  3418.637691   514.623202   448.561175 

 Dipole components along the rotational axes: 
x,y,z [a.u.] :    -0.555120    -1.795196    -0.009102 
x,y,z [Debye]:    -1.411003    -4.563025    -0.023136 

 

Timings for individual modules:

Sum of individual times         ...      535.052 sec (=   8.918 min)
GTO integral calculation        ...        3.291 sec (=   0.055 min)   0.6 %
SCF iterations                  ...      348.016 sec (=   5.800 min)  65.0 %
SCF Gradient evaluation         ...      182.475 sec (=   3.041 min)  34.1 %
Geometry relaxation             ...        1.270 sec (=   0.021 min)   0.2 %
                             ****ORCA TERMINATED NORMALLY****
TOTAL RUN TIME: 0 days 0 hours 8 minutes 56 seconds 424 msec
