
                                 *****************
                                 * O   R   C   A *
                                 *****************

           --- An Ab Initio, DFT and Semiempirical electronic structure package ---

                  #######################################################
                  #                        -***-                        #
                  #          Department of theory and spectroscopy      #
                  #               Directorship: Frank Neese             #
                  #        Max Planck Institute fuer Kohlenforschung    #
                  #                Kaiser Wilhelm Platz 1               #
                  #                 D-45470 Muelheim/Ruhr               #
                  #                      Germany                        #
                  #                                                     #
                  #                  All rights reserved                #
                  #                        -***-                        #
                  #######################################################


                         Program Version 4.1.0  - RELEASE  -


 With contributions from (in alphabetic order):
   Daniel Aravena         : Magnetic Properties
   Michael Atanasov       : Ab Initio Ligand Field Theory
   Alexander A. Auer      : GIAO ZORA
   Ute Becker             : Parallelization
   Giovanni Bistoni       : ED, Open-shell LED
   Martin Brehm           : Molecular dynamics
   Dmytro Bykov           : SCF Hessian
   Vijay G. Chilkuri      : MRCI spin determinant printing
   Dipayan Datta          : RHF DLPNO-CCSD density
   Achintya Kumar Dutta   : EOM-CC, STEOM-CC
   Dmitry Ganyushin       : Spin-Orbit,Spin-Spin,Magnetic field MRCI
   Miquel Garcia          : C-PCM Hessian
   Yang Guo               : DLPNO-NEVPT2, CIM, IAO-localization
   Andreas Hansen         : Spin unrestricted coupled pair/coupled cluster methods
   Benjamin Helmich-Paris : CASSCF linear response (MC-RPA)
   Lee Huntington         : MR-EOM, pCC
   Robert Izsak           : Overlap fitted RIJCOSX, COSX-SCS-MP3, EOM
   Christian Kollmar      : KDIIS, OOCD, Brueckner-CCSD(T), CCSD density
   Simone Kossmann        : Meta GGA functionals, TD-DFT gradient, OOMP2, MP2 Hessian
   Martin Krupicka        : AUTO-CI
   Lucas Lang             : DCDCAS
   Dagmar Lenk            : GEPOL surface, SMD
   Dimitrios Liakos       : Extrapolation schemes; parallel MDCI
   Dimitrios Manganas     : ROCIS; embedding schemes
   Dimitrios Pantazis     : SARC Basis sets
   Taras Petrenko         : DFT Hessian,TD-DFT gradient, ASA, ECA, R-Raman, ABS, FL, XAS/XES, NRVS
   Peter Pinski           : DLPNO-MP2, DLPNO-MP2 Gradient
   Christoph Reimann      : Effective Core Potentials
   Marius Retegan         : Local ZFS, SOC
   Christoph Riplinger    : Optimizer, TS searches, QM/MM, DLPNO-CCSD(T), (RO)-DLPNO pert. Triples
   Tobias Risthaus        : Range-separated hybrids, TD-DFT gradient, RPA, STAB
   Michael Roemelt        : Restricted open shell CIS
   Masaaki Saitow         : Open-shell DLPNO
   Barbara Sandhoefer     : DKH picture change effects
   Avijit Sen             : IP-ROCIS
   Kantharuban Sivalingam : CASSCF convergence, NEVPT2, FIC-MRCI
   Bernardo de Souza      : ESD, SOC TD-DFT
   Georgi Stoychev        : AutoAux, RI-MP2 NMR
   Willem Van den Heuvel  : Paramagnetic NMR
   Boris Wezisla          : Elementary symmetry handling
   Frank Wennmohs         : Technical directorship


 We gratefully acknowledge several colleagues who have allowed us to
 interface, adapt or use parts of their codes:
   Stefan Grimme, W. Hujo, H. Kruse,             : VdW corrections, initial TS optimization,
                  C. Bannwarth                     DFT functionals, gCP, sTDA/sTD-DF
   Ed Valeev                                     : LibInt (2-el integral package), F12 methods
   Garnet Chan, S. Sharma, J. Yang, R. Olivares  : DMRG
   Ulf Ekstrom                                   : XCFun DFT Library
   Mihaly Kallay                                 : mrcc  (arbitrary order and MRCC methods)
   Andreas Klamt, Michael Diedenhofen            : otool_cosmo (COSMO solvation model)
   Jiri Pittner, Ondrej Demel                    : Mk-CCSD
   Frank Weinhold                                : gennbo (NPA and NBO analysis)
   Christopher J. Cramer and Donald G. Truhlar   : smd solvation model
   Lars Goerigk                                  : TD-DFT with DH, B97 family of functionals
   V. Asgeirsson, H. Jonsson                     : NEB implementation
   FAccTs GmbH                                   : IRC, NEB, NEB-TS, Multilevel


 Your calculation uses the libint2 library for the computation of 2-el integrals
 For citations please refer to: http://libint.valeyev.net

 This ORCA versions uses:
   CBLAS   interface :  Fast vector & matrix operations
   LAPACKE interface :  Fast linear algebra routines
   SCALAPACK package :  Parallel linear algebra routines




***************************************
The coordinates will be read from file: /Users/lailaal-madhagi/Desktop/Testing_XAS_Analysis_code/Diethylether/Diethylether_geom.xyz
***************************************


----- Orbital basis set information -----
Your calculation utilizes the basis: 6-31G*
   H-He, Li-Ne : W. J. Hehre, R. Ditchfield and J.A. Pople, J. Chem. Phys. 56, 2257 (1972).
                 Note: He and Ne are unpublished basis sets taken from the Gaussian program.
                 Note: Li and B from J. D. Dill and J. A. Pople, J. Chem. Phys. 62, 2921 (1975).
   Na - Ar     : M. M. Francl, W. J. Pietro, W. J. Hehre, J. S. Binkley, M. S. Gordon, 
                 D. J. DeFrees and J. A. Pople, J. Chem. Phys. 77, 3654 (1982).
   K - Zn      : V. A. Rassolov, J. A. Pople, M. A. Ratner, and T. L. Windus, J. Chem. Phys. 109, 1223 (1998).

================================================================================
                                        WARNINGS
                       Please study these warnings very carefully!
================================================================================


WARNING: Geometry Optimization
  ===> : Switching off AutoStart
         For restart on a previous wavefunction, please use MOREAD

INFO   : the flag for use of LIBINT has been found!

================================================================================
                                       INPUT FILE
================================================================================
NAME = /Users/lailaal-madhagi/Desktop/Testing_XAS_Analysis_code/Diethylether//Results_dir_Diethylether_geom_element_O_2019-11-10_17-41-47//GTE1_Diethylether_geom_2019-11-10_17-41-55//opt.inp
|  1> ! B3LYP 6-31G* TIGHTSCF Grid3 FinalGrid5 Opt 
|  2> !NormalPrint 
|  3> %output 
|  4> Print[P_Basis] 2 
|  5> Print[P_MOS] 1 
|  6> end 
|  7> *xyzfile 0 1 /Users/lailaal-madhagi/Desktop/Testing_XAS_Analysis_code/Diethylether/Diethylether_geom.xyz                           ****END OF INPUT****
================================================================================

                       *****************************
                       * Geometry Optimization Run *
                       *****************************

Geometry optimization settings:
Update method            Update   .... BFGS
Choice of coordinates    CoordSys .... Z-matrix Internals
Initial Hessian          InHess   .... Almoef's Model

Convergence Tolerances:
Energy Change            TolE     ....  5.0000e-06 Eh
Max. Gradient            TolMAXG  ....  3.0000e-04 Eh/bohr
RMS Gradient             TolRMSG  ....  1.0000e-04 Eh/bohr
Max. Displacement        TolMAXD  ....  4.0000e-03 bohr
RMS Displacement         TolRMSD  ....  2.0000e-03 bohr

------------------------------------------------------------------------------
                        ORCA OPTIMIZATION COORDINATE SETUP
------------------------------------------------------------------------------

The optimization will be done in new redundant internal coordinates
Making redundant internal coordinates   ...  (new redundants) done
Evaluating the initial hessian          ...  (Almloef) done
Evaluating the coordinates              ...  done
Calculating the B-matrix                .... done
Calculating the G-matrix                .... done
Diagonalizing the G-matrix              .... done
Small eigenvalue found = 2.246e-02
The first mode is                       ....   24
The number of degrees of freedom        ....   39

    -----------------------------------------------------------------
                    Redundant Internal Coordinates


    -----------------------------------------------------------------
         Definition                    Initial Value    Approx d2E/dq
    -----------------------------------------------------------------
      1. B(O   1,C   0)                  1.4111         0.517851   
      2. B(C   2,O   1)                  1.4111         0.517838   
      3. B(C   3,C   2)                  1.5212         0.385868   
      4. B(H   4,C   2)                  1.1140         0.329659   
      5. B(H   5,C   2)                  1.1140         0.329666   
      6. B(H   6,C   3)                  1.1108         0.333630   
      7. B(H   7,C   3)                  1.1106         0.333906   
      8. B(H   8,C   3)                  1.1108         0.333629   
      9. B(C   9,C   0)                  1.5212         0.385867   
     10. B(H  10,C   9)                  1.1108         0.333631   
     11. B(H  11,C   9)                  1.1106         0.333902   
     12. B(H  12,C   9)                  1.1108         0.333627   
     13. B(H  13,C   0)                  1.1140         0.329662   
     14. B(H  14,C   0)                  1.1140         0.329662   
     15. A(O   1,C   0,H  14)          110.8608         0.335313   
     16. A(O   1,C   0,C   9)          108.9684         0.384122   
     17. A(C   9,C   0,H  14)          107.7714         0.321358   
     18. A(O   1,C   0,H  13)          110.8639         0.335313   
     19. A(C   9,C   0,H  13)          107.7697         0.321358   
     20. A(H  13,C   0,H  14)          110.4911         0.282930   
     21. A(C   0,O   1,C   2)          109.4009         0.401845   
     22. A(O   1,C   2,H   4)          110.8637         0.335312   
     23. A(C   3,C   2,H   5)          107.7715         0.321359   
     24. A(H   4,C   2,H   5)          110.4912         0.282930   
     25. A(O   1,C   2,H   5)          110.8605         0.335313   
     26. A(C   3,C   2,H   4)          107.7701         0.321358   
     27. A(O   1,C   2,C   3)          108.9685         0.384121   
     28. A(H   7,C   3,H   8)          108.9109         0.284019   
     29. A(H   6,C   3,H   8)          109.0993         0.283983   
     30. A(C   2,C   3,H   8)          110.0407         0.321988   
     31. A(H   6,C   3,H   7)          108.9107         0.284019   
     32. A(C   2,C   3,H   7)          109.8114         0.322032   
     33. A(C   2,C   3,H   6)          110.0404         0.321988   
     34. A(C   0,C   9,H  10)          110.0406         0.321988   
     35. A(H  11,C   9,H  12)          108.9108         0.284018   
     36. A(H  10,C   9,H  12)          109.0993         0.283982   
     37. A(C   0,C   9,H  12)          110.0406         0.321988   
     38. A(H  10,C   9,H  11)          108.9104         0.284019   
     39. A(C   0,C   9,H  11)          109.8116         0.322031   
     40. D(C   2,O   1,C   0,C   9)    179.9806         0.021254   
     41. D(C   2,O   1,C   0,H  14)    -61.5711         0.021254   
     42. D(C   2,O   1,C   0,H  13)     61.5323         0.021254   
     43. D(H   5,C   2,O   1,C   0)    -61.5711         0.021253   
     44. D(C   3,C   2,O   1,C   0)    179.9805         0.021253   
     45. D(H   4,C   2,O   1,C   0)     61.5319         0.021253   
     46. D(H   6,C   3,C   2,O   1)    -60.1274         0.011849   
     47. D(H   8,C   3,C   2,O   1)     60.1245         0.011849   
     48. D(H   7,C   3,C   2,H   5)     59.6293         0.011849   
     49. D(H   7,C   3,C   2,O   1)    179.9988         0.011849   
     50. D(H   6,C   3,C   2,H   5)    179.5031         0.011849   
     51. D(H   6,C   3,C   2,H   4)     60.2451         0.011849   
     52. D(H   8,C   3,C   2,H   4)   -179.5030         0.011849   
     53. D(H   8,C   3,C   2,H   5)    -60.2450         0.011849   
     54. D(H   7,C   3,C   2,H   4)    -59.6287         0.011849   
     55. D(H  12,C   9,C   0,H  14)    -60.2450         0.011849   
     56. D(H  12,C   9,C   0,O   1)     60.1247         0.011849   
     57. D(H  11,C   9,C   0,H  14)     59.6292         0.011849   
     58. D(H  11,C   9,C   0,H  13)    -59.6285         0.011849   
     59. D(H  11,C   9,C   0,O   1)    179.9990         0.011849   
     60. D(H  10,C   9,C   0,H  14)    179.5030         0.011849   
     61. D(H  12,C   9,C   0,H  13)   -179.5027         0.011849   
     62. D(H  10,C   9,C   0,H  13)     60.2453         0.011849   
     63. D(H  10,C   9,C   0,O   1)    -60.1273         0.011849   
    -----------------------------------------------------------------

Number of atoms                         .... 15
Number of degrees of freedom            .... 63

         *************************************************************
         *                GEOMETRY OPTIMIZATION CYCLE   1            *
         *************************************************************
---------------------------------
CARTESIAN COORDINATES (ANGSTROEM)
---------------------------------
  C     -2.983030    0.542620    0.141390
  O     -1.799720   -0.224130    0.085820
  C     -0.687760    0.612250    0.320870
  C      0.581590   -0.223790    0.259260
  H     -0.743730    1.071220    1.334430
  H     -0.613040    1.402020   -0.461280
  H      0.550580   -1.020460    1.032690
  H      1.466610    0.421560    0.442570
  H      0.679810   -0.693440   -0.742550
  C     -4.174640   -0.367900   -0.113620
  H     -4.087280   -0.837280   -1.116560
  H     -5.114650    0.222080   -0.072990
  H     -4.216460   -1.165360    0.658490
  H     -2.982570    1.330600   -0.646120
  H     -3.113210    0.998750    1.149400

----------------------------
CARTESIAN COORDINATES (A.U.)
----------------------------
  NO LB      ZA    FRAG     MASS         X           Y           Z
   0 C     6.0000    0    12.011   -5.637110    1.025403    0.267188
   1 O     8.0000    0    15.999   -3.400978   -0.423544    0.162176
   2 C     6.0000    0    12.011   -1.299678    1.156985    0.606356
   3 C     6.0000    0    12.011    1.099046   -0.422902    0.489930
   4 H     1.0000    0     1.008   -1.405446    2.024312    2.521707
   5 H     1.0000    0     1.008   -1.158478    2.649434   -0.871693
   6 H     1.0000    0     1.008    1.040445   -1.928390    1.951501
   7 H     1.0000    0     1.008    2.771491    0.796633    0.836336
   8 H     1.0000    0     1.008    1.284655   -1.310412   -1.403216
   9 C     6.0000    0    12.011   -7.888926   -0.695230   -0.214711
  10 H     1.0000    0     1.008   -7.723840   -1.582230   -2.109993
  11 H     1.0000    0     1.008   -9.665288    0.419670   -0.137931
  12 H     1.0000    0     1.008   -7.967955   -2.202211    1.244366
  13 H     1.0000    0     1.008   -5.636240    2.514470   -1.220990
  14 H     1.0000    0     1.008   -5.883114    1.887364    2.172051

--------------------------------
INTERNAL COORDINATES (ANGSTROEM)
--------------------------------
 C      0   0   0     0.000000000000     0.00000000     0.00000000
 O      1   0   0     1.411104582765     0.00000000     0.00000000
 C      2   1   0     1.411111281402   109.40090135     0.00000000
 C      3   2   1     1.521186410733   108.96853250   179.98051982
 H      3   2   1     1.114042178465   110.86367080    61.53194189
 H      3   2   1     1.114036962493   110.86045461   298.42889124
 H      4   3   2     1.110782910338   110.04043085   299.87259175
 H      4   3   2     1.110558228550   109.81137814   179.99878750
 H      4   3   2     1.110784212617   110.04072528    60.12447900
 C      1   2   3     1.521187418631   108.96844509   179.98055642
 H     10   1   2     1.110782605914   110.04064422   299.87271661
 H     10   1   2     1.110561118264   109.81158748   179.99897452
 H     10   1   2     1.110785855194   110.04058600    60.12474183
 H      1   2   3     1.114039807233   110.86394600    61.53233413
 H      1   2   3     1.114040200980   110.86076635   298.42894087

---------------------------
INTERNAL COORDINATES (A.U.)
---------------------------
 C      0   0   0     0.000000000000     0.00000000     0.00000000
 O      1   0   0     2.666601207747     0.00000000     0.00000000
 C      2   1   0     2.666613866336   109.40090135     0.00000000
 C      3   2   1     2.874625714929   108.96853250   179.98051982
 H      3   2   1     2.105234618937   110.86367080    61.53194189
 H      3   2   1     2.105224762177   110.86045461   298.42889124
 H      4   3   2     2.099075494780   110.04043085   299.87259175
 H      4   3   2     2.098650907732   109.81137814   179.99878750
 H      4   3   2     2.099077955730   110.04072528    60.12447900
 C      1   2   3     2.874627619578   108.96844509   179.98055642
 H     10   1   2     2.099074919500   110.04064422   299.87271661
 H     10   1   2     2.098656368500   109.81158748   179.99897452
 H     10   1   2     2.099081059751   110.04058600    60.12474183
 H      1   2   3     2.105230137957   110.86394600    61.53233413
 H      1   2   3     2.105230882031   110.86076635   298.42894087

---------------------
BASIS SET INFORMATION
---------------------
There are 3 groups of distinct atoms

 Group   1 Type C   : 10s4p1d contracted to 3s2p1d pattern {631/31/1}
 Group   2 Type O   : 10s4p1d contracted to 3s2p1d pattern {631/31/1}
 Group   3 Type H   : 4s contracted to 2s pattern {31}

Atom   0C    basis set group =>   1
Atom   1O    basis set group =>   2
Atom   2C    basis set group =>   1
Atom   3C    basis set group =>   1
Atom   4H    basis set group =>   3
Atom   5H    basis set group =>   3
Atom   6H    basis set group =>   3
Atom   7H    basis set group =>   3
Atom   8H    basis set group =>   3
Atom   9C    basis set group =>   1
Atom  10H    basis set group =>   3
Atom  11H    basis set group =>   3
Atom  12H    basis set group =>   3
Atom  13H    basis set group =>   3
Atom  14H    basis set group =>   3

-------------------------
BASIS SET IN INPUT FORMAT
-------------------------

 # Basis set for element : H 
 NewGTO H 
 S 3 
   1      18.7311370000      0.0334945995
   2       2.8253937000      0.2347269467
   3       0.6401217000      0.8137573184
 S 1 
   1       0.1612778000      1.0000000000
  end;

 # Basis set for element : C 
 NewGTO C 
 S 6 
   1    3047.5249000000      0.0018347002
   2     457.3695100000      0.0140373012
   3     103.9486900000      0.0688426061
   4      29.2101550000      0.2321844206
   5       9.2866630000      0.4679413416
   6       3.1639270000      0.3623120322
 S 3 
   1       7.8682724000     -0.1193324086
   2       1.8812885000     -0.1608542116
   3       0.5442493000      1.1434564826
 P 3 
   1       7.8682724000      0.0689990956
   2       1.8812885000      0.3164239798
   3       0.5442493000      0.7443082524
 S 1 
   1       0.1687144000      1.0000000000
 P 1 
   1       0.1687144000      1.0000000000
 D 1 
   1       0.8000000000      1.0000000000
  end;

 # Basis set for element : O 
 NewGTO O 
 S 6 
   1    5484.6717000000      0.0018310998
   2     825.2349500000      0.0139500985
   3     188.0469600000      0.0684450927
   4      52.9645000000      0.2327142753
   5      16.8975700000      0.4701929501
   6       5.7996353000      0.3585208619
 S 3 
   1      15.5396160000     -0.1107775038
   2       3.5999336000     -0.1480263051
   3       1.0137618000      1.1307670390
 P 3 
   1      15.5396160000      0.0708742995
   2       3.5999336000      0.3397527978
   3       1.0137618000      0.7271585953
 S 1 
   1       0.2700058000      1.0000000000
 P 1 
   1       0.2700058000      1.0000000000
 D 1 
   1       0.8000000000      1.0000000000
  end;

------------------------------------------------------------------------------
                           ORCA GTO INTEGRAL CALCULATION
------------------------------------------------------------------------------

                         BASIS SET STATISTICS AND STARTUP INFO

 # of primitive gaussian shells          ...  115
 # of primitive gaussian functions       ...  175
 # of contracted shells                  ...   50
 # of contracted basis functions         ...   90
 Highest angular momentum                ...    2
 Maximum contraction depth               ...    6
 Integral package used                   ... LIBINT
 Integral threshhold            Thresh   ...  2.500e-11
 Primitive cut-off              TCut     ...  2.500e-12


------------------------------ INTEGRAL EVALUATION ----------------------------


 * One electron integrals 
 Pre-screening matrix                    ... done
 Shell pair data                         ... done (   0.001 sec)

-------------------------------------------------------------------------------
                                 ORCA SCF
-------------------------------------------------------------------------------

------------
SCF SETTINGS
------------
Hamiltonian:
 Density Functional     Method          .... DFT(GTOs)
 Exchange Functional    Exchange        .... B88
   X-Alpha parameter    XAlpha          ....  0.666667
   Becke's b parameter  XBeta           ....  0.004200
 Correlation Functional Correlation     .... LYP
 LDA part of GGA corr.  LDAOpt          .... VWN-5
 Gradients option       PostSCFGGA      .... off
 Hybrid DFT is turned on
   Fraction HF Exchange ScalHFX         ....  0.200000
   Scaling of DF-GGA-X  ScalDFX         ....  0.720000
   Scaling of DF-GGA-C  ScalDFC         ....  0.810000
   Scaling of DF-LDA-C  ScalLDAC        ....  1.000000
   Perturbative correction              ....  0.000000
   Density functional embedding theory  .... OFF
   NL short-range parameter             ....  4.800000


General Settings:
 Integral files         IntName         .... /Users/lailaal-madhagi/Desktop/Testing_XAS_Analysis_code/Diethylether//Results_dir_Diethylether_geom_element_O_2019-11-10_17-41-47//GTE1_Diethylether_geom_2019-11-10_17-41-55//opt
 Hartree-Fock type      HFTyp           .... RHF
 Total Charge           Charge          ....    0
 Multiplicity           Mult            ....    1
 Number of Electrons    NEL             ....   42
 Basis Dimension        Dim             ....   90
 Nuclear Repulsion      ENuc            ....    189.5442863056 Eh

Convergence Acceleration:
 DIIS                   CNVDIIS         .... on
   Start iteration      DIISMaxIt       ....    12
   Startup error        DIISStart       ....  0.200000
   # of expansion vecs  DIISMaxEq       ....     5
   Bias factor          DIISBfac        ....   1.050
   Max. coefficient     DIISMaxC        ....  10.000
 Newton-Raphson         CNVNR           .... off
 SOSCF                  CNVSOSCF        .... on
   Start iteration      SOSCFMaxIt      ....   150
   Startup grad/error   SOSCFStart      ....  0.003300
 Level Shifting         CNVShift        .... on
   Level shift para.    LevelShift      ....    0.2500
   Turn off err/grad.   ShiftErr        ....    0.0010
 Zerner damping         CNVZerner       .... off
 Static damping         CNVDamp         .... on
   Fraction old density DampFac         ....    0.7000
   Max. Damping (<1)    DampMax         ....    0.9800
   Min. Damping (>=0)   DampMin         ....    0.0000
   Turn off err/grad.   DampErr         ....    0.1000
 Fernandez-Rico         CNVRico         .... off

SCF Procedure:
 Maximum # iterations   MaxIter         ....   125
 SCF integral mode      SCFMode         .... Direct
   Integral package                     .... LIBINT
 Reset frequency        DirectResetFreq ....    20
 Integral Threshold     Thresh          ....  2.500e-11 Eh
 Primitive CutOff       TCut            ....  2.500e-12 Eh

Convergence Tolerance:
 Convergence Check Mode ConvCheckMode   .... Total+1el-Energy
 Convergence forced     ConvForced      .... 0
 Energy Change          TolE            ....  1.000e-08 Eh
 1-El. energy change                    ....  1.000e-05 Eh
 Orbital Gradient       TolG            ....  1.000e-05
 Orbital Rotation angle TolX            ....  1.000e-05
 DIIS Error             TolErr          ....  5.000e-07


Diagonalization of the overlap matrix:
Smallest eigenvalue                        ... 6.635e-03
Time for diagonalization                   ...    0.002 sec
Threshold for overlap eigenvalues          ... 1.000e-08
Number of eigenvalues below threshold      ... 0
Time for construction of square roots      ...    0.001 sec
Total time needed                          ...    0.004 sec

-------------------
DFT GRID GENERATION
-------------------

General Integration Accuracy     IntAcc      ...  4.340
Radial Grid Type                 RadialGrid  ... Gauss-Chebyshev
Angular Grid (max. acc.)         AngularGrid ... Lebedev-194
Angular grid pruning method      GridPruning ... 3 (G Style)
Weight generation scheme         WeightScheme... Becke
Basis function cutoff            BFCut       ...    1.0000e-11
Integration weight cutoff        WCut        ...    1.0000e-14
Grids for H and He will be reduced by one unit

# of grid points (after initial pruning)     ...  31754 (   0.0 sec)
# of grid points (after weights+screening)   ...  29615 (   0.1 sec)
nearest neighbour list constructed           ...    0.0 sec
Grid point re-assignment to atoms done       ...    0.0 sec
Grid point division into batches done        ...    0.0 sec
Reduced shell lists constructed in    0.1 sec

Total number of grid points                  ...    29615
Total number of batches                      ...      469
Average number of points per batch           ...       63
Average number of grid points per atom       ...     1974
Average number of shells per batch           ...    36.23 (72.47%)
Average number of basis functions per batch  ...    66.20 (73.55%)
Average number of large shells per batch     ...    29.13 (80.40%)
Average number of large basis fcns per batch ...    53.95 (81.50%)
Maximum spatial batch extension              ...  18.30, 20.30, 18.48 au
Average spatial batch extension              ...   3.07,  3.33,  3.27 au

Time for grid setup =    0.219 sec

------------------------------
INITIAL GUESS: MODEL POTENTIAL
------------------------------
Loading Hartree-Fock densities                     ... done
Calculating cut-offs                               ... done
Setting up the integral package                    ... done
Initializing the effective Hamiltonian             ... done
Starting the Coulomb interaction                   ... done (   0.0 sec)
Reading the grid                                   ... done
Mapping shells                                     ... done
Starting the XC term evaluation                    ... done (   0.2 sec)
  promolecular density results
     # of electrons  =     41.996237654
     EX              =    -31.706812853
     EC              =     -1.359305823
     EX+EC           =    -33.066118676
Transforming the Hamiltonian                       ... done (   0.0 sec)
Diagonalizing the Hamiltonian                      ... done (   0.0 sec)
Back transforming the eigenvectors                 ... done (   0.0 sec)
Now organizing SCF variables                       ... done
                      ------------------
                      INITIAL GUESS DONE (   0.5 sec)
                      ------------------
--------------
SCF ITERATIONS
--------------
               ***  Starting incremental Fock matrix formation  ***

                         ----------------------------
                         !        ITERATION     0   !
                         ----------------------------
   Total Energy        :    -233.329568286605 Eh
   Energy Change       :    -233.329568286605 Eh
   MAX-DP              :       0.064718731679
   RMS-DP              :       0.003414083057
   Actual Damping      :       0.7000
   Actual Level Shift  :       0.2500 Eh
   Int. Num. El.       :    42.00057906 (UP=   21.00028953 DN=   21.00028953)
   Exchange            :   -26.25093086
   Correlation         :    -1.63318202


                         ----------------------------
                         !        ITERATION     1   !
                         ----------------------------
   Total Energy        :    -233.409888709204 Eh
   Energy Change       :      -0.080320422599 Eh
   MAX-DP              :       0.040506396527
   RMS-DP              :       0.002523217587
   Actual Damping      :       0.7000
   Actual Level Shift  :       0.2500 Eh
   Int. Num. El.       :    42.00065944 (UP=   21.00032972 DN=   21.00032972)
   Exchange            :   -26.02148865
   Correlation         :    -1.62330213

                               ***Turning on DIIS***

                         ----------------------------
                         !        ITERATION     2   !
                         ----------------------------
   Total Energy        :    -233.442321719920 Eh
   Energy Change       :      -0.032433010717 Eh
   MAX-DP              :       0.062525069227
   RMS-DP              :       0.004152077681
   Actual Damping      :       0.0000
   Actual Level Shift  :       0.2500 Eh
   Int. Num. El.       :    42.00070793 (UP=   21.00035397 DN=   21.00035397)
   Exchange            :   -25.87238824
   Correlation         :    -1.61648414
   DIIS-Error          :       0.034051851596


                         ----------------------------
                         !        ITERATION     3   !
                         ----------------------------
   Total Energy        :    -233.488447696670 Eh
   Energy Change       :      -0.046125976749 Eh
   MAX-DP              :       0.027831489123
   RMS-DP              :       0.001731303855
   Actual Damping      :       0.0000
   Actual Level Shift  :       0.2500 Eh
   Int. Num. El.       :    42.00077328 (UP=   21.00038664 DN=   21.00038664)
   Exchange            :   -25.66009641
   Correlation         :    -1.60635435
   DIIS-Error          :       0.048732818138
   DIIS coefficients:
      0.59271   0.40729


                         ----------------------------
                         !        ITERATION     4   !
                         ----------------------------
   Total Energy        :    -233.501513544669 Eh
   Energy Change       :      -0.013065847999 Eh
   MAX-DP              :       0.008091306840
   RMS-DP              :       0.000502798453
   Actual Damping      :       0.0000
   Actual Level Shift  :       0.2500 Eh
   Int. Num. El.       :    42.00074187 (UP=   21.00037094 DN=   21.00037094)
   Exchange            :   -25.75392201
   Correlation         :    -1.61118792
   DIIS-Error          :       0.009981476929
   DIIS coefficients:
      0.18221  -0.03675   0.85454


                         ----------------------------
                         !        ITERATION     5   !
                         ----------------------------
   Total Energy        :    -233.502121723217 Eh
   Energy Change       :      -0.000608178549 Eh
   MAX-DP              :       0.004031641284
   RMS-DP              :       0.000198123720
   Actual Damping      :       0.0000
   Actual Level Shift  :       0.2500 Eh
   Int. Num. El.       :    42.00073821 (UP=   21.00036911 DN=   21.00036911)
   Exchange            :   -25.76780718
   Correlation         :    -1.61215211
   DIIS-Error          :       0.006778716862
   DIIS coefficients:
      0.05734  -0.04876   0.32735   0.66407

                      *** Initiating the SOSCF procedure ***
                           *** Shutting down DIIS ***
                      *** Re-Reading the Fockian *** 
                      *** Removing any level shift *** 

                         ----------------------------
                         !        ITERATION     6   !
                         ----------------------------
   Total Energy        :    -233.502195115109 Eh
   Energy Change       :      -0.000073391891 Eh
   MAX-DP              :       0.001068115701
   RMS-DP              :       0.000076110139
   Orbital gradient    :       0.000254951694
   Orbital Rotation    :       0.000254951694
   Actual Damping      :       0.0000
   Int. Num. El.       :    42.00073855 (UP=   21.00036927 DN=   21.00036927)
   Exchange            :   -25.77502917
   Correlation         :    -1.61241969

               *** Restarting incremental Fock matrix formation ***

                         ----------------------------
                         !        ITERATION     7   !
                         ----------------------------
   Total Energy        :    -233.502197182633 Eh
   Energy Change       :      -0.000002067524 Eh
   MAX-DP              :       0.000269409400
   RMS-DP              :       0.000013414460
   Orbital gradient    :       0.000077825291
   Orbital Rotation    :       0.000116986002
   Actual Damping      :       0.0000
   Int. Num. El.       :    42.00073925 (UP=   21.00036963 DN=   21.00036963)
   Exchange            :   -25.77567625
   Correlation         :    -1.61246796


                         ----------------------------
                         !        ITERATION     8   !
                         ----------------------------
   Total Energy        :    -233.502197107512 Eh
   Energy Change       :       0.000000075120 Eh
   MAX-DP              :       0.000144267085
   RMS-DP              :       0.000007642223
   Orbital gradient    :       0.000087021296
   Orbital Rotation    :       0.000065089807
   Actual Damping      :       0.0000
   Int. Num. El.       :    42.00073952 (UP=   21.00036976 DN=   21.00036976)
   Exchange            :   -25.77522075
   Correlation         :    -1.61244638


                         ----------------------------
                         !        ITERATION     9   !
                         ----------------------------
   Total Energy        :    -233.502197343781 Eh
   Energy Change       :      -0.000000236269 Eh
   MAX-DP              :       0.000046098592
   RMS-DP              :       0.000001591712
   Orbital gradient    :       0.000014867019
   Orbital Rotation    :       0.000012520651
   Actual Damping      :       0.0000
   Int. Num. El.       :    42.00073942 (UP=   21.00036971 DN=   21.00036971)
   Exchange            :   -25.77549722
   Correlation         :    -1.61245878


                         ----------------------------
                         !        ITERATION    10   !
                         ----------------------------
   Total Energy        :    -233.502197342352 Eh
   Energy Change       :       0.000000001430 Eh
   MAX-DP              :       0.000027193764
   RMS-DP              :       0.000001009710
   Orbital gradient    :       0.000019916127
   Orbital Rotation    :       0.000008349686
   Actual Damping      :       0.0000
   Int. Num. El.       :    42.00073941 (UP=   21.00036971 DN=   21.00036971)
   Exchange            :   -25.77546627
   Correlation         :    -1.61245884

                  ***Gradient check signals convergence***
              ***Rediagonalizing the Fockian in SOSCF/NRSCF***

               *****************************************************
               *                     SUCCESS                       *
               *           SCF CONVERGED AFTER  11 CYCLES          *
               *****************************************************

Setting up the final grid:

General Integration Accuracy     IntAcc      ...  5.010
Radial Grid Type                 RadialGrid  ... Gauss-Chebyshev
Angular Grid (max. acc.)         AngularGrid ... Lebedev-434
Angular grid pruning method      GridPruning ... 3 (G Style)
Weight generation scheme         WeightScheme... Becke
Basis function cutoff            BFCut       ...    1.0000e-11
Integration weight cutoff        WCut        ...    1.0000e-14
Grids for H and He will be reduced by one unit

# of grid points (after initial pruning)     ... 120554 (   0.1 sec)
# of grid points (after weights+screening)   ... 111292 (   0.2 sec)
nearest neighbour list constructed           ...    0.0 sec
Grid point re-assignment to atoms done       ...    0.0 sec
Grid point division into batches done        ...    0.7 sec
Reduced shell lists constructed in    1.1 sec

Total number of grid points                  ...   111292
Total number of batches                      ...     1747
Average number of points per batch           ...       63
Average number of grid points per atom       ...     7419
Average number of shells per batch           ...    33.73 (67.47%)
Average number of basis functions per batch  ...    61.40 (68.22%)
Average number of large shells per batch     ...    26.53 (78.64%)
Average number of large basis fcns per batch ...    49.11 (79.99%)
Maximum spatial batch extension              ...  18.28, 18.41, 20.87 au
Average spatial batch extension              ...   2.06,  2.09,  2.07 au

Final grid set up in    1.4 sec
Final integration                            ... done (   0.6 sec)
Change in XC energy                          ...     0.000011941
Integrated number of electrons               ...    42.000008931
Previous integrated no of electrons          ...    42.000739418

----------------
TOTAL SCF ENERGY
----------------

Total Energy       :         -233.50218540 Eh           -6353.91749 eV

Components:
Nuclear Repulsion  :          189.54428631 Eh            5157.76225 eV
Electronic Energy  :         -423.04647171 Eh          -11511.67974 eV
One Electron Energy:         -690.88593481 Eh          -18799.96206 eV
Two Electron Energy:          267.83946310 Eh            7288.28232 eV

Virial components:
Potential Energy   :         -465.53895516 Eh          -12667.95900 eV
Kinetic Energy     :          232.03676976 Eh            6314.04150 eV
Virial Ratio       :            2.00631545


DFT components:
N(Alpha)           :       21.000004465576 electrons
N(Beta)            :       21.000004465576 electrons
N(Total)           :       42.000008931152 electrons
E(X)               :      -25.775471016448 Eh       
E(C)               :       -1.612458173635 Eh       
E(XC)              :      -27.387929190083 Eh       
DFET-embed. en.    :        0.000000000000 Eh       

---------------
SCF CONVERGENCE
---------------

  Last Energy change         ...   -3.2082e-09  Tolerance :   1.0000e-08
  Last MAX-Density change    ...    1.4312e-06  Tolerance :   1.0000e-07
  Last RMS-Density change    ...    1.2966e-07  Tolerance :   5.0000e-09
  Last Orbital Gradient      ...    6.3094e-07  Tolerance :   1.0000e-05
  Last Orbital Rotation      ...    1.0580e-06  Tolerance :   1.0000e-05

             **** THE GBW FILE WAS UPDATED (/Users/lailaal-madhagi/Desktop/Testing_XAS_Analysis_code/Diethylether//Results_dir_Diethylether_geom_element_O_2019-11-10_17-41-47//GTE1_Diethylether_geom_2019-11-10_17-41-55//opt.gbw) ****
             **** DENSITY FILE WAS UPDATED (/Users/lailaal-madhagi/Desktop/Testing_XAS_Analysis_code/Diethylether//Results_dir_Diethylether_geom_element_O_2019-11-10_17-41-47//GTE1_Diethylether_geom_2019-11-10_17-41-55//opt.scfp.tmp) ****
             **** ENERGY FILE WAS UPDATED (/Users/lailaal-madhagi/Desktop/Testing_XAS_Analysis_code/Diethylether//Results_dir_Diethylether_geom_element_O_2019-11-10_17-41-47//GTE1_Diethylether_geom_2019-11-10_17-41-55//opt.en.tmp) ****
----------------
ORBITAL ENERGIES
----------------

  NO   OCC          E(Eh)            E(eV) 
   0   2.0000     -19.134966      -520.6889 
   1   2.0000     -10.217969      -278.0451 
   2   2.0000     -10.217929      -278.0440 
   3   2.0000     -10.165205      -276.6093 
   4   2.0000     -10.165164      -276.6082 
   5   2.0000      -1.027651       -27.9638 
   6   2.0000      -0.765439       -20.8287 
   7   2.0000      -0.716185       -19.4884 
   8   2.0000      -0.603960       -16.4346 
   9   2.0000      -0.591381       -16.0923 
  10   2.0000      -0.485164       -13.2020 
  11   2.0000      -0.483658       -13.1610 
  12   2.0000      -0.435303       -11.8452 
  13   2.0000      -0.420898       -11.4532 
  14   2.0000      -0.386907       -10.5283 
  15   2.0000      -0.365868        -9.9558 
  16   2.0000      -0.363878        -9.9016 
  17   2.0000      -0.336790        -9.1645 
  18   2.0000      -0.335803        -9.1377 
  19   2.0000      -0.310615        -8.4523 
  20   2.0000      -0.249668        -6.7938 
  21   0.0000       0.093070         2.5326 
  22   0.0000       0.114201         3.1076 
  23   0.0000       0.136687         3.7194 
  24   0.0000       0.145564         3.9610 
  25   0.0000       0.152803         4.1580 
  26   0.0000       0.172910         4.7051 
  27   0.0000       0.173114         4.7107 
  28   0.0000       0.191682         5.2159 
  29   0.0000       0.197451         5.3729 
  30   0.0000       0.199154         5.4192 
  31   0.0000       0.200560         5.4575 
  32   0.0000       0.218838         5.9549 
  33   0.0000       0.248445         6.7605 
  34   0.0000       0.280079         7.6213 
  35   0.0000       0.505841        13.7646 
  36   0.0000       0.538908        14.6644 
  37   0.0000       0.552784        15.0420 
  38   0.0000       0.566861        15.4251 
  39   0.0000       0.574990        15.6463 
  40   0.0000       0.588323        16.0091 
  41   0.0000       0.621168        16.9028 
  42   0.0000       0.638277        17.3684 
  43   0.0000       0.655196        17.8288 
  44   0.0000       0.695688        18.9306 
  45   0.0000       0.745330        20.2815 
  46   0.0000       0.793020        21.5792 
  47   0.0000       0.823760        22.4156 
  48   0.0000       0.833565        22.6824 
  49   0.0000       0.883366        24.0376 
  50   0.0000       0.886806        24.1312 
  51   0.0000       0.891553        24.2604 
  52   0.0000       0.902939        24.5702 
  53   0.0000       0.919623        25.0242 
  54   0.0000       0.937222        25.5031 
  55   0.0000       0.938461        25.5368 
  56   0.0000       0.962529        26.1918 
  57   0.0000       1.001960        27.2647 
  58   0.0000       1.113853        30.3095 
  59   0.0000       1.138600        30.9829 
  60   0.0000       1.165404        31.7122 
  61   0.0000       1.332830        36.2682 
  62   0.0000       1.431058        38.9411 
  63   0.0000       1.443264        39.2732 
  64   0.0000       1.445756        39.3410 
  65   0.0000       1.450960        39.4826 
  66   0.0000       1.503744        40.9190 
  67   0.0000       1.694638        46.1135 
  68   0.0000       1.755799        47.7777 
  69   0.0000       1.855001        50.4772 
  70   0.0000       1.933769        52.6205 
  71   0.0000       1.936910        52.7060 
  72   0.0000       1.951242        53.0960 
  73   0.0000       1.970595        53.6226 
  74   0.0000       2.054156        55.8964 
  75   0.0000       2.097446        57.0744 
  76   0.0000       2.109388        57.3994 
  77   0.0000       2.148761        58.4708 
  78   0.0000       2.190386        59.6034 
  79   0.0000       2.224880        60.5421 
  80   0.0000       2.240391        60.9641 
  81   0.0000       2.298319        62.5405 
  82   0.0000       2.301945        62.6391 
  83   0.0000       2.406184        65.4756 
  84   0.0000       2.497990        67.9738 
  85   0.0000       2.503083        68.1124 
  86   0.0000       2.585205        70.3470 
  87   0.0000       2.683930        73.0334 
  88   0.0000       2.843075        77.3640 
  89   0.0000       3.005140        81.7740 
------------------
MOLECULAR ORBITALS
------------------
                      0         1         2         3         4         5   
                 -19.13497 -10.21797 -10.21793 -10.16520 -10.16516  -1.02765
                   2.00000   2.00000   2.00000   2.00000   2.00000   2.00000
                  --------  --------  --------  --------  --------  --------
  0C   1s         0.000105  0.150995  0.983777 -0.000054 -0.001468  0.071172
  0C   2s         0.000835  0.006605  0.036689  0.000157 -0.000938 -0.136781
  0C   1pz       -0.000018  0.000007 -0.000054  0.000030  0.000119  0.002849
  0C   1px       -0.000904  0.000158  0.001091 -0.000039  0.000501 -0.084690
  0C   1py        0.000260 -0.000025 -0.000722  0.000177  0.000448  0.048775
  0C   3s        -0.009726 -0.008327 -0.027473 -0.001021  0.007183 -0.037385
  0C   2pz        0.000400 -0.000260  0.000081 -0.000188 -0.000717 -0.001987
  0C   2px       -0.001880 -0.002168  0.001791 -0.001372 -0.003712  0.000341
  0C   2py        0.002903 -0.000555 -0.000267 -0.000481 -0.002419 -0.010959
  0C   1dz2       0.000072  0.000091 -0.000356  0.000052  0.000540  0.008172
  0C   1dxz      -0.000053 -0.000052 -0.000008 -0.000007 -0.000223  0.000823
  0C   1dyz       0.000002  0.000002  0.000018 -0.000005 -0.000204 -0.000295
  0C   1dx2y2    -0.000200 -0.000220  0.000353 -0.000057 -0.000178 -0.007455
  0C   1dxy      -0.000158 -0.000131 -0.000428  0.000019 -0.000745  0.012963
  1O   1s        -0.995172 -0.000079  0.000108 -0.000006  0.000006  0.196185
  1O   2s        -0.030263 -0.000451  0.000614  0.000100 -0.000112 -0.429219
  1O   1pz       -0.000339  0.000030  0.000011  0.000011  0.000031 -0.019166
  1O   1px        0.000083  0.000318  0.000236  0.000280  0.000246  0.004703
  1O   1py       -0.001871  0.000038 -0.000032 -0.000051  0.000074 -0.105734
  1O   3s         0.021552  0.000401 -0.000547  0.000501 -0.000559 -0.432945
  1O   2pz        0.000952  0.000260 -0.000355  0.000005 -0.000177 -0.010411
  1O   2px       -0.000234 -0.000069  0.000084 -0.001107 -0.000948  0.002575
  1O   2py        0.005251  0.001437 -0.001958  0.000463 -0.000583 -0.057441
  1O   1dz2      -0.000595 -0.000821  0.001194  0.000129 -0.000140  0.011434
  1O   1dxz       0.000101  0.000399  0.000010 -0.000012  0.000037 -0.001656
  1O   1dyz       0.000141  0.000349 -0.000215 -0.000019  0.000033 -0.003315
  1O   1dx2y2     0.000303  0.000208 -0.000516 -0.000097  0.000098 -0.002544
  1O   1dxy       0.000008  0.001485  0.001086  0.000062  0.000063  0.000104
  2C   1s         0.000105 -0.983816  0.150741  0.001465 -0.000106  0.071178
  2C   2s         0.000836 -0.036982  0.004693  0.000915 -0.000259 -0.136773
  2C   1pz        0.000122  0.000215 -0.000049 -0.000041 -0.000031  0.015732
  2C   1px        0.000879  0.001024 -0.000159  0.000534 -0.000082  0.080120
  2C   1py        0.000314  0.000761 -0.000203 -0.000434 -0.000133  0.053779
  2C   3s        -0.009727  0.028706 -0.000289 -0.007029  0.001796 -0.037447
  2C   2pz        0.000672  0.000163 -0.000138  0.000114 -0.000042 -0.001943
  2C   2px        0.001616  0.001018 -0.002637 -0.004047 -0.000976  0.000690
  2C   2py        0.003009  0.000484  0.000290  0.002218  0.000156 -0.010940
  2C   1dz2       0.000079  0.000290 -0.000192 -0.000579  0.000012  0.007524
  2C   1dxz      -0.000002 -0.000140  0.000055 -0.000040  0.000019 -0.003894
  2C   1dyz       0.000026 -0.000094  0.000008  0.000080  0.000000 -0.002516
  2C   1dx2y2    -0.000222 -0.000202  0.000313  0.000293  0.000022 -0.005468
  2C   1dxy       0.000130 -0.000468  0.000041 -0.000732  0.000105 -0.013539
  3C   1s        -0.000063 -0.001481  0.000241 -0.993834  0.054231  0.014083
  3C   2s        -0.000235  0.000822 -0.000040 -0.037211  0.001896 -0.024317
  3C   1pz       -0.000008  0.000009 -0.000025 -0.000011  0.000002  0.000331
  3C   1px       -0.000367 -0.000540  0.000038  0.000230  0.000003  0.019387
  3C   1py        0.000099  0.000260 -0.000151 -0.000150  0.000007 -0.005872
  3C   3s         0.003302 -0.006021  0.001115  0.032542 -0.001108 -0.027718
  3C   2pz       -0.000011 -0.000054  0.000179  0.000055  0.000012  0.000548
  3C   2px       -0.001370  0.002989  0.000005 -0.001748 -0.000133  0.010357
  3C   2py        0.000485 -0.001472  0.000971  0.000994  0.000122 -0.001067
  3C   1dz2      -0.000026 -0.000512  0.000069 -0.000000 -0.000019  0.001793
  3C   1dxz      -0.000014 -0.000059  0.000015 -0.000004  0.000002  0.000043
  3C   1dyz      -0.000042  0.000044  0.000016  0.000001  0.000005  0.000073
  3C   1dx2y2     0.000201  0.000334 -0.000130 -0.000015  0.000003 -0.002521
  3C   1dxy      -0.000168 -0.000807  0.000180 -0.000016 -0.000006  0.002450
  4H   1s         0.000518  0.000370 -0.000284  0.000336 -0.000115 -0.023678
  4H   2s         0.000546 -0.005650  0.000025 -0.000317 -0.000248 -0.000547
  5H   1s         0.000518  0.000370 -0.000284  0.000336 -0.000115 -0.023673
  5H   2s         0.000545 -0.005650  0.000025 -0.000317 -0.000248 -0.000545
  6H   1s        -0.000137  0.000404  0.000024  0.000437 -0.000041 -0.004659
  6H   2s         0.000004 -0.000249  0.000200 -0.005578  0.000263 -0.000637
  7H   1s         0.000009  0.000282 -0.000166  0.000472 -0.000065 -0.003508
  7H   2s        -0.000434 -0.000488 -0.000181 -0.005377  0.000337  0.001008
  8H   1s        -0.000137  0.000404  0.000024  0.000437 -0.000041 -0.004660
  8H   2s         0.000004 -0.000249  0.000200 -0.005579  0.000263 -0.000638
  9C   1s        -0.000063  0.000213  0.001485  0.054257  0.993832  0.014080
  9C   2s        -0.000235 -0.000208 -0.000797  0.002165  0.037196 -0.024318
  9C   1pz        0.000048  0.000001 -0.000096  0.000004  0.000046 -0.002667
  9C   1px        0.000357 -0.000131 -0.000499  0.000027  0.000215 -0.018808
  9C   1py        0.000121  0.000058 -0.000324  0.000011  0.000163 -0.007031
  9C   3s         0.003301  0.000740  0.006079 -0.002441 -0.032470 -0.027682
  9C   2pz        0.000201 -0.000011  0.000540 -0.000068 -0.000317 -0.001066
  9C   2px        0.001323  0.000941  0.002692 -0.000301 -0.001632 -0.010241
  9C   2py        0.000566 -0.000430  0.001863 -0.000248 -0.001076 -0.001666
  9C   1dz2      -0.000017  0.000085  0.000467  0.000018 -0.000003  0.001664
  9C   1dxz       0.000051 -0.000020 -0.000235 -0.000004 -0.000001 -0.000876
  9C   1dyz      -0.000012 -0.000039 -0.000177 -0.000007 -0.000003 -0.000360
  9C   1dx2y2     0.000173  0.000034 -0.000233 -0.000000  0.000017 -0.002135
  9C   1dxy       0.000195 -0.000061 -0.000843 -0.000007 -0.000013 -0.002711
 10H   1s        -0.000137 -0.000144 -0.000378 -0.000007 -0.000439 -0.004659
 10H   2s         0.000004 -0.000116  0.000297  0.000346  0.005574 -0.000640
 11H   1s         0.000009  0.000074 -0.000318  0.000013 -0.000477 -0.003509
 11H   2s        -0.000434  0.000319  0.000411  0.000250  0.005381  0.000990
 12H   1s        -0.000137 -0.000144 -0.000378 -0.000007 -0.000439 -0.004658
 12H   2s         0.000004 -0.000116  0.000298  0.000346  0.005574 -0.000632
 13H   1s         0.000518  0.000160 -0.000438  0.000078 -0.000347 -0.023673
 13H   2s         0.000546  0.001669  0.005398  0.000281  0.000288 -0.000555
 14H   1s         0.000518  0.000160 -0.000438  0.000078 -0.000347 -0.023676
 14H   2s         0.000545  0.001669  0.005398  0.000281  0.000288 -0.000545
                      6         7         8         9        10        11   
                  -0.76544  -0.71619  -0.60396  -0.59138  -0.48516  -0.48366
                   2.00000   2.00000   2.00000   2.00000   2.00000   2.00000
                  --------  --------  --------  --------  --------  --------
  0C   1s        -0.109748  0.064349 -0.085777 -0.089492 -0.023470 -0.000041
  0C   2s         0.216046 -0.126308  0.175923  0.182853  0.046385  0.000102
  0C   1pz       -0.010573  0.008033  0.008907  0.026403  0.030889  0.258344
  0C   1px       -0.030600  0.115182  0.080355 -0.001610 -0.150246 -0.018974
  0C   1py       -0.045161 -0.001898  0.016463  0.143760  0.228356 -0.047419
  0C   3s         0.167254 -0.109394  0.169600  0.175491  0.057107  0.000113
  0C   2pz       -0.000715  0.000973  0.004456  0.011640  0.011827  0.110442
  0C   2px       -0.012984  0.024673  0.016224  0.006274 -0.058815 -0.008218
  0C   2py        0.000998 -0.004400  0.017581  0.060783  0.088244 -0.020395
  0C   1dz2      -0.001679 -0.003046  0.003407  0.010448  0.014456  0.002767
  0C   1dxz       0.000187 -0.001694 -0.003110 -0.001016  0.000557  0.004618
  0C   1dyz       0.000810 -0.000487 -0.001223 -0.002820 -0.003668  0.006447
  0C   1dx2y2    -0.001196  0.002857 -0.004655 -0.002348 -0.000620  0.000908
  0C   1dxy       0.000281 -0.012302 -0.012516  0.002789  0.013408 -0.001342
  1O   1s        -0.000023 -0.061489 -0.000042  0.069557  0.000000  0.000004
  1O   2s         0.000037  0.143993  0.000090 -0.163641 -0.000019 -0.000016
  1O   1pz       -0.012840  0.002871 -0.016809  0.021871  0.026819  0.242755
  1O   1px       -0.164148 -0.000648 -0.215141 -0.005522  0.346294 -0.017199
  1O   1py       -0.004971  0.015814 -0.006589  0.120827  0.010554 -0.044778
  1O   3s         0.000142  0.167438  0.000160 -0.214245  0.000078  0.000055
  1O   2pz       -0.005589  0.001006 -0.008100  0.011813  0.012627  0.139711
  1O   2px       -0.071398 -0.000180 -0.103713 -0.003003  0.163082 -0.009904
  1O   2py       -0.002140  0.005566 -0.003166  0.065271  0.005023 -0.025738
  1O   1dz2      -0.000311  0.001060 -0.000383 -0.003616  0.000180  0.004950
  1O   1dxz      -0.002244 -0.000339 -0.002787 -0.000287  0.001386 -0.000908
  1O   1dyz      -0.001059  0.000097 -0.001313  0.002809  0.000638  0.015227
  1O   1dx2y2     0.000945 -0.002428  0.001177 -0.008760 -0.000586  0.002950
  1O   1dxy      -0.012622 -0.000147 -0.015671 -0.000768  0.007791 -0.001000
  2C   1s         0.109787  0.064292  0.085877 -0.089393  0.023456  0.000001
  2C   2s        -0.216100 -0.126158 -0.176142  0.182644 -0.046421  0.000055
  2C   1pz        0.005434 -0.010000  0.003809  0.025638 -0.053358  0.258375
  2C   1px       -0.034610 -0.114710  0.081601 -0.011039 -0.129564 -0.018924
  2C   1py        0.043180 -0.008893 -0.011725  0.143489 -0.236750 -0.047915
  2C   3s        -0.167413 -0.109431 -0.169711  0.175190 -0.056875 -0.000103
  2C   2pz       -0.001259 -0.002808 -0.001779  0.010203 -0.020671  0.110584
  2C   2px       -0.012806 -0.024095  0.017852 -0.012011 -0.050564 -0.007967
  2C   2py       -0.001725 -0.005823 -0.016649  0.060363 -0.091560 -0.020523
  2C   1dz2       0.001703 -0.002432 -0.004020  0.010318 -0.013824  0.001371
  2C   1dxz      -0.000046  0.002704 -0.001227 -0.001972  0.004073 -0.005371
  2C   1dyz      -0.000739  0.001589 -0.000822 -0.003260  0.005820  0.006307
  2C   1dx2y2     0.001136  0.001000  0.006483 -0.001933 -0.001340  0.001574
  2C   1dxy       0.000546  0.012448 -0.011871 -0.002577  0.012607  0.000519
  3C   1s         0.098716  0.123006 -0.098799  0.060489 -0.005039  0.000013
  3C   2s        -0.188519 -0.235335  0.192552 -0.120661  0.011410 -0.000013
  3C   1pz       -0.001771 -0.003436 -0.001552  0.009003 -0.026414  0.126349
  3C   1px        0.044008  0.016303  0.088676 -0.047714 -0.056101 -0.009348
  3C   1py       -0.026938 -0.024998 -0.043622  0.067835 -0.120535 -0.023388
  3C   3s        -0.157790 -0.214938  0.205009 -0.113744  0.015481 -0.000074
  3C   2pz       -0.000945 -0.001556 -0.000314  0.004003 -0.011330  0.048413
  3C   2px        0.003169 -0.003313  0.031266 -0.016617 -0.024241 -0.003589
  3C   2py       -0.006734 -0.007552 -0.013670  0.027940 -0.051790 -0.009101
  3C   1dz2       0.001764  0.000155  0.005006 -0.004642  0.004640 -0.001333
  3C   1dxz       0.000194  0.000109  0.000664 -0.000744 -0.000399 -0.004688
  3C   1dyz      -0.000135 -0.000217 -0.000255  0.000778 -0.001984 -0.002191
  3C   1dx2y2    -0.001261  0.000975 -0.003873  0.000889  0.002413 -0.000081
  3C   1dxy       0.002777  0.000336  0.008558 -0.007591  0.000180  0.001041
  4H   1s        -0.057337 -0.045327 -0.066129  0.109256 -0.094391  0.115798
  4H   2s        -0.007851 -0.011934 -0.020373  0.048103 -0.059263  0.083026
  5H   1s        -0.057343 -0.045326 -0.066153  0.109261 -0.094140 -0.115986
  5H   2s        -0.007852 -0.011903 -0.020423  0.048092 -0.059049 -0.083062
  6H   1s        -0.053334 -0.072627  0.085762 -0.064851  0.041690  0.056689
  6H   2s        -0.010688 -0.016625  0.032123 -0.029428  0.025768  0.041426
  7H   1s        -0.053123 -0.079750  0.094303 -0.046021 -0.059607 -0.000114
  7H   2s        -0.006720 -0.017638  0.038784 -0.021726 -0.041117 -0.000030
  8H   1s        -0.053315 -0.072602  0.085729 -0.064827  0.041794 -0.056626
  8H   2s        -0.010616 -0.016531  0.031992 -0.029306  0.025808 -0.041498
  9C   1s        -0.098651  0.123053  0.098738  0.060604  0.005052  0.000010
  9C   2s         0.188411 -0.235446 -0.192399 -0.120804 -0.011353 -0.000000
  9C   1pz        0.008489 -0.005835  0.015151  0.016046  0.016543  0.126299
  9C   1px        0.041463 -0.014041  0.084522  0.041671 -0.066642 -0.009276
  9C   1py        0.029515 -0.025934  0.048783  0.070577  0.116858 -0.023175
  9C   3s         0.157641 -0.214950 -0.205035 -0.114391 -0.015871 -0.000132
  9C   2pz        0.001391 -0.000979  0.005114  0.006399  0.007057  0.048365
  9C   2px        0.002643  0.003895  0.029851  0.013948 -0.028876 -0.003573
  9C   2py        0.006839 -0.007259  0.015480  0.028792  0.050123 -0.008994
  9C   1dz2      -0.001621  0.000138 -0.004574 -0.004274 -0.004640 -0.000028
  9C   1dxz       0.000802  0.000022  0.002424  0.001930  0.000353  0.004934
  9C   1dyz       0.000608 -0.000260  0.001713  0.002043  0.001976 -0.002029
  9C   1dx2y2     0.000843  0.001009  0.002572 -0.000231 -0.002390 -0.000741
  9C   1dxy       0.002848 -0.000181  0.008784  0.007410 -0.000428 -0.000767
 10H   1s         0.053282 -0.072635 -0.085670 -0.064912 -0.041651 -0.056666
 10H   2s         0.010596 -0.016517 -0.031927 -0.029308 -0.025692 -0.041523
 11H   1s         0.053093 -0.079786 -0.094255 -0.046123  0.059609  0.000076
 11H   2s         0.006795 -0.017727 -0.038784 -0.021768  0.041174  0.000100
 12H   1s         0.053299 -0.072654 -0.085682 -0.064936 -0.041832  0.056568
 12H   2s         0.010667 -0.016614 -0.032053 -0.029425 -0.025837  0.041360
 13H   1s         0.057318 -0.045367  0.066009  0.109355  0.094431 -0.115707
 13H   2s         0.007874 -0.011942  0.020359  0.048156  0.059275 -0.082938
 14H   1s         0.057309 -0.045357  0.066024  0.109310  0.094092  0.115967
 14H   2s         0.007833 -0.011934  0.020315  0.048093  0.059069  0.083193
                     12        13        14        15        16        17   
                  -0.43530  -0.42090  -0.38691  -0.36587  -0.36388  -0.33679
                   2.00000   2.00000   2.00000   2.00000   2.00000   2.00000
                  --------  --------  --------  --------  --------  --------
  0C   1s        -0.000041 -0.024433  0.013048 -0.000024 -0.008235  0.004472
  0C   2s         0.000086  0.052365 -0.028989  0.000078  0.012480 -0.004081
  0C   1pz        0.238970 -0.037675 -0.002600  0.097465  0.017879 -0.048225
  0C   1px       -0.017659 -0.218978 -0.059614 -0.006899 -0.050651 -0.258868
  0C   1py       -0.044191 -0.116152  0.008979 -0.017754  0.118406 -0.172717
  0C   3s         0.000170  0.063698 -0.038435 -0.000051  0.038772 -0.044007
  0C   2pz        0.095619 -0.018212 -0.002305  0.058844  0.008114 -0.018864
  0C   2px       -0.007228 -0.094097 -0.041796 -0.004118 -0.005842 -0.093399
  0C   2py       -0.017751 -0.061121  0.003321 -0.010835  0.047626 -0.071557
  0C   1dz2       0.001793  0.003064 -0.001629  0.004164  0.009308 -0.005206
  0C   1dxz      -0.006427 -0.000156 -0.000273  0.011805 -0.000034  0.004096
  0C   1dyz       0.007887  0.001713 -0.000799  0.007811 -0.000568  0.002082
  0C   1dx2y2     0.001944 -0.012018  0.005191  0.000638 -0.009370  0.005845
  0C   1dxy       0.000603  0.005809 -0.004625 -0.002806  0.009987  0.015921
  1O   1s        -0.000019 -0.019348 -0.039577  0.000053  0.000015 -0.000030
  1O   2s         0.000045  0.035885  0.088415 -0.000094 -0.000033  0.000069
  1O   1pz        0.000032 -0.053764 -0.018902  0.182087  0.015659  0.013284
  1O   1px        0.000104  0.013178  0.004691 -0.013016  0.203440  0.169962
  1O   1py       -0.000336 -0.296429 -0.105243 -0.033326  0.006296  0.004875
  1O   3s         0.000040  0.086809  0.181582 -0.000331 -0.000048  0.000110
  1O   2pz        0.000029 -0.031667 -0.009757  0.115627  0.009336  0.007640
  1O   2px       -0.000017  0.007719  0.002372 -0.008301  0.121558  0.097763
  1O   2py       -0.000200 -0.174630 -0.054218 -0.021196  0.003782  0.002754
  1O   1dz2      -0.001172  0.003157  0.002999  0.003613  0.000180  0.000346
  1O   1dxz      -0.008653  0.001534 -0.000053 -0.000664  0.001361  0.002448
  1O   1dyz      -0.000138 -0.005236 -0.001696  0.011129  0.000625  0.001182
  1O   1dx2y2     0.000609  0.022745  0.003865  0.002145 -0.000580 -0.001039
  1O   1dxy       0.001620  0.001789  0.000364 -0.000741  0.007638  0.014138
  2C   1s        -0.000024 -0.024429  0.013050  0.000001  0.008229 -0.004454
  2C   2s         0.000015  0.052337 -0.028944  0.000019 -0.012434  0.004073
  2C   1pz       -0.238878 -0.002078  0.006695  0.097494 -0.025211  0.006696
  2C   1px        0.017582  0.228796  0.058695 -0.007138 -0.040095 -0.273022
  2C   1py        0.043857 -0.102720  0.012517 -0.018265 -0.121093  0.156713
  2C   3s         0.000104  0.063831 -0.038602 -0.000104 -0.038905  0.043875
  2C   2pz       -0.095719 -0.002872  0.004255  0.058879 -0.008804  0.003824
  2C   2px        0.006926  0.099439  0.041193 -0.004319 -0.001671 -0.099417
  2C   2py        0.017507 -0.055502  0.005784 -0.011131 -0.047832  0.065819
  2C   1dz2      -0.003404  0.002732 -0.001392  0.000777 -0.008803  0.006000
  2C   1dxz      -0.005481 -0.002503  0.001476 -0.012713  0.003742  0.001489
  2C   1dyz      -0.008073  0.000617  0.000039  0.007441  0.002288  0.000554
  2C   1dx2y2    -0.001160 -0.011022  0.004459  0.002321  0.007810 -0.008198
  2C   1dxy       0.001655 -0.007405  0.005288  0.001799  0.010809  0.015191
  3C   1s         0.000014  0.013409  0.003441 -0.000016  0.001356  0.018379
  3C   2s        -0.000053 -0.025394 -0.008304  0.000007 -0.002467 -0.037487
  3C   1pz       -0.216502 -0.000576  0.058813 -0.282461  0.055104 -0.005566
  3C   1px        0.015548 -0.229176  0.153828  0.020498  0.141153  0.261034
  3C   1py        0.039971  0.086413  0.259670  0.052175  0.241374 -0.145026
  3C   3s        -0.000008 -0.057213 -0.021357  0.000082 -0.006738 -0.080570
  3C   2pz       -0.108591 -0.002590  0.025257 -0.153982  0.025096 -0.004925
  3C   2px        0.007823 -0.106647  0.060055  0.011265  0.061193  0.132194
  3C   2py        0.020219  0.027578  0.114822  0.028685  0.111809 -0.084844
  3C   1dz2       0.002794 -0.004101 -0.012405  0.005238 -0.012340  0.004410
  3C   1dxz       0.004115 -0.001156  0.003963 -0.003354  0.004397  0.001137
  3C   1dyz       0.006828  0.000004  0.003822  0.017153  0.003210 -0.000419
  3C   1dx2y2     0.001009  0.002924  0.005907  0.003499  0.009276 -0.002452
  3C   1dxy      -0.001310 -0.010193  0.010291 -0.000711  0.011370  0.009854
  4H   1s        -0.113154 -0.007934 -0.010784  0.054561 -0.055503  0.063458
  4H   2s        -0.086081 -0.008036 -0.006363  0.051319 -0.046208  0.056719
  5H   1s         0.113104 -0.008122 -0.010904 -0.054785 -0.055521  0.066020
  5H   2s         0.086055 -0.008173 -0.006424 -0.051414 -0.046151  0.059082
  6H   1s        -0.104792 -0.047153 -0.100543 -0.158418 -0.096716  0.047314
  6H   2s        -0.071857 -0.029853 -0.080998 -0.131045 -0.086623  0.051814
  7H   1s        -0.000080 -0.095609  0.184249  0.000059  0.182159  0.071630
  7H   2s        -0.000124 -0.067349  0.171678 -0.000081  0.172803  0.083143
  8H   1s         0.104658 -0.047319 -0.100299  0.158278 -0.097089  0.044772
  8H   2s         0.071908 -0.029959 -0.080812  0.131012 -0.086938  0.049333
  9C   1s         0.000026  0.013412  0.003452 -0.000010 -0.001363 -0.018365
  9C   2s        -0.000005 -0.025412 -0.008250 -0.000023  0.002441  0.037457
  9C   1pz        0.216558  0.034242  0.032991 -0.282512 -0.030610  0.045243
  9C   1px       -0.015563  0.220839 -0.176412  0.020838  0.162230  0.247750
  9C   1py       -0.039865  0.100061  0.249491  0.051462 -0.232399  0.160498
  9C   3s        -0.000256 -0.057086 -0.021655  0.000150  0.006871  0.080564
  9C   2pz        0.108565  0.013691  0.015074 -0.153947 -0.014345  0.024979
  9C   2px       -0.007819  0.103991 -0.070193  0.011248  0.071079  0.124496
  9C   2py       -0.020202  0.033957  0.110770  0.028347 -0.107948  0.092613
  9C   1dz2      -0.001574 -0.003588 -0.012892  0.005930  0.012864 -0.003904
  9C   1dxz       0.004922  0.002492  0.000354  0.001305 -0.000498  0.002475
  9C   1dyz      -0.006676  0.001746  0.002134  0.017204 -0.001435  0.002104
  9C   1dx2y2    -0.001621  0.001390  0.007424  0.003161 -0.010929  0.000969
  9C   1dxy      -0.000393  0.010323 -0.009946 -0.001562  0.010506  0.009863
 10H   1s        -0.104797 -0.047059 -0.100207  0.158594  0.096638 -0.044615
 10H   2s        -0.071993 -0.029720 -0.080712  0.131291  0.086538 -0.049097
 11H   1s        -0.000077 -0.095619  0.184197 -0.000422 -0.182217 -0.071615
 11H   2s         0.000028 -0.067321  0.171607 -0.000522 -0.172785 -0.083112
 12H   1s         0.104687 -0.047370 -0.100518 -0.158033  0.097243 -0.047496
 12H   2s         0.071817 -0.029989 -0.080911 -0.130714  0.087001 -0.051954
 13H   1s        -0.113167 -0.007878 -0.010872 -0.054478  0.055697 -0.066087
 13H   2s        -0.086155 -0.007997 -0.006407 -0.051193  0.046333 -0.059131
 14H   1s         0.113232 -0.008126 -0.010790  0.054716  0.055358 -0.063253
 14H   2s         0.086209 -0.008175 -0.006346  0.051433  0.046043 -0.056445
                     18        19        20        21        22        23   
                  -0.33580  -0.31062  -0.24967   0.09307   0.11420   0.13669
                   2.00000   2.00000   2.00000   0.00000   0.00000   0.00000
                  --------  --------  --------  --------  --------  --------
  0C   1s        -0.000045 -0.022442  0.000009 -0.057034  0.056572 -0.008835
  0C   2s         0.000039  0.059034  0.000032  0.063292 -0.080245 -0.028352
  0C   1pz        0.232122 -0.040259  0.129423  0.033568 -0.017029  0.006565
  0C   1px       -0.014264  0.029079 -0.009409 -0.073646 -0.045604 -0.142424
  0C   1py       -0.040881 -0.229554 -0.023834  0.208537 -0.074471  0.089096
  0C   3s         0.000375  0.049881 -0.000253  0.979439 -0.801517  0.346547
  0C   2pz        0.102565 -0.014862 -0.024148  0.086656 -0.062175 -0.028821
  0C   2px       -0.006388  0.006396  0.001799 -0.212103 -0.226235 -0.472959
  0C   2py       -0.018230 -0.083585  0.004287  0.543790 -0.241672  0.027720
  0C   1dz2       0.006224 -0.011991  0.005868 -0.006373  0.002073 -0.001785
  0C   1dxz       0.001602  0.003513 -0.019290  0.000652 -0.001360 -0.001911
  0C   1dyz       0.017826  0.000469  0.025207  0.001803 -0.000622 -0.003300
  0C   1dx2y2     0.003208  0.019786  0.006147  0.001230 -0.002378  0.013653
  0C   1dxy      -0.001858  0.002942  0.001637 -0.001365 -0.004836 -0.016430
  1O   1s        -0.000010  0.051142 -0.000000 -0.033052 -0.000124 -0.043681
  1O   2s         0.000015 -0.107620  0.000002  0.071339  0.000121  0.083327
  1O   1pz       -0.000079  0.079522 -0.558082 -0.006548 -0.004542  0.030343
  1O   1px       -0.001578 -0.019484  0.040524  0.001638 -0.058690 -0.007305
  1O   1py       -0.000155  0.439135  0.102939 -0.034282 -0.001376  0.167854
  1O   3s         0.000058 -0.231394 -0.000067  0.338246  0.002071  0.499506
  1O   2pz       -0.000022  0.056036 -0.414723 -0.004716 -0.011934  0.044605
  1O   2px       -0.000866 -0.013663  0.030087  0.001333 -0.152233 -0.011112
  1O   2py       -0.000094  0.309702  0.076539 -0.022672 -0.003895  0.247232
  1O   1dz2      -0.000919 -0.010945 -0.004822 -0.007816  0.000127  0.001506
  1O   1dxz      -0.006797  0.000623  0.000884  0.000702  0.001118 -0.001124
  1O   1dyz      -0.000116  0.005273 -0.014818  0.003185  0.000534  0.001541
  1O   1dx2y2     0.000470 -0.009023 -0.002879 -0.003381 -0.000484 -0.011026
  1O   1dxy       0.001137 -0.000941  0.000983 -0.000442  0.006293 -0.000818
  2C   1s         0.000050 -0.022441  0.000010 -0.057008 -0.056642 -0.008684
  2C   2s        -0.000048  0.059054  0.000025  0.063300  0.080128 -0.028599
  2C   1pz       -0.231642 -0.043218  0.129412  0.043521  0.009780  0.028357
  2C   1px        0.019557 -0.008870 -0.009374  0.054916 -0.051664  0.134422
  2C   1py        0.041096 -0.230497 -0.023865  0.212487  0.072061  0.097239
  2C   3s        -0.000400  0.049799 -0.000227  0.979123  0.803448  0.345151
  2C   2pz       -0.102461 -0.015241 -0.024154  0.116125  0.026604  0.044994
  2C   2px        0.008582  0.001310  0.001712  0.163620 -0.244788  0.470443
  2C   2py        0.018303 -0.083705  0.004213  0.555370  0.229457  0.053265
  2C   1dz2      -0.005464 -0.012069  0.010690 -0.006300 -0.002312 -0.000924
  2C   1dxz       0.003752  0.002895  0.016244  0.001135 -0.000318  0.004358
  2C   1dyz      -0.017774  0.000152  0.025780  0.002019 -0.000174 -0.000390
  2C   1dx2y2    -0.003552  0.020034  0.003749  0.001032  0.003107  0.011073
  2C   1dxy       0.000535 -0.000564 -0.005038  0.001208 -0.004501  0.018282
  3C   1s        -0.000171 -0.018753 -0.000006 -0.040581 -0.083596  0.083690
  3C   2s         0.000377  0.040763  0.000044  0.044927  0.102007 -0.084445
  3C   1pz        0.222078  0.012650 -0.019775  0.002977  0.001669  0.019517
  3C   1px       -0.018623 -0.118456  0.001374  0.079674  0.105004  0.002699
  3C   1py       -0.039269  0.114650  0.003625 -0.015312 -0.031977  0.100998
  3C   3s         0.000666  0.091693 -0.000047  0.600181  1.321260 -1.454546
  3C   2pz        0.105144  0.012116  0.039224 -0.019821 -0.004272  0.068094
  3C   2px       -0.008958 -0.030798 -0.002783  0.188602  0.311913  0.152826
  3C   2py       -0.018686  0.078166 -0.007081 -0.178316 -0.138158  0.296255
  3C   1dz2      -0.005043 -0.004442  0.001875 -0.002769 -0.003796  0.006240
  3C   1dxz       0.006167  0.000425 -0.002160 -0.001325 -0.000410 -0.003136
  3C   1dyz      -0.017491  0.000023  0.006501  0.001781  0.000561  0.000032
  3C   1dx2y2    -0.003726  0.006268  0.001383 -0.007066  0.001520 -0.013840
  3C   1dxy       0.000127 -0.003254 -0.000107 -0.006327 -0.005376 -0.007070
  4H   1s        -0.134818 -0.085960  0.126762 -0.024577 -0.015110 -0.012639
  4H   2s        -0.127845 -0.117587  0.199240 -0.755773 -0.499217 -0.166291
  5H   1s         0.133524 -0.085837 -0.126783 -0.024653 -0.014972 -0.012488
  5H   2s         0.126632 -0.117307 -0.198907 -0.752258 -0.495787 -0.163082
  6H   1s         0.134807 -0.035998 -0.023575  0.003564 -0.019838  0.055054
  6H   2s         0.133245 -0.059319 -0.069521 -0.278157 -0.596010  0.815953
  7H   1s        -0.000583  0.002355 -0.000032 -0.032613 -0.014855 -0.056972
  7H   2s        -0.000580 -0.031777 -0.000114 -0.422427 -0.719197  0.067119
  8H   1s        -0.135844 -0.036161  0.023606  0.003657 -0.019831  0.055291
  8H   2s        -0.134452 -0.059515  0.069638 -0.278900 -0.598206  0.821607
  9C   1s         0.000187 -0.018781  0.000014 -0.040696  0.083951  0.083214
  9C   2s        -0.000410  0.040810 -0.000001  0.045023 -0.102263 -0.083648
  9C   1pz       -0.222589  0.030386 -0.019791 -0.009444  0.014747  0.018120
  9C   1px        0.013729  0.108170  0.001381 -0.078129  0.102014 -0.011797
  9C   1py        0.039175  0.121704  0.003600 -0.020183  0.038391  0.099772
  9C   3s        -0.000754  0.092005 -0.000160  0.602136 -1.327710 -1.447022
  9C   2pz       -0.105364  0.016460  0.039193 -0.048384  0.052750  0.041470
  9C   2px        0.006367  0.023825 -0.002931 -0.172181  0.299425 -0.177702
  9C   2py        0.018590  0.080045 -0.007186 -0.189665  0.157100  0.284280
  9C   1dz2       0.006461 -0.004271  0.002364 -0.002487  0.003551  0.006509
  9C   1dxz       0.004056  0.001699  0.001379  0.000724 -0.001518 -0.000896
  9C   1dyz       0.017636  0.000642  0.006554  0.002747 -0.001445  0.001075
  9C   1dx2y2     0.003053  0.005733  0.001148 -0.007916 -0.000773 -0.014741
  9C   1dxy      -0.002230  0.003943 -0.000771  0.005065 -0.005339  0.005255
 10H   1s         0.135956 -0.036130  0.023612  0.003623  0.020119  0.055144
 10H   2s         0.134559 -0.059452  0.069649 -0.280184  0.602019  0.816497
 11H   1s         0.000588  0.002307  0.000010 -0.032598  0.014647 -0.056919
 11H   2s         0.000625 -0.031967  0.000014 -0.422762  0.721340  0.066939
 12H   1s        -0.134846 -0.036128 -0.023583  0.003545  0.019991  0.054981
 12H   2s        -0.133272 -0.059445 -0.069508 -0.279151  0.598602  0.812204
 13H   1s        -0.133468 -0.086031 -0.126742 -0.024677  0.014829 -0.012676
 13H   2s        -0.126610 -0.117541 -0.198903 -0.752467  0.494917 -0.165820
 14H   1s         0.134924 -0.085935  0.126819 -0.024547  0.014867 -0.012751
 14H   2s         0.128014 -0.117505  0.199323 -0.755347  0.496121 -0.167782
                     24        25        26        27        28        29   
                   0.14556   0.15280   0.17291   0.17311   0.19168   0.19745
                   0.00000   0.00000   0.00000   0.00000   0.00000   0.00000
                  --------  --------  --------  --------  --------  --------
  0C   1s        -0.000556 -0.068307  0.026457 -0.002150 -0.087690  0.042185
  0C   2s         0.000605  0.092915 -0.018714  0.001610  0.102855 -0.044845
  0C   1pz        0.254954  0.005136 -0.018256 -0.152703  0.022475 -0.011787
  0C   1px       -0.017104  0.105154  0.019459  0.009488 -0.013230 -0.160828
  0C   1py       -0.047559 -0.001138 -0.028851  0.030659  0.118921  0.007389
  0C   3s         0.007727  0.972833 -0.496173  0.040078  1.487950 -0.602499
  0C   2pz        0.584827  0.028143 -0.006273 -0.357448  0.066940  0.004585
  0C   2px       -0.039692  0.097477 -0.060607  0.031531 -0.063204 -0.728335
  0C   2py       -0.107279  0.142537  0.168263  0.049906  0.355337  0.338626
  0C   1dz2      -0.003275  0.002802  0.000473  0.005564 -0.003131 -0.006629
  0C   1dxz      -0.013703  0.000609  0.001111  0.008349  0.001966 -0.001935
  0C   1dyz      -0.004494  0.002702  0.004504  0.012964  0.001661  0.002129
  0C   1dx2y2    -0.000050 -0.014627 -0.014245  0.003206 -0.000126 -0.004444
  0C   1dxy       0.003051  0.010024  0.007030 -0.003280  0.007824 -0.012936
  1O   1s         0.000688  0.056787  0.000171  0.000057 -0.000048 -0.073616
  1O   2s        -0.001456 -0.132318 -0.000361 -0.000042  0.000065  0.098761
  1O   1pz       -0.076047 -0.023000  0.004053 -0.000295  0.009562  0.041093
  1O   1px        0.005575  0.005696  0.051220 -0.005064  0.120571 -0.010552
  1O   1py        0.012289 -0.130227  0.001097 -0.000314  0.003697  0.228854
  1O   3s        -0.007078 -0.507993 -0.001887 -0.001087  0.000756  1.243179
  1O   2pz       -0.207047 -0.043457 -0.006665  0.000701  0.014205  0.092770
  1O   2px        0.015112  0.010768 -0.086272  0.006388  0.179454 -0.024393
  1O   2py        0.034911 -0.249929 -0.003431 -0.000113  0.005455  0.515135
  1O   1dz2      -0.000123 -0.006422  0.000162  0.000941 -0.000021 -0.015053
  1O   1dxz       0.000029  0.001515  0.001191  0.006786 -0.000138  0.002551
  1O   1dyz      -0.000287  0.000583  0.000284  0.000076 -0.000001  0.003799
  1O   1dx2y2     0.000044  0.008370 -0.000253 -0.000436  0.000009  0.006296
  1O   1dxy       0.000027  0.000446  0.003165 -0.001602 -0.000182  0.000021
  2C   1s        -0.000575 -0.068197 -0.026632  0.002017  0.087866  0.042145
  2C   2s         0.000570  0.092764  0.018865 -0.001546 -0.103048 -0.044565
  2C   1pz        0.254829 -0.011331  0.020304  0.151806 -0.023687  0.016817
  2C   1px       -0.019893 -0.104382  0.013880 -0.012489 -0.002589  0.159371
  2C   1py       -0.047599 -0.007791  0.029249 -0.030871 -0.118983  0.016332
  2C   3s         0.008510  0.971346  0.498476 -0.037618 -1.490942 -0.602573
  2C   2pz        0.584912  0.011694 -0.003828  0.356501 -0.074777  0.127857
  2C   2px       -0.044840 -0.108848 -0.051825 -0.021109 -0.031659  0.692751
  2C   2py       -0.107712  0.135102 -0.172622 -0.051080 -0.356059  0.376297
  2C   1dz2       0.000528  0.002217  0.000202 -0.003058  0.003506 -0.006043
  2C   1dxz       0.014207 -0.003584  0.003483  0.009712  0.001053  0.002504
  2C   1dyz      -0.004092  0.000851 -0.003086 -0.012817 -0.000337  0.004067
  2C   1dx2y2    -0.001914 -0.012975  0.012830 -0.004335 -0.001047 -0.006303
  2C   1dxy      -0.002500 -0.011985  0.009185 -0.001697  0.007906  0.011862
  3C   1s         0.000452  0.059838  0.027955 -0.002360 -0.058537 -0.003821
  3C   2s        -0.000144 -0.063259 -0.029240  0.003034  0.039348 -0.005173
  3C   1pz        0.180486 -0.027961  0.077330  0.250954  0.013040 -0.048371
  3C   1px       -0.014391 -0.129682  0.141912 -0.031543  0.125232 -0.095057
  3C   1py       -0.034161 -0.090078  0.232936 -0.068589  0.010511 -0.218640
  3C   3s        -0.007711 -0.944161 -0.490328  0.039860  1.062518  0.031768
  3C   2pz        0.475264 -0.107454  0.236129  0.676517  0.072928 -0.160481
  3C   2px       -0.038196 -0.379708  0.543498 -0.098298  0.184116 -0.339064
  3C   2py       -0.091609 -0.409552  0.715372 -0.194073  0.279953 -0.708175
  3C   1dz2       0.002381 -0.008717  0.007393  0.002165  0.006887 -0.002990
  3C   1dxz      -0.009134  0.003228 -0.003188 -0.006377 -0.000064 -0.001653
  3C   1dyz       0.011024  0.001342 -0.001057  0.011275 -0.002240  0.002667
  3C   1dx2y2     0.002868  0.010374 -0.004467  0.003000  0.001568 -0.011397
  3C   1dxy       0.000947  0.006820 -0.007191  0.001012  0.003364 -0.005933
  4H   1s        -0.027188 -0.016239 -0.026963 -0.064433  0.054257  0.003926
  4H   2s        -0.750967 -0.472670 -0.247621 -0.541150  0.893799  0.182535
  5H   1s         0.026943 -0.016891 -0.015213  0.068079  0.054012  0.004738
  5H   2s         0.744051 -0.485473 -0.150132  0.572291  0.881795  0.198103
  6H   1s        -0.053377 -0.023388  0.035075 -0.065460 -0.005715  0.002675
  6H   2s        -0.653731  0.075346  0.671922 -0.938779 -0.266510 -0.498142
  7H   1s         0.001018  0.089918 -0.065372  0.006031 -0.039740 -0.019815
  7H   2s         0.010632  1.154715 -0.984014  0.089768 -0.825532  0.780230
  8H   1s         0.052776 -0.024289  0.045878  0.058159 -0.004907  0.002558
  8H   2s         0.653390  0.063367  0.829064  0.804667 -0.251743 -0.507127
  9C   1s         0.000279  0.059801 -0.028018  0.002388  0.058383 -0.003904
  9C   2s        -0.000016 -0.063288  0.029101 -0.002933 -0.039190 -0.005114
  9C   1pz        0.180317 -0.007034 -0.053405 -0.253265  0.007187 -0.030676
  9C   1px       -0.011997  0.137263  0.166041  0.003572  0.126287  0.114205
  9C   1py       -0.034318 -0.081606 -0.223881  0.067710 -0.002669 -0.212893
  9C   3s        -0.004546 -0.943369  0.491904 -0.040706 -1.059886  0.032982
  9C   2pz        0.474593 -0.045127 -0.145582 -0.684291 -0.040117 -0.094212
  9C   2px       -0.030316  0.415219  0.615436 -0.005468  0.211697  0.401599
  9C   2py       -0.091783 -0.384396 -0.681755  0.190602 -0.266859 -0.689328
  9C   1dz2       0.004697 -0.009051 -0.007926 -0.003784 -0.006693 -0.002754
  9C   1dxz       0.007838  0.000863 -0.000353 -0.005302  0.001338  0.000171
  9C   1dyz       0.011263  0.000300 -0.000156 -0.011368  0.002785  0.003563
  9C   1dx2y2     0.001740  0.011309  0.005685 -0.002271 -0.002066 -0.012152
  9C   1dxy      -0.002419 -0.005602 -0.006677  0.002484  0.002741  0.004044
 10H   1s         0.052616 -0.024275 -0.046265 -0.058237  0.005085  0.002765
 10H   2s         0.650590  0.064188 -0.830622 -0.805090  0.253617 -0.501206
 11H   1s         0.001039  0.089832  0.065739 -0.006033  0.039720 -0.019920
 11H   2s         0.009980  1.152750  0.984797 -0.090753  0.825332  0.780381
 12H   1s        -0.053328 -0.023411 -0.035396  0.065390  0.005681  0.002275
 12H   2s        -0.653823  0.076087 -0.673904  0.938316  0.264963 -0.506936
 13H   1s         0.026844 -0.016984  0.015245 -0.067931 -0.054126  0.003747
 13H   2s         0.743416 -0.487118  0.148899 -0.573550 -0.882719  0.183897
 14H   1s        -0.027035 -0.016352  0.027012  0.064564 -0.054416  0.004377
[...]
 9 C  pz              0.0       0.0       0.0       0.0       1.6       1.4
 9 C  px              0.0       1.0       1.0       0.0       0.0       0.0
 9 C  py              0.0       0.7       0.2       0.0       0.1       0.0
 9 C  dz2             0.1       3.9       1.7       0.3       0.4       0.5
 9 C  dxz             0.0       0.0       0.3       0.0      25.5      23.5
 9 C  dyz             0.0       2.1       1.2       0.2       0.0       0.1
 9 C  dx2y2           0.4      17.1      19.4       1.3       0.1       0.1
 9 C  dxy             0.2       0.0       3.9       0.2       0.9       0.8
10 H  s               1.0       0.1       0.1       0.2       0.3       0.1
11 H  s               1.1       0.2       0.2       0.3       0.0       0.0
12 H  s               1.0       0.1       0.1       0.2       0.3       0.1
13 H  s               2.9       0.1       0.0       0.1       1.6       2.3
14 H  s               2.9       0.1       0.0       0.1       1.6       2.3

                     72        73        74        75        76        77   
                   1.93506   1.96123   2.05613   2.08820   2.12845   2.13923
                   0.00000   0.00000   0.00000   0.00000   0.00000   0.00000
                  --------  --------  --------  --------  --------  --------
 0 C  s               0.4       1.2       0.7       0.6       0.0       1.5
 0 C  pz              0.1       0.1       0.1       0.0       0.7       0.0
 0 C  px              2.8       0.2       0.4       1.7       0.0       0.6
 0 C  py              0.4       1.6       2.6       0.6       0.0       0.2
 0 C  dz2             1.9      12.9      14.2       8.4       1.6       9.2
 0 C  dxz             0.9       0.6       0.0       0.0       9.9       0.1
 0 C  dyz             0.5       2.3       2.5       0.2       6.5       0.0
 0 C  dx2y2           0.1       0.8       5.9       1.6       0.1      14.0
 0 C  dxy            16.0       3.8       2.8       8.6       0.6       3.6
 1 O  s               0.0       2.3       0.0      16.5       0.0       0.0
 1 O  pz              0.0       0.0       0.0       0.2       0.0       0.1
 1 O  px              3.1       0.0       2.5       0.0       0.0       9.4
 1 O  py              0.0       0.7       0.0       6.2       0.0       0.0
 1 O  dz2             0.0       0.4       0.0       6.3       0.4       0.0
 1 O  dxz             0.1       0.0       0.1       0.0      19.6       0.3
 1 O  dyz             0.0       0.1       0.0       1.2       0.0       0.1
 1 O  dx2y2           0.0       0.5       0.0       2.4       0.1       0.1
 1 O  dxy             2.2       0.0       2.2       0.0       0.7      10.6
 2 C  s               0.4       1.2       0.7       0.6       0.0       1.5
 2 C  pz              0.0       0.0       0.1       0.0       0.7       0.0
 2 C  px              2.9       0.3       0.3       1.7       0.0       0.5
 2 C  py              0.3       1.6       2.7       0.6       0.0       0.3
 2 C  dz2             2.5      13.6      13.6       7.7       0.1       8.6
 2 C  dxz             0.2       0.0       0.2       0.9      11.9       1.1
 2 C  dyz             0.0       1.4       3.3       1.0       6.0       0.3
 2 C  dx2y2           0.7       0.4       7.0       0.7       0.5      11.8
 2 C  dxy            16.0       5.0       1.2       8.6       0.2       5.2
 3 C  s               1.2       1.0       0.1       0.1       0.0       0.0
 3 C  pz              0.0       0.0       0.0       0.0       1.0       0.0
 3 C  px              1.2       0.5       0.4       0.3       0.0       0.2
 3 C  py              0.4       1.1       0.7       0.0       0.0       0.1
 3 C  dz2             4.3      12.0       9.0       0.6       1.3       1.0
 3 C  dxz             0.1       0.0       0.2       0.2       5.2       0.1
 3 C  dyz             0.0       1.1       1.9       0.1       6.6       0.7
 3 C  dx2y2           2.1       0.1       2.3       1.1       0.1       4.3
 3 C  dxy            12.8       5.0       1.0       6.9       0.4       1.6
 4 H  s               0.3       1.1       0.3       0.9       1.2       1.1
 5 H  s               0.4       1.1       0.3       0.9       1.2       1.1
 6 H  s               0.5       0.7       0.4       0.0       1.5       0.0
 7 H  s               0.5       0.1       1.3       0.8       0.0       0.3
 8 H  s               0.5       0.7       0.4       0.0       1.5       0.0
 9 C  s               1.2       1.0       0.1       0.1       0.0       0.0
 9 C  pz              0.0       0.0       0.0       0.0       1.0       0.0
 9 C  px              1.1       0.4       0.5       0.3       0.0       0.2
 9 C  py              0.5       1.1       0.7       0.0       0.0       0.1
 9 C  dz2             3.5      11.4       9.3       0.4       0.2       1.2
 9 C  dxz             1.0       0.6       0.0       0.2       6.7       0.1
 9 C  dyz             0.5       1.9       1.4       0.4       6.2       0.3
 9 C  dx2y2           0.8       0.3       1.8       2.0       0.4       3.4
 9 C  dxy            13.3       4.0       1.9       5.8       0.1       2.7
10 H  s               0.5       0.7       0.4       0.0       1.5       0.0
11 H  s               0.6       0.1       1.3       0.8       0.0       0.3
12 H  s               0.5       0.7       0.4       0.0       1.5       0.0
13 H  s               0.3       1.1       0.3       0.9       1.2       1.1
14 H  s               0.3       1.1       0.3       0.9       1.2       1.1

                     78        79        80        81        82        83   
                   2.19565   2.25248   2.25272   2.31225   2.32527   2.40927
                   0.00000   0.00000   0.00000   0.00000   0.00000   0.00000
                  --------  --------  --------  --------  --------  --------
 0 C  s               0.0       0.0       0.3       0.2       0.0       0.0
 0 C  pz              0.6       0.3       0.0       0.0       0.1       0.2
 0 C  px              0.0       0.0       0.1       0.3       0.0       0.0
 0 C  py              0.0       0.0       0.1       0.5       0.0       0.0
 0 C  dz2             0.0       3.7       1.8       2.6       0.7       0.4
 0 C  dxz             5.2       0.1       0.0       0.0       6.1      15.7
 0 C  dyz             0.9      31.1       0.3       0.6       2.4       0.2
 0 C  dx2y2           0.1       0.9       2.7       3.1       0.0       0.0
 0 C  dxy             0.1       0.1       0.7       0.6       0.3       0.6
 1 O  s               0.0       0.0       2.0       0.0       0.0       0.0
 1 O  pz              3.7       0.1       0.0       0.0       0.0       2.0
 1 O  px              0.0       0.0       0.0       1.1       0.0       0.0
 1 O  py              0.1       0.0       0.5       0.0       0.0       0.1
 1 O  dz2             2.0       0.0       0.2       0.0       0.0       2.4
 1 O  dxz             0.1       0.0       0.0       0.0       1.6       0.1
 1 O  dyz            19.5       0.1       0.3       0.0       0.0      22.6
 1 O  dx2y2           0.7       0.0       5.2       0.0       0.0       0.8
 1 O  dxy             0.1       0.0       0.0       1.0       0.1       0.1
 2 C  s               0.0       0.0       0.3       0.2       0.0       0.0
 2 C  pz              0.6       0.3       0.0       0.0       0.1       0.2
 2 C  px              0.0       0.0       0.1       0.2       0.0       0.0
 2 C  py              0.0       0.0       0.1       0.5       0.0       0.0
 2 C  dz2             0.4       3.7       1.7       2.5       0.0       0.2
 2 C  dxz             4.7       0.1       0.2       0.0       7.1      16.0
 2 C  dyz             1.0      31.0       0.5       0.8       2.2       0.1
 2 C  dx2y2           0.0       0.9       2.3       3.4       0.2       0.1
 2 C  dxy             0.2       0.2       0.8       0.2       0.1       0.5
 3 C  pz              0.8       0.3       0.0       0.0       0.5       0.1
 3 C  px              0.0       0.0       0.9       0.2       0.0       0.0
 3 C  py              0.0       0.0       0.7       0.5       0.0       0.0
 3 C  dz2             2.2       0.7      11.3      11.7       2.4       1.1
 3 C  dxz             0.0       4.0       1.9       1.5       1.7       1.3
 3 C  dyz            20.3       0.6       1.7       0.6      26.8      12.8
 3 C  dx2y2           0.8       0.0       0.9      11.1       1.1       0.6
 3 C  dxy             0.1       0.6      14.3       8.3       0.0       0.0
 4 H  s               0.0       3.6       0.2       0.1       0.3       0.1
 5 H  s               0.0       3.3       0.5       0.0       0.3       0.1
 6 H  s               2.9       0.2       1.1       1.2       3.1       1.3
 7 H  s               0.0       0.0       5.3       4.5       0.0       0.0
 8 H  s               2.9       0.3       0.9       1.2       3.1       1.3
 9 C  pz              0.8       0.3       0.0       0.0       0.5       0.1
 9 C  px              0.0       0.0       1.0       0.3       0.0       0.0
 9 C  py              0.0       0.0       0.6       0.5       0.0       0.0
 9 C  dz2             2.1       0.1      12.9      12.7       3.3       1.7
 9 C  dxz             0.1       4.8       0.1       0.1       0.5       0.5
 9 C  dyz            20.3       0.5       0.4       0.1      27.1      13.1
 9 C  dx2y2           0.8       0.0       2.4      13.9       0.9       0.4
 9 C  dxy             0.1       0.4      14.3       6.4       0.3       0.2
10 H  s               2.9       0.3       0.9       1.2       3.1       1.3
11 H  s               0.0       0.0       5.3       4.5       0.0       0.0
12 H  s               2.9       0.2       1.1       1.2       3.1       1.3
13 H  s               0.0       3.3       0.5       0.0       0.3       0.1
14 H  s               0.0       3.6       0.2       0.1       0.3       0.1

                     84        85        86        87        88        89   
                   2.49272   2.51269   2.58416   2.68356   2.86077   2.99259
                   0.00000   0.00000   0.00000   0.00000   0.00000   0.00000
                  --------  --------  --------  --------  --------  --------
 0 C  s               0.3       0.0       1.9       3.0       0.1       2.0
 0 C  px              1.1       0.0       0.6       0.9       1.0       4.0
 0 C  py              1.0       0.0       1.2       1.1       0.2       0.5
 0 C  dz2             0.9       1.6       6.4       8.5       0.0       0.4
 0 C  dxz             0.1       4.6       1.0       0.3       0.7       0.1
 0 C  dyz             1.3      21.3       0.5       0.4       0.1       0.1
 0 C  dx2y2          10.6       1.1       3.0       4.4       6.4       3.7
 0 C  dxy             5.9       0.0       8.1       0.1      14.0       8.1
 1 O  s               1.0       0.0       0.0      23.9       5.9       0.0
 1 O  pz              0.0       0.0       0.0       0.1       0.0       0.1
 1 O  px              0.0       0.0       0.1       0.0       0.0      11.9
 1 O  py              1.2       0.0       0.0       3.3       0.5       0.0
 1 O  dz2             0.9       0.6       0.0      20.8       2.5       0.0
 1 O  dxz             0.0      31.4       0.2       0.4       0.4       1.3
 1 O  dyz             0.6       0.0       0.0       1.8       0.2       0.3
 1 O  dx2y2           7.0       0.1       0.0       0.7      30.4       0.2
 1 O  dxy             0.0       1.1       5.4       0.0       0.1      42.2
 2 C  s               0.3       0.0       1.9       3.0       0.1       2.0
 2 C  px              1.2       0.0       0.7       0.8       1.0       3.8
 2 C  py              0.9       0.0       1.1       1.2       0.3       0.6
 2 C  dz2             1.2       3.1       7.1       8.6       0.0       0.2
 2 C  dxz             0.4       2.5       0.0       0.3       0.2       0.5
 2 C  dyz             0.5      21.8       0.1       0.3       0.7       0.0
 2 C  dx2y2           8.1       0.6       4.6       4.5       9.4       2.2
 2 C  dxy             8.7       0.4       7.2       0.0      11.0       9.4
 3 C  s               0.5       0.0       1.2       0.3       0.5       0.4
 3 C  px              0.8       0.0       1.4       0.3       0.5       0.3
 3 C  py              0.4       0.0       0.8       0.3       0.3       0.1
 3 C  dz2             6.5       0.0       4.6       0.8       0.6       0.6
 3 C  dxz             0.1       0.7       0.2       0.1       0.1       0.0
 3 C  dx2y2          11.8       0.0       0.4       0.0       0.3       1.5
 3 C  dxy             2.0       0.0      14.7       3.4       4.8       0.2
 4 H  s               0.0       2.0       0.3       0.3       0.0       0.0
 5 H  s               0.0       2.0       0.3       0.3       0.0       0.0
 6 H  s               0.5       0.0       0.1       0.0       0.0       0.0
 7 H  s               0.2       0.0       0.2       0.1       0.2       0.0
 8 H  s               0.5       0.0       0.1       0.0       0.0       0.0
 9 C  s               0.5       0.0       1.2       0.3       0.5       0.4
 9 C  px              0.7       0.0       1.2       0.2       0.5       0.3
 9 C  py              0.5       0.0       0.9       0.3       0.4       0.1
 9 C  dz2             6.1       0.0       3.9       0.7       0.4       0.5
 9 C  dxz             0.8       0.8       0.9       0.2       0.2       0.1
 9 C  dyz             0.1       0.1       0.9       0.2       0.3       0.0
 9 C  dx2y2          10.2       0.0       0.0       0.1       0.7       1.3
 9 C  dxy             3.2       0.0      14.3       3.1       4.2       0.3
10 H  s               0.5       0.0       0.1       0.0       0.0       0.0
11 H  s               0.2       0.0       0.2       0.1       0.2       0.0
12 H  s               0.5       0.0       0.1       0.0       0.0       0.0
13 H  s               0.0       2.0       0.3       0.3       0.0       0.0
14 H  s               0.0       2.0       0.3       0.3       0.0       0.0



                      *****************************
                      * MAYER POPULATION ANALYSIS *
                      *****************************

  NA   - Mulliken gross atomic population
  ZA   - Total nuclear charge
  QA   - Mulliken gross atomic charge
  VA   - Mayer's total valence
  BVA  - Mayer's bonded valence
  FA   - Mayer's free valence

  ATOM       NA         ZA         QA         VA         BVA        FA
  0 C      5.9922     6.0000     0.0078     3.8254     3.8254     0.0000
  1 O      8.4698     8.0000    -0.4698     1.9390     1.9390    -0.0000
  2 C      5.9929     6.0000     0.0071     3.8258     3.8258     0.0000
  3 C      6.4534     6.0000    -0.4534     3.8644     3.8644     0.0000
  4 H      0.8865     1.0000     0.1135     0.9318     0.9318    -0.0000
  5 H      0.8862     1.0000     0.1138     0.9318     0.9318     0.0000
  6 H      0.8432     1.0000     0.1568     0.9353     0.9353     0.0000
  7 H      0.8598     1.0000     0.1402     0.9356     0.9356     0.0000
  8 H      0.8433     1.0000     0.1567     0.9352     0.9352     0.0000
  9 C      6.4534     6.0000    -0.4534     3.8641     3.8641    -0.0000
 10 H      0.8432     1.0000     0.1568     0.9352     0.9352     0.0000
 11 H      0.8600     1.0000     0.1400     0.9358     0.9358     0.0000
 12 H      0.8432     1.0000     0.1568     0.9353     0.9353     0.0000
 13 H      0.8864     1.0000     0.1136     0.9318     0.9318     0.0000
 14 H      0.8866     1.0000     0.1134     0.9318     0.9318     0.0000

  Mayer bond orders larger than 0.1
B(  0-C ,  1-O ) :   0.9351 B(  0-C ,  9-C ) :   1.0296 B(  0-C , 13-H ) :   0.9242 
B(  0-C , 14-H ) :   0.9241 B(  1-O ,  2-C ) :   0.9352 B(  2-C ,  3-C ) :   1.0301 
B(  2-C ,  4-H ) :   0.9241 B(  2-C ,  5-H ) :   0.9242 B(  3-C ,  6-H ) :   0.9496 
B(  3-C ,  7-H ) :   0.9466 B(  3-C ,  8-H ) :   0.9493 B(  9-C , 10-H ) :   0.9494 
B(  9-C , 11-H ) :   0.9466 B(  9-C , 12-H ) :   0.9496 

-------
TIMINGS
-------

Total SCF time: 0 days 0 hours 0 min 6 sec 

Total time                  ....       6.818 sec
Sum of individual times     ....       6.571 sec  ( 96.4%)

Fock matrix formation       ....       5.161 sec  ( 75.7%)
  XC integration            ....       1.387 sec  ( 26.9% of F)
    Basis function eval.    ....       0.543 sec  ( 39.1% of XC)
    Density eval.           ....       0.332 sec  ( 24.0% of XC)
    XC-Functional eval.     ....       0.139 sec  ( 10.0% of XC)
    XC-Potential eval.      ....       0.284 sec  ( 20.5% of XC)
Diagonalization             ....       0.002 sec  (  0.0%)
Density matrix formation    ....       0.001 sec  (  0.0%)
Population analysis         ....       0.026 sec  (  0.4%)
Initial guess               ....       0.002 sec  (  0.0%)
Orbital Transformation      ....       0.000 sec  (  0.0%)
Orbital Orthonormalization  ....       0.001 sec  (  0.0%)
DIIS solution               ....       0.000 sec  (  0.0%)
SOSCF solution              ....       0.004 sec  (  0.1%)
Grid generation             ....       1.376 sec  ( 20.2%)

-------------------------   --------------------
FINAL SINGLE POINT ENERGY      -233.505451311480
-------------------------   --------------------

                                *** OPTIMIZATION RUN DONE ***

                            ***************************************
                            *     ORCA property calculations      *
                            ***************************************

                                    ---------------------
                                    Active property flags
                                    ---------------------
   (+) Dipole Moment


------------------------------------------------------------------------------
                       ORCA ELECTRIC PROPERTIES CALCULATION
------------------------------------------------------------------------------

Dipole Moment Calculation                       ... on
Quadrupole Moment Calculation                   ... off
Polarizability Calculation                      ... off
GBWName                                         ... /Users/lailaal-madhagi/Desktop/Testing_XAS_Analysis_code/Diethylether//Results_dir_Diethylether_geom_element_O_2019-11-10_17-41-47//GTE1_Diethylether_geom_2019-11-10_17-41-55//opt.gbw
Electron density file                           ... /Users/lailaal-madhagi/Desktop/Testing_XAS_Analysis_code/Diethylether//Results_dir_Diethylether_geom_element_O_2019-11-10_17-41-47//GTE1_Diethylether_geom_2019-11-10_17-41-55//opt.scfp.tmp
The origin for moment calculation is the CENTER OF MASS  = (-3.426479,  0.149030  0.266262)

-------------
DIPOLE MOMENT
-------------
                                X             Y             Z
Electronic contribution:      0.01908      -0.42749      -0.07534
Nuclear contribution   :     -0.03644       0.82153       0.14678
                        -----------------------------------------
Total Dipole Moment    :     -0.01736       0.39404       0.07143
                        -----------------------------------------
Magnitude (a.u.)       :      0.40084
Magnitude (Debye)      :      1.01885



--------------------
Rotational spectrum 
--------------------
 
Rotational constants in cm-1:     0.595815     0.074437     0.069641 
Rotational constants in MHz : 17862.069683  2231.573777  2087.796936 

 Dipole components along the rotational axes: 
x,y,z [a.u.] :    -0.000184    -0.400840     0.000104 
x,y,z [Debye]:    -0.000468    -1.018855     0.000266 

 

Timings for individual modules:

Sum of individual times         ...      104.943 sec (=   1.749 min)
GTO integral calculation        ...        2.399 sec (=   0.040 min)   2.3 %
SCF iterations                  ...       62.435 sec (=   1.041 min)  59.5 %
SCF Gradient evaluation         ...       38.552 sec (=   0.643 min)  36.7 %
Geometry relaxation             ...        1.558 sec (=   0.026 min)   1.5 %
                             ****ORCA TERMINATED NORMALLY****
TOTAL RUN TIME: 0 days 0 hours 1 minutes 45 seconds 992 msec
