
                                 *****************
                                 * O   R   C   A *
                                 *****************

           --- An Ab Initio, DFT and Semiempirical electronic structure package ---

                  #######################################################
                  #                        -***-                        #
                  #          Department of theory and spectroscopy      #
                  #               Directorship: Frank Neese             #
                  #        Max Planck Institute fuer Kohlenforschung    #
                  #                Kaiser Wilhelm Platz 1               #
                  #                 D-45470 Muelheim/Ruhr               #
                  #                      Germany                        #
                  #                                                     #
                  #                  All rights reserved                #
                  #                        -***-                        #
                  #######################################################


                         Program Version 4.1.0  - RELEASE  -


 With contributions from (in alphabetic order):
   Daniel Aravena         : Magnetic Properties
   Michael Atanasov       : Ab Initio Ligand Field Theory
   Alexander A. Auer      : GIAO ZORA
   Ute Becker             : Parallelization
   Giovanni Bistoni       : ED, Open-shell LED
   Martin Brehm           : Molecular dynamics
   Dmytro Bykov           : SCF Hessian
   Vijay G. Chilkuri      : MRCI spin determinant printing
   Dipayan Datta          : RHF DLPNO-CCSD density
   Achintya Kumar Dutta   : EOM-CC, STEOM-CC
   Dmitry Ganyushin       : Spin-Orbit,Spin-Spin,Magnetic field MRCI
   Miquel Garcia          : C-PCM Hessian
   Yang Guo               : DLPNO-NEVPT2, CIM, IAO-localization
   Andreas Hansen         : Spin unrestricted coupled pair/coupled cluster methods
   Benjamin Helmich-Paris : CASSCF linear response (MC-RPA)
   Lee Huntington         : MR-EOM, pCC
   Robert Izsak           : Overlap fitted RIJCOSX, COSX-SCS-MP3, EOM
   Christian Kollmar      : KDIIS, OOCD, Brueckner-CCSD(T), CCSD density
   Simone Kossmann        : Meta GGA functionals, TD-DFT gradient, OOMP2, MP2 Hessian
   Martin Krupicka        : AUTO-CI
   Lucas Lang             : DCDCAS
   Dagmar Lenk            : GEPOL surface, SMD
   Dimitrios Liakos       : Extrapolation schemes; parallel MDCI
   Dimitrios Manganas     : ROCIS; embedding schemes
   Dimitrios Pantazis     : SARC Basis sets
   Taras Petrenko         : DFT Hessian,TD-DFT gradient, ASA, ECA, R-Raman, ABS, FL, XAS/XES, NRVS
   Peter Pinski           : DLPNO-MP2, DLPNO-MP2 Gradient
   Christoph Reimann      : Effective Core Potentials
   Marius Retegan         : Local ZFS, SOC
   Christoph Riplinger    : Optimizer, TS searches, QM/MM, DLPNO-CCSD(T), (RO)-DLPNO pert. Triples
   Tobias Risthaus        : Range-separated hybrids, TD-DFT gradient, RPA, STAB
   Michael Roemelt        : Restricted open shell CIS
   Masaaki Saitow         : Open-shell DLPNO
   Barbara Sandhoefer     : DKH picture change effects
   Avijit Sen             : IP-ROCIS
   Kantharuban Sivalingam : CASSCF convergence, NEVPT2, FIC-MRCI
   Bernardo de Souza      : ESD, SOC TD-DFT
   Georgi Stoychev        : AutoAux, RI-MP2 NMR
   Willem Van den Heuvel  : Paramagnetic NMR
   Boris Wezisla          : Elementary symmetry handling
   Frank Wennmohs         : Technical directorship


 We gratefully acknowledge several colleagues who have allowed us to
 interface, adapt or use parts of their codes:
   Stefan Grimme, W. Hujo, H. Kruse,             : VdW corrections, initial TS optimization,
                  C. Bannwarth                     DFT functionals, gCP, sTDA/sTD-DF
   Ed Valeev                                     : LibInt (2-el integral package), F12 methods
   Garnet Chan, S. Sharma, J. Yang, R. Olivares  : DMRG
   Ulf Ekstrom                                   : XCFun DFT Library
   Mihaly Kallay                                 : mrcc  (arbitrary order and MRCC methods)
   Andreas Klamt, Michael Diedenhofen            : otool_cosmo (COSMO solvation model)
   Jiri Pittner, Ondrej Demel                    : Mk-CCSD
   Frank Weinhold                                : gennbo (NPA and NBO analysis)
   Christopher J. Cramer and Donald G. Truhlar   : smd solvation model
   Lars Goerigk                                  : TD-DFT with DH, B97 family of functionals
   V. Asgeirsson, H. Jonsson                     : NEB implementation
   FAccTs GmbH                                   : IRC, NEB, NEB-TS, Multilevel


 Your calculation uses the libint2 library for the computation of 2-el integrals
 For citations please refer to: http://libint.valeyev.net

 This ORCA versions uses:
   CBLAS   interface :  Fast vector & matrix operations
   LAPACKE interface :  Fast linear algebra routines
   SCALAPACK package :  Parallel linear algebra routines




***************************************
The coordinates will be read from file: /Users/lailaal-madhagi/Desktop/Testing_XAS_Analysis_code/Diethylether//Results_dir_Diethylether_geom_element_C_2019-11-10_17-22-04//GTE1_Diethylether_geom_2019-11-10_17-22-15//opt.xyz
***************************************


----- Orbital basis set information -----
Your calculation utilizes the basis: 6-31G*
   H-He, Li-Ne : W. J. Hehre, R. Ditchfield and J.A. Pople, J. Chem. Phys. 56, 2257 (1972).
                 Note: He and Ne are unpublished basis sets taken from the Gaussian program.
                 Note: Li and B from J. D. Dill and J. A. Pople, J. Chem. Phys. 62, 2921 (1975).
   Na - Ar     : M. M. Francl, W. J. Pietro, W. J. Hehre, J. S. Binkley, M. S. Gordon, 
                 D. J. DeFrees and J. A. Pople, J. Chem. Phys. 77, 3654 (1982).
   K - Zn      : V. A. Rassolov, J. A. Pople, M. A. Ratner, and T. L. Windus, J. Chem. Phys. 109, 1223 (1998).

================================================================================
                                        WARNINGS
                       Please study these warnings very carefully!
================================================================================


INFO   : the flag for use of LIBINT has been found!

================================================================================
                                       INPUT FILE
================================================================================
NAME = /Users/lailaal-madhagi/Desktop/Testing_XAS_Analysis_code/Diethylether//Results_dir_Diethylether_geom_element_C_2019-11-10_17-22-04//GTE1_Diethylether_geom_2019-11-10_17-22-15//freq.inp
|  1> ! B3LYP 6-31G* TIGHTSCF Grid3 FinalGrid5 Freq 
|  2> !NormalPrint 
|  3> %output 
|  4> Print[P_Basis] 2 
|  5> Print[P_MOS] 1 
|  6> end 
|  7> *xyzfile 0 1 /Users/lailaal-madhagi/Desktop/Testing_XAS_Analysis_code/Diethylether//Results_dir_Diethylether_geom_element_C_2019-11-10_17-22-04//GTE1_Diethylether_geom_2019-11-10_17-22-15//opt.xyz                           ****END OF INPUT****
================================================================================

                       ****************************
                       * Single Point Calculation *
                       ****************************

---------------------------------
CARTESIAN COORDINATES (ANGSTROEM)
---------------------------------
  C     -3.015090    0.566607    0.143458
  O     -1.802521   -0.162452    0.097655
  C     -0.657981    0.638024    0.328305
  C      0.575469   -0.248914    0.253914
  H     -0.725629    1.124575    1.317762
  H     -0.599488    1.445605   -0.423209
  H      0.524378   -1.041113    1.008570
  H      1.482769    0.340707    0.428413
  H      0.650330   -0.720046   -0.731989
  C     -4.166225   -0.392634   -0.117661
  H     -4.058373   -0.862885   -1.100913
  H     -5.123463    0.140496   -0.089311
  H     -4.185610   -1.183684    0.639649
  H     -3.004371    1.372727   -0.611841
  H     -3.131694    1.051726    1.128998

----------------------------
CARTESIAN COORDINATES (A.U.)
----------------------------
  NO LB      ZA    FRAG     MASS         X           Y           Z
   0 C     6.0000    0    12.011   -5.697694    1.070733    0.271097
   1 O     8.0000    0    15.999   -3.406271   -0.306990    0.184542
   2 C     6.0000    0    12.011   -1.243405    1.205691    0.620407
   3 C     6.0000    0    12.011    1.087478   -0.470379    0.479827
   4 H     1.0000    0     1.008   -1.371240    2.125138    2.490209
   5 H     1.0000    0     1.008   -1.132868    2.731798   -0.799749
   6 H     1.0000    0     1.008    0.990931   -1.967419    1.905920
   7 H     1.0000    0     1.008    2.802027    0.643844    0.809583
   8 H     1.0000    0     1.008    1.228945   -1.360690   -1.383259
   9 C     6.0000    0    12.011   -7.873024   -0.741971   -0.222348
  10 H     1.0000    0     1.008   -7.669213   -1.630616   -2.080425
  11 H     1.0000    0     1.008   -9.681942    0.265499   -0.168773
  12 H     1.0000    0     1.008   -7.909656   -2.236838    1.208762
  13 H     1.0000    0     1.008   -5.677439    2.594078   -1.156213
  14 H     1.0000    0     1.008   -5.918044    1.987473    2.133498

--------------------------------
INTERNAL COORDINATES (ANGSTROEM)
--------------------------------
 C      0   0   0     0.000000000000     0.00000000     0.00000000
 O      1   0   0     1.415608947598     0.00000000     0.00000000
 C      2   1   0     1.415603440685   113.33188143     0.00000000
 C      3   2   1     1.521049708863   108.53873164   180.04140978
 H      3   2   1     1.104686535661   110.21124538    58.89926248
 H      3   2   1     1.104709037577   110.20286896   301.16140767
 H      4   3   2     1.095306087298   110.50085110   300.13098188
 H      4   3   2     1.096036928457   110.47544842   179.99740866
 H      4   3   2     1.095250988566   110.50456086    59.85124869
 C      1   2   3     1.520999438681   108.53717524   179.96962440
 H     10   1   2     1.095240848976   110.51032636   300.14216147
 H     10   1   2     1.096054756100   110.47347607   179.99916662
 H     10   1   2     1.095287401198   110.49823203    59.87226569
 H      1   2   3     1.104727112107   110.20463398    58.84198759
 H      1   2   3     1.104638021744   110.21001640   301.10645889

---------------------------
INTERNAL COORDINATES (A.U.)
---------------------------
 C      0   0   0     0.000000000000     0.00000000     0.00000000
 O      1   0   0     2.675113223688     0.00000000     0.00000000
 C      2   1   0     2.675102817131   113.33188143     0.00000000
 C      3   2   1     2.874367385832   108.53873164   180.04140978
 H      3   2   1     2.087555016229   110.21124538    58.89926248
 H      3   2   1     2.087597538689   110.20286896   301.16140767
 H      4   3   2     2.069828537809   110.50085110   300.13098188
 H      4   3   2     2.071209627448   110.47544842   179.99740866
 H      4   3   2     2.069724416296   110.50456086    59.85124869
 C      1   2   3     2.874272388956   108.53717524   179.96962440
 H     10   1   2     2.069705255248   110.51032636   300.14216147
 H     10   1   2     2.071243316811   110.47347607   179.99916662
 H     10   1   2     2.069793226199   110.49823203    59.87226569
 H      1   2   3     2.087631694599   110.20463398    58.84198759
 H      1   2   3     2.087463338213   110.21001640   301.10645889

---------------------
BASIS SET INFORMATION
---------------------
There are 3 groups of distinct atoms

 Group   1 Type C   : 10s4p1d contracted to 3s2p1d pattern {631/31/1}
 Group   2 Type O   : 10s4p1d contracted to 3s2p1d pattern {631/31/1}
 Group   3 Type H   : 4s contracted to 2s pattern {31}

Atom   0C    basis set group =>   1
Atom   1O    basis set group =>   2
Atom   2C    basis set group =>   1
Atom   3C    basis set group =>   1
Atom   4H    basis set group =>   3
Atom   5H    basis set group =>   3
Atom   6H    basis set group =>   3
Atom   7H    basis set group =>   3
Atom   8H    basis set group =>   3
Atom   9C    basis set group =>   1
Atom  10H    basis set group =>   3
Atom  11H    basis set group =>   3
Atom  12H    basis set group =>   3
Atom  13H    basis set group =>   3
Atom  14H    basis set group =>   3

-------------------------
BASIS SET IN INPUT FORMAT
-------------------------

 # Basis set for element : H 
 NewGTO H 
 S 3 
   1      18.7311370000      0.0334945995
   2       2.8253937000      0.2347269467
   3       0.6401217000      0.8137573184
 S 1 
   1       0.1612778000      1.0000000000
  end;

 # Basis set for element : C 
 NewGTO C 
 S 6 
   1    3047.5249000000      0.0018347002
   2     457.3695100000      0.0140373012
   3     103.9486900000      0.0688426061
   4      29.2101550000      0.2321844206
   5       9.2866630000      0.4679413416
   6       3.1639270000      0.3623120322
 S 3 
   1       7.8682724000     -0.1193324086
   2       1.8812885000     -0.1608542116
   3       0.5442493000      1.1434564826
 P 3 
   1       7.8682724000      0.0689990956
   2       1.8812885000      0.3164239798
   3       0.5442493000      0.7443082524
 S 1 
   1       0.1687144000      1.0000000000
 P 1 
   1       0.1687144000      1.0000000000
 D 1 
   1       0.8000000000      1.0000000000
  end;

 # Basis set for element : O 
 NewGTO O 
 S 6 
   1    5484.6717000000      0.0018310998
   2     825.2349500000      0.0139500985
   3     188.0469600000      0.0684450927
   4      52.9645000000      0.2327142753
   5      16.8975700000      0.4701929501
   6       5.7996353000      0.3585208619
 S 3 
   1      15.5396160000     -0.1107775038
   2       3.5999336000     -0.1480263051
   3       1.0137618000      1.1307670390
 P 3 
   1      15.5396160000      0.0708742995
   2       3.5999336000      0.3397527978
   3       1.0137618000      0.7271585953
 S 1 
   1       0.2700058000      1.0000000000
 P 1 
   1       0.2700058000      1.0000000000
 D 1 
   1       0.8000000000      1.0000000000
  end;

------------------------------------------------------------------------------
                           ORCA GTO INTEGRAL CALCULATION
------------------------------------------------------------------------------

                         BASIS SET STATISTICS AND STARTUP INFO

 # of primitive gaussian shells          ...  115
 # of primitive gaussian functions       ...  175
 # of contracted shells                  ...   50
 # of contracted basis functions         ...   90
 Highest angular momentum                ...    2
 Maximum contraction depth               ...    6
 Integral package used                   ... LIBINT
 Integral threshhold            Thresh   ...  2.500e-11
 Primitive cut-off              TCut     ...  2.500e-12


------------------------------ INTEGRAL EVALUATION ----------------------------


 * One electron integrals 
 Pre-screening matrix                    ... done
 Shell pair data                         ... done (   0.000 sec)

-------------------------------------------------------------------------------
                                 ORCA SCF
-------------------------------------------------------------------------------

------------
SCF SETTINGS
------------
Hamiltonian:
 Density Functional     Method          .... DFT(GTOs)
 Exchange Functional    Exchange        .... B88
   X-Alpha parameter    XAlpha          ....  0.666667
   Becke's b parameter  XBeta           ....  0.004200
 Correlation Functional Correlation     .... LYP
 LDA part of GGA corr.  LDAOpt          .... VWN-5
 Gradients option       PostSCFGGA      .... off
 Hybrid DFT is turned on
   Fraction HF Exchange ScalHFX         ....  0.200000
   Scaling of DF-GGA-X  ScalDFX         ....  0.720000
   Scaling of DF-GGA-C  ScalDFC         ....  0.810000
   Scaling of DF-LDA-C  ScalLDAC        ....  1.000000
   Perturbative correction              ....  0.000000
   Density functional embedding theory  .... OFF
   NL short-range parameter             ....  4.800000


General Settings:
 Integral files         IntName         .... /Users/lailaal-madhagi/Desktop/Testing_XAS_Analysis_code/Diethylether//Results_dir_Diethylether_geom_element_C_2019-11-10_17-22-04//GTE1_Diethylether_geom_2019-11-10_17-22-15//freq
 Hartree-Fock type      HFTyp           .... RHF
 Total Charge           Charge          ....    0
 Multiplicity           Mult            ....    1
 Number of Electrons    NEL             ....   42
 Basis Dimension        Dim             ....   90
 Nuclear Repulsion      ENuc            ....    189.4011792650 Eh

Convergence Acceleration:
 DIIS                   CNVDIIS         .... on
   Start iteration      DIISMaxIt       ....    12
   Startup error        DIISStart       ....  0.200000
   # of expansion vecs  DIISMaxEq       ....     5
   Bias factor          DIISBfac        ....   1.050
   Max. coefficient     DIISMaxC        ....  10.000
 Newton-Raphson         CNVNR           .... off
 SOSCF                  CNVSOSCF        .... on
   Start iteration      SOSCFMaxIt      ....   150
   Startup grad/error   SOSCFStart      ....  0.003300
 Level Shifting         CNVShift        .... on
   Level shift para.    LevelShift      ....    0.2500
   Turn off err/grad.   ShiftErr        ....    0.0010
 Zerner damping         CNVZerner       .... off
 Static damping         CNVDamp         .... on
   Fraction old density DampFac         ....    0.7000
   Max. Damping (<1)    DampMax         ....    0.9800
   Min. Damping (>=0)   DampMin         ....    0.0000
   Turn off err/grad.   DampErr         ....    0.1000
 Fernandez-Rico         CNVRico         .... off

SCF Procedure:
 Maximum # iterations   MaxIter         ....   125
 SCF integral mode      SCFMode         .... Direct
   Integral package                     .... LIBINT
 Reset frequency        DirectResetFreq ....    20
 Integral Threshold     Thresh          ....  2.500e-11 Eh
 Primitive CutOff       TCut            ....  2.500e-12 Eh

Convergence Tolerance:
 Convergence Check Mode ConvCheckMode   .... Total+1el-Energy
 Convergence forced     ConvForced      .... 0
 Energy Change          TolE            ....  1.000e-08 Eh
 1-El. energy change                    ....  1.000e-05 Eh
 Orbital Gradient       TolG            ....  1.000e-05
 Orbital Rotation angle TolX            ....  1.000e-05
 DIIS Error             TolErr          ....  5.000e-07


Diagonalization of the overlap matrix:
Smallest eigenvalue                        ... 6.873e-03
Time for diagonalization                   ...    0.001 sec
Threshold for overlap eigenvalues          ... 1.000e-08
Number of eigenvalues below threshold      ... 0
Time for construction of square roots      ...    0.002 sec
Total time needed                          ...    0.003 sec

-------------------
DFT GRID GENERATION
-------------------

General Integration Accuracy     IntAcc      ...  4.340
Radial Grid Type                 RadialGrid  ... Gauss-Chebyshev
Angular Grid (max. acc.)         AngularGrid ... Lebedev-194
Angular grid pruning method      GridPruning ... 3 (G Style)
Weight generation scheme         WeightScheme... Becke
Basis function cutoff            BFCut       ...    1.0000e-11
Integration weight cutoff        WCut        ...    1.0000e-14
Grids for H and He will be reduced by one unit

# of grid points (after initial pruning)     ...  31754 (   0.0 sec)
# of grid points (after weights+screening)   ...  29622 (   0.0 sec)
nearest neighbour list constructed           ...    0.0 sec
Grid point re-assignment to atoms done       ...    0.0 sec
Grid point division into batches done        ...    0.0 sec
Reduced shell lists constructed in    0.1 sec

Total number of grid points                  ...    29622
Total number of batches                      ...      470
Average number of points per batch           ...       63
Average number of grid points per atom       ...     1975
Average number of shells per batch           ...    36.23 (72.46%)
Average number of basis functions per batch  ...    66.15 (73.51%)
Average number of large shells per batch     ...    29.11 (80.35%)
Average number of large basis fcns per batch ...    53.93 (81.51%)
Maximum spatial batch extension              ...  18.69, 19.41, 19.78 au
Average spatial batch extension              ...   3.21,  3.33,  3.38 au

Time for grid setup =    0.196 sec

------------------------------
INITIAL GUESS: MODEL POTENTIAL
------------------------------
Loading Hartree-Fock densities                     ... done
Calculating cut-offs                               ... done
Setting up the integral package                    ... done
Initializing the effective Hamiltonian             ... done
Starting the Coulomb interaction                   ... done (   0.0 sec)
Reading the grid                                   ... done
Mapping shells                                     ... done
Starting the XC term evaluation                    ... done (   0.1 sec)
  promolecular density results
     # of electrons  =     41.996484745
     EX              =    -31.721431167
     EC              =     -1.359971754
     EX+EC           =    -33.081402921
Transforming the Hamiltonian                       ... done (   0.0 sec)
Diagonalizing the Hamiltonian                      ... done (   0.0 sec)
Back transforming the eigenvectors                 ... done (   0.0 sec)
Now organizing SCF variables                       ... done
                      ------------------
                      INITIAL GUESS DONE (   0.4 sec)
                      ------------------
--------------
SCF ITERATIONS
--------------
               ***  Starting incremental Fock matrix formation  ***

                         ----------------------------
                         !        ITERATION     0   !
                         ----------------------------
   Total Energy        :    -233.327650155993 Eh
   Energy Change       :    -233.327650155993 Eh
   MAX-DP              :       0.065482291116
   RMS-DP              :       0.003469921753
   Actual Damping      :       0.7000
   Actual Level Shift  :       0.2500 Eh
   Int. Num. El.       :    42.00078260 (UP=   21.00039130 DN=   21.00039130)
   Exchange            :   -26.28942917
   Correlation         :    -1.63473325


                         ----------------------------
                         !        ITERATION     1   !
                         ----------------------------
   Total Energy        :    -233.410089757902 Eh
   Energy Change       :      -0.082439601909 Eh
   MAX-DP              :       0.041323611179
   RMS-DP              :       0.002566641467
   Actual Damping      :       0.7000
   Actual Level Shift  :       0.2500 Eh
   Int. Num. El.       :    42.00090134 (UP=   21.00045067 DN=   21.00045067)
   Exchange            :   -26.05610337
   Correlation         :    -1.62478619

                               ***Turning on DIIS***

                         ----------------------------
                         !        ITERATION     2   !
                         ----------------------------
   Total Energy        :    -233.443607685458 Eh
   Energy Change       :      -0.033517927555 Eh
   MAX-DP              :       0.064378428604
   RMS-DP              :       0.004235956055
   Actual Damping      :       0.0000
   Actual Level Shift  :       0.2500 Eh
   Int. Num. El.       :    42.00097439 (UP=   21.00048720 DN=   21.00048720)
   Exchange            :   -25.90431444
   Correlation         :    -1.61791336
   DIIS-Error          :       0.035288935887


                         ----------------------------
                         !        ITERATION     3   !
                         ----------------------------
   Total Energy        :    -233.491551608592 Eh
   Energy Change       :      -0.047943923134 Eh
   MAX-DP              :       0.028470235738
   RMS-DP              :       0.001767682863
   Actual Damping      :       0.0000
   Actual Level Shift  :       0.2500 Eh
   Int. Num. El.       :    42.00107233 (UP=   21.00053617 DN=   21.00053617)
   Exchange            :   -25.68712944
   Correlation         :    -1.60764120
   DIIS-Error          :       0.049355475420
   DIIS coefficients:
      0.58581   0.41419


                         ----------------------------
                         !        ITERATION     4   !
                         ----------------------------
   Total Energy        :    -233.504828859237 Eh
   Energy Change       :      -0.013277250645 Eh
   MAX-DP              :       0.008045747771
   RMS-DP              :       0.000504378576
   Actual Damping      :       0.0000
   Actual Level Shift  :       0.2500 Eh
   Int. Num. El.       :    42.00102279 (UP=   21.00051140 DN=   21.00051140)
   Exchange            :   -25.78291970
   Correlation         :    -1.61252894
   DIIS-Error          :       0.009901209800
   DIIS coefficients:
      0.18157  -0.02779   0.84623


                         ----------------------------
                         !        ITERATION     5   !
                         ----------------------------
   Total Energy        :    -233.505426169500 Eh
   Energy Change       :      -0.000597310263 Eh
   MAX-DP              :       0.004034391421
   RMS-DP              :       0.000199015025
   Actual Damping      :       0.0000
   Actual Level Shift  :       0.2500 Eh
   Int. Num. El.       :    42.00101682 (UP=   21.00050841 DN=   21.00050841)
   Exchange            :   -25.79658291
   Correlation         :    -1.61347437
   DIIS-Error          :       0.006816242568
   DIIS coefficients:
      0.05800  -0.04388   0.32448   0.66140

                      *** Initiating the SOSCF procedure ***
                           *** Shutting down DIIS ***
                      *** Re-Reading the Fockian *** 
                      *** Removing any level shift *** 

                         ----------------------------
                         !        ITERATION     6   !
                         ----------------------------
   Total Energy        :    -233.505498593506 Eh
   Energy Change       :      -0.000072424007 Eh
   MAX-DP              :       0.001084048703
   RMS-DP              :       0.000076599638
   Orbital gradient    :       0.000249293320
   Orbital Rotation    :       0.000249293320
   Actual Damping      :       0.0000
   Int. Num. El.       :    42.00101652 (UP=   21.00050826 DN=   21.00050826)
   Exchange            :   -25.80377328
   Correlation         :    -1.61373535

               *** Restarting incremental Fock matrix formation ***

                         ----------------------------
                         !        ITERATION     7   !
                         ----------------------------
   Total Energy        :    -233.505500561791 Eh
   Energy Change       :      -0.000001968284 Eh
   MAX-DP              :       0.000258844247
   RMS-DP              :       0.000013231555
   Orbital gradient    :       0.000073257002
   Orbital Rotation    :       0.000122391633
   Actual Damping      :       0.0000
   Int. Num. El.       :    42.00101727 (UP=   21.00050863 DN=   21.00050863)
   Exchange            :   -25.80439523
   Correlation         :    -1.61378045


                         ----------------------------
                         !        ITERATION     8   !
                         ----------------------------
   Total Energy        :    -233.505500490612 Eh
   Energy Change       :       0.000000071179 Eh
   MAX-DP              :       0.000136281952
   RMS-DP              :       0.000007594930
   Orbital gradient    :       0.000095689978
   Orbital Rotation    :       0.000070519667
   Actual Damping      :       0.0000
   Int. Num. El.       :    42.00101762 (UP=   21.00050881 DN=   21.00050881)
   Exchange            :   -25.80395276
   Correlation         :    -1.61376038


                         ----------------------------
                         !        ITERATION     9   !
                         ----------------------------
   Total Energy        :    -233.505500719439 Eh
   Energy Change       :      -0.000000228828 Eh
   MAX-DP              :       0.000049448826
   RMS-DP              :       0.000001757171
   Orbital gradient    :       0.000016708842
   Orbital Rotation    :       0.000012760865
   Actual Damping      :       0.0000
   Int. Num. El.       :    42.00101749 (UP=   21.00050874 DN=   21.00050874)
   Exchange            :   -25.80422573
   Correlation         :    -1.61377209


                         ----------------------------
                         !        ITERATION    10   !
                         ----------------------------
   Total Energy        :    -233.505500717888 Eh
   Energy Change       :       0.000000001552 Eh
   MAX-DP              :       0.000028770919
   RMS-DP              :       0.000001107259
   Orbital gradient    :       0.000021975164
   Orbital Rotation    :       0.000009130490
   Actual Damping      :       0.0000
   Int. Num. El.       :    42.00101748 (UP=   21.00050874 DN=   21.00050874)
   Exchange            :   -25.80419042
   Correlation         :    -1.61377199

                  ***Gradient check signals convergence***
              ***Rediagonalizing the Fockian in SOSCF/NRSCF***

               *****************************************************
               *                     SUCCESS                       *
               *           SCF CONVERGED AFTER  11 CYCLES          *
               *****************************************************

Setting up the final grid:

General Integration Accuracy     IntAcc      ...  5.010
Radial Grid Type                 RadialGrid  ... Gauss-Chebyshev
Angular Grid (max. acc.)         AngularGrid ... Lebedev-434
Angular grid pruning method      GridPruning ... 3 (G Style)
Weight generation scheme         WeightScheme... Becke
Basis function cutoff            BFCut       ...    1.0000e-11
Integration weight cutoff        WCut        ...    1.0000e-14
Grids for H and He will be reduced by one unit

# of grid points (after initial pruning)     ... 120554 (   0.0 sec)
# of grid points (after weights+screening)   ... 111305 (   0.2 sec)
nearest neighbour list constructed           ...    0.0 sec
Grid point re-assignment to atoms done       ...    0.0 sec
Grid point division into batches done        ...    0.5 sec
Reduced shell lists constructed in    0.9 sec

Total number of grid points                  ...   111305
Total number of batches                      ...     1747
Average number of points per batch           ...       63
Average number of grid points per atom       ...     7420
Average number of shells per batch           ...    33.70 (67.39%)
Average number of basis functions per batch  ...    61.31 (68.13%)
Average number of large shells per batch     ...    26.41 (78.39%)
Average number of large basis fcns per batch ...    48.92 (79.78%)
Maximum spatial batch extension              ...  24.67, 18.13, 20.95 au
Average spatial batch extension              ...   2.06,  2.10,  2.07 au

Final grid set up in    1.1 sec
Final integration                            ... done (   0.7 sec)
Change in XC energy                          ...     0.000049410
Integrated number of electrons               ...    42.000015365
Previous integrated no of electrons          ...    42.001017485

----------------
TOTAL SCF ENERGY
----------------

Total Energy       :         -233.50545131 Eh           -6354.00636 eV

Components:
Nuclear Repulsion  :          189.40117926 Eh            5153.86811 eV
Electronic Energy  :         -422.90663058 Eh          -11507.87447 eV
One Electron Energy:         -690.60946560 Eh          -18792.43895 eV
Two Electron Energy:          267.70283502 Eh            7284.56448 eV

Virial components:
Potential Energy   :         -465.66387508 Eh          -12671.35824 eV
Kinetic Energy     :          232.15842377 Eh            6317.35188 eV
Virial Ratio       :            2.00580219


DFT components:
N(Alpha)           :       21.000007682540 electrons
N(Beta)            :       21.000007682540 electrons
N(Total)           :       42.000015365079 electrons
E(X)               :      -25.804163325426 Eh       
E(C)               :       -1.613767356439 Eh       
E(XC)              :      -27.417930681865 Eh       
DFET-embed. en.    :        0.000000000000 Eh       

---------------
SCF CONVERGENCE
---------------

  Last Energy change         ...   -3.7504e-09  Tolerance :   1.0000e-08
  Last MAX-Density change    ...    1.3625e-06  Tolerance :   1.0000e-07
  Last RMS-Density change    ...    1.2161e-07  Tolerance :   5.0000e-09
  Last Orbital Gradient      ...    6.7491e-07  Tolerance :   1.0000e-05
  Last Orbital Rotation      ...    1.0571e-06  Tolerance :   1.0000e-05

             **** THE GBW FILE WAS UPDATED (/Users/lailaal-madhagi/Desktop/Testing_XAS_Analysis_code/Diethylether//Results_dir_Diethylether_geom_element_C_2019-11-10_17-22-04//GTE1_Diethylether_geom_2019-11-10_17-22-15//freq.gbw) ****
             **** DENSITY FILE WAS UPDATED (/Users/lailaal-madhagi/Desktop/Testing_XAS_Analysis_code/Diethylether//Results_dir_Diethylether_geom_element_C_2019-11-10_17-22-04//GTE1_Diethylether_geom_2019-11-10_17-22-15//freq.scfp.tmp) ****
             **** ENERGY FILE WAS UPDATED (/Users/lailaal-madhagi/Desktop/Testing_XAS_Analysis_code/Diethylether//Results_dir_Diethylether_geom_element_C_2019-11-10_17-22-04//GTE1_Diethylether_geom_2019-11-10_17-22-15//freq.en.tmp) ****
----------------
ORBITAL ENERGIES
----------------

  NO   OCC          E(Eh)            E(eV) 
   0   2.0000     -19.129643      -520.5440 
   1   2.0000     -10.216225      -277.9976 
   2   2.0000     -10.216169      -277.9961 
   3   2.0000     -10.161598      -276.5111 
   4   2.0000     -10.161551      -276.5099 
   5   2.0000      -1.020183       -27.7606 
   6   2.0000      -0.766554       -20.8590 
   7   2.0000      -0.717035       -19.5115 
   8   2.0000      -0.611435       -16.6380 
   9   2.0000      -0.594044       -16.1648 
  10   2.0000      -0.486291       -13.2327 
  11   2.0000      -0.478034       -13.0080 
  12   2.0000      -0.433216       -11.7884 
  13   2.0000      -0.421423       -11.4675 
  14   2.0000      -0.388547       -10.5729 
  15   2.0000      -0.367588       -10.0026 
  16   2.0000      -0.366696        -9.9783 
  17   2.0000      -0.345183        -9.3929 
  18   2.0000      -0.336505        -9.1568 
  19   2.0000      -0.306014        -8.3271 
  20   2.0000      -0.244299        -6.6477 
  21   0.0000       0.097600         2.6558 
  22   0.0000       0.119317         3.2468 
  23   0.0000       0.137241         3.7345 
  24   0.0000       0.148241         4.0339 
  25   0.0000       0.155256         4.2247 
  26   0.0000       0.175386         4.7725 
  27   0.0000       0.176205         4.7948 
  28   0.0000       0.194625         5.2960 
  29   0.0000       0.199167         5.4196 
  30   0.0000       0.203441         5.5359 
  31   0.0000       0.204997         5.5782 
  32   0.0000       0.221582         6.0296 
  33   0.0000       0.248801         6.7702 
  34   0.0000       0.280710         7.6385 
  35   0.0000       0.506823        13.7914 
  36   0.0000       0.535637        14.5754 
  37   0.0000       0.555123        15.1057 
  38   0.0000       0.555549        15.1173 
  39   0.0000       0.562739        15.3129 
  40   0.0000       0.582072        15.8390 
  41   0.0000       0.619115        16.8470 
  42   0.0000       0.639589        17.4041 
  43   0.0000       0.657333        17.8869 
  44   0.0000       0.684838        18.6354 
  45   0.0000       0.746945        20.3254 
  46   0.0000       0.792859        21.5748 
  47   0.0000       0.828922        22.5561 
  48   0.0000       0.848391        23.0859 
  49   0.0000       0.892966        24.2988 
  50   0.0000       0.895470        24.3670 
  51   0.0000       0.903345        24.5813 
  52   0.0000       0.909229        24.7414 
  53   0.0000       0.927066        25.2268 
  54   0.0000       0.933326        25.3971 
  55   0.0000       0.953117        25.9356 
  56   0.0000       0.972845        26.4724 
  57   0.0000       1.009224        27.4624 
  58   0.0000       1.121921        30.5290 
  59   0.0000       1.138068        30.9684 
  60   0.0000       1.159998        31.5651 
  61   0.0000       1.340516        36.4773 
  62   0.0000       1.433949        39.0197 
  63   0.0000       1.439749        39.1776 
  64   0.0000       1.455385        39.6030 
  65   0.0000       1.463050        39.8116 
  66   0.0000       1.510583        41.1051 
  67   0.0000       1.698639        46.2223 
  68   0.0000       1.752440        47.6863 
  69   0.0000       1.859822        50.6083 
  70   0.0000       1.917232        52.1705 
  71   0.0000       1.924409        52.3658 
  72   0.0000       1.935064        52.6558 
  73   0.0000       1.961227        53.3677 
  74   0.0000       2.056132        55.9502 
  75   0.0000       2.088203        56.8229 
  76   0.0000       2.128454        57.9182 
  77   0.0000       2.139235        58.2115 
  78   0.0000       2.195647        59.7466 
  79   0.0000       2.252481        61.2931 
  80   0.0000       2.252725        61.2998 
  81   0.0000       2.312249        62.9195 
  82   0.0000       2.325270        63.2738 
  83   0.0000       2.409268        65.5595 
  84   0.0000       2.492722        67.8304 
  85   0.0000       2.512689        68.3738 
  86   0.0000       2.584164        70.3187 
  87   0.0000       2.683559        73.0233 
  88   0.0000       2.860773        77.8456 
  89   0.0000       2.992594        81.4326 
------------------
MOLECULAR ORBITALS
------------------
                      0         1         2         3         4         5   
                 -19.12964 -10.21622 -10.21617 -10.16160 -10.16155  -1.02018
                   2.00000   2.00000   2.00000   2.00000   2.00000   2.00000
                  --------  --------  --------  --------  --------  --------
  0C   1s         0.000112  0.167154  0.981147  0.000026 -0.001402  0.070908
  0C   2s         0.000894  0.007240  0.036471 -0.000140 -0.000954 -0.136744
  0C   1pz       -0.000022  0.000017 -0.000037 -0.000026  0.000118  0.002145
  0C   1px       -0.000864  0.000267  0.001076  0.000055  0.000461 -0.084557
  0C   1py        0.000225 -0.000012 -0.000628 -0.000161  0.000457  0.045141
  0C   3s        -0.009601 -0.008455 -0.027237  0.001041  0.007114 -0.037774
  0C   2pz        0.000323 -0.000301  0.000034  0.000161 -0.000678 -0.001881
  0C   2px       -0.002147 -0.002007  0.001736  0.001147 -0.003336  0.000881
  0C   2py        0.002599 -0.000845 -0.000508  0.000412 -0.002352 -0.010574
  0C   1dz2       0.000080  0.000063 -0.000354 -0.000040  0.000547  0.008023
  0C   1dxz      -0.000053 -0.000040 -0.000001  0.000004 -0.000224  0.000644
  0C   1dyz      -0.000005 -0.000002  0.000023  0.000003 -0.000220 -0.000237
  0C   1dx2y2    -0.000178 -0.000148  0.000341  0.000045 -0.000118 -0.007817
  0C   1dxy      -0.000161 -0.000115 -0.000383 -0.000026 -0.000768  0.012097
  1O   1s        -0.995169 -0.000074  0.000105  0.000006  0.000006  0.196528
  1O   2s        -0.030199 -0.000395  0.000558 -0.000105 -0.000114 -0.429539
  1O   1pz       -0.000331  0.000027  0.000009 -0.000009  0.000033 -0.018247
  1O   1px        0.000081  0.000279  0.000200 -0.000277  0.000250  0.004484
  1O   1py       -0.001829  0.000034 -0.000030  0.000059  0.000081 -0.100954
  1O   3s         0.021352  0.000233 -0.000330 -0.000500 -0.000542 -0.435605
  1O   2pz        0.000912  0.000246 -0.000304 -0.000013 -0.000182 -0.010073
  1O   2px       -0.000224  0.000204  0.000263  0.001091 -0.000960  0.002502
  1O   2py        0.005047  0.001258 -0.001757 -0.000501 -0.000608 -0.055769
  1O   1dz2      -0.000580 -0.000780  0.001177 -0.000132 -0.000138  0.011498
  1O   1dxz       0.000102  0.000400 -0.000009  0.000008  0.000040 -0.001780
  1O   1dyz       0.000128  0.000317 -0.000184  0.000020  0.000036 -0.003086
  1O   1dx2y2     0.000342  0.000304 -0.000663  0.000093  0.000088 -0.003853
  1O   1dxy       0.000011  0.001486  0.001032 -0.000083  0.000083  0.000008
  2C   1s         0.000112 -0.981188  0.166910 -0.001399 -0.000086  0.070915
  2C   2s         0.000894 -0.036812  0.005235 -0.000939 -0.000216 -0.136739
  2C   1pz        0.000112  0.000198 -0.000043  0.000045 -0.000030  0.015075
  2C   1px        0.000842  0.001048 -0.000087 -0.000496 -0.000081  0.080320
  2C   1py        0.000277  0.000662 -0.000202  0.000440 -0.000129  0.050140
  2C   3s        -0.009601  0.028499 -0.001034  0.007007  0.001608 -0.037840
  2C   2pz        0.000642  0.000214 -0.000096 -0.000137 -0.000033 -0.001931
  2C   2px        0.001910  0.000904 -0.002517  0.003619 -0.000893  0.000117
  2C   2py        0.002722  0.000815  0.000478 -0.002164  0.000169 -0.010581
  2C   1dz2       0.000087  0.000293 -0.000175  0.000586  0.000008  0.007416
  2C   1dxz       0.000000 -0.000132  0.000049  0.000050  0.000018 -0.003766
  2C   1dyz       0.000020 -0.000090  0.000015 -0.000091  0.000000 -0.002323
  2C   1dx2y2    -0.000200 -0.000212  0.000248 -0.000235  0.000022 -0.005958
  2C   1dxy       0.000137 -0.000420  0.000047  0.000765  0.000092 -0.012744
  3C   1s        -0.000060 -0.001406  0.000260  0.994493  0.039892  0.014602
  3C   2s        -0.000213  0.000846 -0.000054  0.037366  0.001384 -0.025280
  3C   1pz       -0.000007  0.000018 -0.000026  0.000008  0.000001  0.000185
  3C   1px       -0.000352 -0.000557  0.000032 -0.000212  0.000004  0.019408
  3C   1py        0.000103  0.000318 -0.000155  0.000128  0.000003 -0.006628
  3C   3s         0.003082 -0.005813  0.001254 -0.032742 -0.000751 -0.028266
  3C   2pz       -0.000001 -0.000107  0.000191 -0.000037  0.000014  0.000520
  3C   2px       -0.001240  0.002818 -0.000017  0.001481 -0.000112  0.010540
  3C   2py        0.000484 -0.001688  0.001035 -0.000778  0.000119 -0.001275
  3C   1dz2      -0.000021 -0.000509  0.000072 -0.000001 -0.000018  0.001800
  3C   1dxz      -0.000017 -0.000070  0.000018  0.000005  0.000002  0.000093
  3C   1dyz      -0.000041  0.000050  0.000013 -0.000001  0.000005  0.000044
  3C   1dx2y2     0.000179  0.000285 -0.000117  0.000015  0.000002 -0.002314
  3C   1dxy      -0.000176 -0.000837  0.000193  0.000021 -0.000003  0.002629
  4H   1s         0.000520  0.000397 -0.000303 -0.000359 -0.000112 -0.024481
  4H   2s         0.000614 -0.005780  0.000079  0.000248 -0.000240 -0.000924
  5H   1s         0.000521  0.000396 -0.000304 -0.000359 -0.000112 -0.024482
  5H   2s         0.000616 -0.005781  0.000077  0.000248 -0.000240 -0.000932
  6H   1s        -0.000128  0.000406  0.000014 -0.000490 -0.000031 -0.005020
  6H   2s        -0.000005 -0.000309  0.000230  0.005790  0.000187 -0.000586
  7H   1s         0.000014  0.000309 -0.000172 -0.000541 -0.000057 -0.003776
  7H   2s        -0.000438 -0.000475 -0.000209  0.005514  0.000257  0.000803
  8H   1s        -0.000128  0.000406  0.000014 -0.000491 -0.000031 -0.005023
  8H   2s        -0.000005 -0.000309  0.000231  0.005790  0.000186 -0.000588
  9C   1s        -0.000060  0.000220  0.001413 -0.039914  0.994492  0.014601
  9C   2s        -0.000213 -0.000229 -0.000816 -0.001614  0.037357 -0.025285
  9C   1pz        0.000048 -0.000006 -0.000108 -0.000003  0.000041 -0.002808
  9C   1px        0.000342 -0.000157 -0.000503 -0.000020  0.000199 -0.018762
  9C   1py        0.000124  0.000031 -0.000383 -0.000008  0.000140 -0.007788
  9C   3s         0.003082  0.000741  0.005901  0.001875 -0.032698 -0.028238
  9C   2pz        0.000190  0.000002  0.000567  0.000051 -0.000260 -0.001118
  9C   2px        0.001194  0.000951  0.002485  0.000213 -0.001395 -0.010406
  9C   2py        0.000558 -0.000362  0.002092  0.000195 -0.000854 -0.001886
  9C   1dz2      -0.000012  0.000096  0.000461 -0.000018 -0.000003  0.001663
  9C   1dxz       0.000049 -0.000027 -0.000235  0.000003 -0.000002 -0.000887
  9C   1dyz      -0.000009 -0.000044 -0.000187  0.000006 -0.000004 -0.000416
  9C   1dx2y2     0.000151  0.000029 -0.000179  0.000001  0.000018 -0.001903
  9C   1dxy       0.000200 -0.000087 -0.000866  0.000004 -0.000018 -0.002858
 10H   1s        -0.000128 -0.000148 -0.000379  0.000008 -0.000492 -0.005021
 10H   2s        -0.000005 -0.000116  0.000368 -0.000278  0.005787 -0.000588
 11H   1s         0.000014  0.000060 -0.000348 -0.000013 -0.000543 -0.003778
 11H   2s        -0.000438  0.000355  0.000379 -0.000186  0.005516  0.000788
 12H   1s        -0.000128 -0.000148 -0.000379  0.000008 -0.000491 -0.005021
 12H   2s        -0.000005 -0.000115  0.000368 -0.000278  0.005786 -0.000582
 13H   1s         0.000520  0.000155 -0.000474 -0.000083 -0.000367 -0.024479
 13H   2s         0.000615  0.001840  0.005481 -0.000259  0.000228 -0.000941
 14H   1s         0.000520  0.000155 -0.000475 -0.000083 -0.000366 -0.024482
 14H   2s         0.000614  0.001838  0.005482 -0.000259  0.000228 -0.000919
                      6         7         8         9        10        11   
                  -0.76655  -0.71704  -0.61144  -0.59404  -0.48629  -0.47803
                   2.00000   2.00000   2.00000   2.00000   2.00000   2.00000
                  --------  --------  --------  --------  --------  --------
  0C   1s         0.109797 -0.062045  0.086213  0.090858  0.021427  0.000033
  0C   2s        -0.216198  0.121919 -0.176870 -0.186152 -0.041720 -0.000097
  0C   1pz        0.009904 -0.008819 -0.010966 -0.026250 -0.030701 -0.256946
  0C   1px        0.025608 -0.112314 -0.080059  0.011441  0.154223  0.018906
  0C   1py        0.043608 -0.003310 -0.027641 -0.147035 -0.228257  0.047248
  0C   3s        -0.166278  0.105919 -0.165394 -0.175001 -0.051145 -0.000084
  0C   2pz        0.000585 -0.001327 -0.005179 -0.011570 -0.011969 -0.108560
  0C   2px        0.012523 -0.024868 -0.015891 -0.002485  0.058704  0.008097
  0C   2py       -0.001676  0.002744 -0.021553 -0.061861 -0.088748  0.020109
  0C   1dz2       0.002215  0.002448 -0.003140 -0.010116 -0.014063 -0.002871
  0C   1dxz      -0.000276  0.001662  0.002939  0.001010 -0.000526 -0.004635
  0C   1dyz      -0.001056  0.000893  0.001242  0.002391  0.003079 -0.006797
  0C   1dx2y2     0.001477 -0.003970  0.003916  0.003811  0.002723 -0.000962
  0C   1dxy      -0.000484  0.012173  0.012065 -0.003192 -0.013832  0.001384
  1O   1s         0.000017  0.060719  0.000033 -0.069466 -0.000001  0.000013
  1O   2s        -0.000021 -0.141866 -0.000068  0.163547  0.000017 -0.000018
  1O   1pz        0.012835 -0.003282  0.016198 -0.020396 -0.027082 -0.241240
  1O   1px        0.163733  0.000765  0.206415  0.005121 -0.346520  0.017430
  1O   1py        0.004957 -0.018022  0.006290 -0.112818 -0.010517  0.044514
  1O   3s        -0.000129 -0.164884 -0.000137  0.211207 -0.000066 -0.000130
  1O   2pz        0.005633 -0.001256  0.007831 -0.011001 -0.012607 -0.140269
  1O   2px        0.071845  0.000249  0.099838  0.002792 -0.161141  0.010115
  1O   2py        0.002156 -0.006967  0.003027 -0.060908 -0.004936  0.025841
  1O   1dz2       0.000300 -0.000922  0.000372  0.003469 -0.000166 -0.004729
  1O   1dxz       0.002158  0.000325  0.002685  0.000220 -0.001238  0.000870
  1O   1dyz       0.001022 -0.000150  0.001271 -0.002568 -0.000585 -0.014584
  1O   1dx2y2    -0.000911  0.002468 -0.001134  0.007758  0.000524 -0.002830
  1O   1dxy       0.012167  0.000156  0.015129  0.000685 -0.007002  0.000969
  2C   1s        -0.109821 -0.062006 -0.086286  0.090786 -0.021414  0.000016
  2C   2s         0.216216  0.121803  0.177044 -0.186006  0.041759 -0.000087
  2C   1pz       -0.005593  0.008787 -0.001728 -0.027031  0.053455 -0.257046
  2C   1px        0.029462  0.112321 -0.082289  0.001549  0.133546  0.018636
  2C   1py       -0.041924  0.003526  0.022835 -0.147331  0.236954  0.047459
  2C   3s         0.166427  0.106006  0.165418 -0.174734  0.050916  0.000071
  2C   2pz        0.001315  0.002501  0.002549 -0.010746  0.020657 -0.108760
  2C   2px        0.012291  0.024489 -0.017894  0.008327  0.050427  0.007767
  2C   2py        0.002361  0.004164  0.020610 -0.061656  0.092090  0.020110
  2C   1dz2      -0.002252  0.001836  0.003730 -0.009961  0.013397 -0.001493
  2C   1dxz       0.000047 -0.002721  0.001261  0.002131 -0.004290  0.005436
  2C   1dyz       0.000948 -0.001180  0.000737  0.002929 -0.005357 -0.006647
  2C   1dx2y2    -0.001379 -0.002119 -0.005686  0.003325 -0.000682 -0.001646
  2C   1dxy      -0.000813 -0.012518  0.011523  0.003208 -0.013367 -0.000494
  3C   1s        -0.099152 -0.124817  0.098599 -0.057437  0.002777 -0.000007
  3C   2s         0.189818  0.239505 -0.192332  0.114834 -0.006891  0.000015
  3C   1pz        0.001969  0.003212  0.002775 -0.009838  0.025966 -0.133552
  3C   1px       -0.040775 -0.011573 -0.084872  0.045453  0.069295  0.009700
  3C   1py        0.026630  0.021905  0.048389 -0.071283  0.113446  0.024633
  3C   3s         0.156830  0.214725 -0.198625  0.104893 -0.008275  0.000020
  3C   2pz        0.000853  0.001315  0.000743 -0.004182  0.010997 -0.051617
  3C   2px       -0.002263  0.005095 -0.030554  0.016315  0.028102  0.003741
  3C   2py        0.005716  0.005349  0.015770 -0.028760  0.048445  0.009632
  3C   1dz2      -0.001748 -0.000073 -0.004814  0.004550 -0.004366  0.001466
  3C   1dxz      -0.000215 -0.000060 -0.000762  0.000783  0.000515  0.004637
  3C   1dyz       0.000179  0.000224  0.000353 -0.000870  0.001919  0.002601
  3C   1dx2y2     0.001019 -0.001015  0.003032 -0.000305 -0.002235  0.000168
  3C   1dxy      -0.002767  0.000004 -0.008593  0.007493  0.000559 -0.001067
  4H   1s         0.057489  0.042392  0.069380 -0.112662  0.094397 -0.114243
  4H   2s         0.007583  0.010868  0.021103 -0.048815  0.058825 -0.083937
  5H   1s         0.057490  0.042398  0.069359 -0.112693  0.094330  0.114260
  5H   2s         0.007557  0.010818  0.021146 -0.048865  0.058739  0.083850
  6H   1s         0.054845  0.075778 -0.086348  0.063700 -0.038559 -0.060444
  6H   2s         0.010618  0.016974 -0.031068  0.028427 -0.023493 -0.044395
  7H   1s         0.054327  0.082399 -0.093584  0.044282  0.063661  0.000021
  7H   2s         0.006906  0.018289 -0.037089  0.020406  0.043546 -0.000027
  8H   1s         0.054834  0.075765 -0.086337  0.063682 -0.038583  0.060443
  8H   2s         0.010572  0.016914 -0.030965  0.028304 -0.023441  0.044511
  9C   1s         0.099114 -0.124844 -0.098562 -0.057520 -0.002790 -0.000016
  9C   2s        -0.189760  0.239577  0.192232  0.114921  0.006840  0.000008
  9C   1pz       -0.008173  0.004887 -0.015696 -0.016460 -0.014230 -0.133493
  9C   1px       -0.038272  0.009588 -0.080322 -0.039078  0.079168  0.009765
  9C   1py       -0.029029  0.022565 -0.053342 -0.073883 -0.108958  0.024502
  9C   3s        -0.156731  0.214732  0.198692  0.105441  0.008631  0.000165
  9C   2pz       -0.001146  0.000458 -0.005396 -0.006487 -0.006166 -0.051557
  9C   2px       -0.001830 -0.005467 -0.028952 -0.013567  0.032417  0.003799
  9C   2py       -0.005790  0.004992 -0.017498 -0.029559 -0.046516  0.009605
  9C   1dz2       0.001607 -0.000073  0.004385  0.004187  0.004402  0.000157
  9C   1dxz      -0.000777 -0.000091 -0.002324 -0.001843 -0.000219 -0.004932
  9C   1dyz      -0.000646  0.000211 -0.001803 -0.002106 -0.001782  0.002443
  9C   1dx2y2    -0.000604 -0.000999 -0.001733  0.000796  0.002108  0.000818
  9C   1dxy      -0.002805 -0.000156 -0.008704 -0.007227  0.001120  0.000731
 10H   1s        -0.054809  0.075782  0.086301  0.063749  0.038535  0.060443
 10H   2s        -0.010543  0.016885  0.030920  0.028319  0.023419  0.044507
 11H   1s        -0.054310  0.082422  0.093550  0.044349 -0.063662 -0.000017
 11H   2s        -0.006974  0.018365  0.037100  0.020439 -0.043596 -0.000074
 12H   1s        -0.054828  0.075800  0.086301  0.063757  0.038596 -0.060381
 12H   2s        -0.010616  0.016982  0.031035  0.028421  0.023486 -0.044363
 13H   1s        -0.057471  0.042419 -0.069265 -0.112742 -0.094401  0.114130
 13H   2s        -0.007578  0.010848 -0.021109 -0.048910 -0.058813  0.083831
 14H   1s        -0.057478  0.042420 -0.069288 -0.112728 -0.094317 -0.114259
 14H   2s        -0.007558  0.010856 -0.021046 -0.048811 -0.058775 -0.084004
                     12        13        14        15        16        17   
                  -0.43322  -0.42142  -0.38855  -0.36759  -0.36670  -0.34518
                   2.00000   2.00000   2.00000   2.00000   2.00000   2.00000
                  --------  --------  --------  --------  --------  --------
  0C   1s         0.000000 -0.026929  0.010971 -0.007081  0.000005  0.000231
  0C   2s        -0.000020  0.058381 -0.024149  0.009788  0.000020 -0.004840
  0C   1pz       -0.234454 -0.040185 -0.006438  0.023870  0.103843  0.048612
  0C   1px        0.017170 -0.207449 -0.065360 -0.021756 -0.007463  0.261621
  0C   1py        0.043188 -0.135178 -0.009138  0.137301 -0.019293  0.158085
  0C   3s        -0.000008  0.067676 -0.032983  0.036192 -0.000153  0.027002
  0C   2pz       -0.093111 -0.019031 -0.004064  0.010564  0.059514  0.018496
  0C   2px        0.006969 -0.090892 -0.044164  0.003290 -0.004277  0.093932
  0C   2py        0.017204 -0.067113 -0.004956  0.056016 -0.011149  0.062375
  0C   1dz2      -0.001800  0.002227 -0.002059  0.009365  0.004410  0.002943
  0C   1dxz       0.005886 -0.000091 -0.000009 -0.000597  0.011505 -0.003683
  0C   1dyz      -0.007744  0.001851 -0.000769 -0.000389  0.008756 -0.001690
  0C   1dx2y2    -0.001889 -0.011404  0.006086 -0.011161  0.000860 -0.002941
  0C   1dxy      -0.000503  0.005438 -0.003855  0.007545 -0.002847 -0.016599
  1O   1s        -0.000004 -0.013566 -0.037348  0.000025  0.000019  0.000009
  1O   2s         0.000000  0.022811  0.083417 -0.000062 -0.000016 -0.000022
  1O   1pz       -0.000063 -0.049896 -0.017272  0.014381  0.182461 -0.015434
  1O   1px       -0.000038  0.012223  0.004360  0.179208 -0.013623 -0.196817
  1O   1py        0.000031 -0.275035 -0.096066  0.005459 -0.033572 -0.005832
  1O   3s         0.000070  0.065021  0.170866 -0.000072 -0.000203 -0.000026
  1O   2pz       -0.000046 -0.029272 -0.008738  0.008532  0.116334 -0.008734
  1O   2px        0.000087  0.007129  0.002186  0.106291 -0.008702 -0.111271
  1O   2py        0.000025 -0.161376 -0.048500  0.003252 -0.021438 -0.003266
  1O   1dz2       0.001178  0.002448  0.002598  0.000137  0.003589 -0.000372
  1O   1dxz       0.008654  0.001523  0.000026  0.000968 -0.000663 -0.002671
  1O   1dyz       0.000133 -0.004792 -0.001627  0.000479  0.011059 -0.001255
  1O   1dx2y2    -0.000587  0.021639  0.004198 -0.000411  0.002136  0.001110
  1O   1dxy      -0.001612  0.001689  0.000384  0.005476 -0.000754 -0.014945
  2C   1s         0.000010 -0.026927  0.010979  0.007069 -0.000016 -0.000229
  2C   2s         0.000024  0.058355 -0.024108 -0.009729  0.000023  0.004805
  2C   1pz        0.234328 -0.006672  0.003816 -0.025985  0.103948 -0.006553
  2C   1px       -0.017009  0.219003  0.066011 -0.009617 -0.007563  0.274925
  2C   1py       -0.043134 -0.122302 -0.005292 -0.138271 -0.018877 -0.141806
  2C   3s        -0.000111  0.067789 -0.033208 -0.036310  0.000025 -0.026946
  2C   2pz        0.093224 -0.004306  0.002930 -0.009391  0.059552 -0.003326
  2C   2px       -0.006620  0.096737  0.044364  0.008191 -0.004412  0.099290
  2C   2py       -0.017100 -0.061629 -0.002334 -0.055674 -0.011035 -0.056566
  2C   1dz2       0.003285  0.001915 -0.001863 -0.008953  0.001158 -0.003754
  2C   1dxz       0.004953 -0.002286  0.001484  0.003463 -0.012538 -0.002127
  2C   1dyz       0.007914  0.000814 -0.000054  0.001778  0.008375 -0.001060
  2C   1dx2y2     0.001157 -0.010471  0.005464  0.009949  0.002452  0.005403
  2C   1dxy      -0.001549 -0.006985  0.004642  0.008669  0.001674 -0.016140
  3C   1s         0.000002  0.011332  0.002700 -0.000234 -0.000012 -0.017170
  3C   2s         0.000005 -0.020672 -0.006496  0.000885  0.000011  0.035244
  3C   1pz        0.223812 -0.000196  0.059393  0.055218 -0.282147  0.004145
  3C   1px       -0.016097 -0.236218  0.153244  0.119778  0.020105 -0.270079
  3C   1py       -0.041296  0.091695  0.262959  0.254980  0.051361  0.126032
  3C   3s        -0.000015 -0.050778 -0.019570 -0.000980  0.000041  0.073812
  3C   2pz        0.110390 -0.002344  0.025368  0.025110 -0.150782  0.004241
  3C   2px       -0.007942 -0.108799  0.059278  0.050314  0.010837 -0.133077
  3C   2py       -0.020535  0.030276  0.115398  0.118498  0.027752  0.074496
  3C   1dz2      -0.002994 -0.003595 -0.012626 -0.012700  0.005441 -0.002851
  3C   1dxz      -0.004018 -0.001365  0.003932  0.004116 -0.003109 -0.001720
  3C   1dyz      -0.007449  0.000016  0.003465  0.002907  0.017501  0.000046
  3C   1dx2y2    -0.001133  0.001911  0.007749  0.010849  0.003517 -0.000010
  3C   1dxy       0.001335 -0.010555  0.009320  0.009109 -0.000803 -0.011252
  4H   1s         0.109093 -0.014612 -0.016456 -0.062197  0.058950 -0.054725
  4H   2s         0.083866 -0.013454 -0.011823 -0.051043  0.056642 -0.046804
  5H   1s        -0.109047 -0.014637 -0.016471 -0.062420 -0.058694 -0.054368
  5H   2s        -0.083814 -0.013482 -0.011782 -0.051159 -0.056336 -0.046432
  6H   1s         0.108720 -0.044419 -0.104003 -0.103156 -0.157278 -0.034373
  6H   2s         0.074940 -0.027684 -0.083206 -0.090856 -0.129232 -0.036594
  7H   1s         0.000046 -0.101601  0.181327  0.171090 -0.000417 -0.094152
  7H   2s         0.000104 -0.071740  0.167154  0.159301 -0.000524 -0.101284
  8H   1s        -0.108685 -0.044390 -0.103791 -0.102628  0.157790 -0.034850
  8H   2s        -0.075044 -0.027670 -0.083011 -0.090407  0.129798 -0.037075
  9C   1s        -0.000010  0.011333  0.002712  0.000224 -0.000009  0.017169
  9C   2s        -0.000024 -0.020696 -0.006464 -0.000891 -0.000003 -0.035228
  9C   1pz       -0.223895  0.036053  0.033562 -0.035674 -0.281927 -0.045440
  9C   1px        0.016373  0.227370 -0.176002  0.142242  0.020441 -0.258115
  9C   1py        0.041267  0.105720  0.252673 -0.247159  0.052144 -0.142130
  9C   3s         0.000167 -0.050641 -0.019794  0.001081  0.000058 -0.073881
  9C   2pz       -0.110386  0.014456  0.015246 -0.016923 -0.150660 -0.024522
  9C   2px        0.008083  0.105847 -0.069430  0.060905  0.010868 -0.126061
  9C   2py        0.020554  0.036714  0.111308 -0.115176  0.028101 -0.082338
  9C   1dz2       0.001769 -0.003073 -0.013052  0.013155  0.005946  0.002305
  9C   1dxz      -0.004895  0.002393  0.000737 -0.001086  0.001011 -0.002228
  9C   1dyz       0.007308  0.001787  0.001948 -0.001411  0.017570 -0.001917
  9C   1dx2y2     0.001737  0.000327  0.009087 -0.012131  0.003277  0.001678
  9C   1dxy       0.000346  0.010552 -0.008714  0.008056 -0.001570 -0.010998
 10H   1s         0.108737 -0.044372 -0.103695  0.103279  0.157425  0.034849
 10H   2s         0.075079 -0.027611 -0.082930  0.090936  0.129462  0.037015
 11H   1s         0.000001 -0.101589  0.181152 -0.171281  0.000176  0.094158
 11H   2s        -0.000091 -0.071730  0.166965 -0.159398  0.000034  0.101337
 12H   1s        -0.108767 -0.044427 -0.103856  0.102741 -0.157603  0.034436
 12H   2s        -0.074985 -0.027696 -0.083029  0.090468 -0.129516  0.036652
 13H   1s         0.109118 -0.014571 -0.016424  0.062261 -0.058863  0.054351
 13H   2s         0.083929 -0.013444 -0.011766  0.051035 -0.056502  0.046406
 14H   1s        -0.109145 -0.014643 -0.016395  0.062427  0.058738  0.054717
 14H   2s        -0.083966 -0.013468 -0.011729  0.051198  0.056457  0.046738
                     18        19        20        21        22        23   
                  -0.33651  -0.30601  -0.24430   0.09760   0.11932   0.13724
                   2.00000   2.00000   2.00000   0.00000   0.00000   0.00000
                  --------  --------  --------  --------  --------  --------
  0C   1s        -0.000005  0.022814  0.000005  0.056693 -0.054143  0.004929
  0C   2s        -0.000004 -0.059427  0.000045 -0.058017  0.077405  0.034016
  0C   1pz       -0.237660  0.037020  0.132579 -0.031415  0.017004 -0.002208
  0C   1px        0.017803 -0.047482 -0.009691  0.100243  0.044626  0.138707
  0C   1py        0.044042  0.219827 -0.024329 -0.209228  0.073901 -0.067076
  0C   3s         0.000151 -0.054965 -0.000252 -1.030082  0.782679 -0.273110
  0C   2pz       -0.104492  0.012394 -0.022672 -0.081759  0.068326  0.041756
  0C   2px        0.007686 -0.021356  0.001669  0.280131  0.250620  0.463883
  0C   2py        0.019457  0.076206  0.003980 -0.548643  0.263142  0.036933
  0C   1dz2      -0.006445  0.011154  0.005691  0.005717 -0.001935  0.000969
  0C   1dxz      -0.001787 -0.003754 -0.019739 -0.000051  0.001432  0.001702
  0C   1dyz      -0.018704 -0.000188  0.024942 -0.001255  0.000726  0.003472
  0C   1dx2y2    -0.003426 -0.020440  0.006119 -0.001703  0.001872 -0.013740
  0C   1dxy       0.001773 -0.004493  0.001721  0.004379  0.005551  0.014951
  1O   1s         0.000001 -0.053130 -0.000007  0.039461  0.000117  0.040237
  1O   2s         0.000002  0.111215  0.000003 -0.085119 -0.000091 -0.072908
  1O   1pz       -0.000071 -0.083590 -0.558517  0.001711  0.004858 -0.031067
  1O   1px       -0.000332  0.020553  0.040700 -0.000427  0.062895  0.007453
  1O   1py        0.000007 -0.462611  0.102748  0.008004  0.001406 -0.170822
  1O   3s        -0.000018  0.245440  0.000026 -0.400488 -0.002086 -0.472636
  1O   2pz       -0.000062 -0.058779 -0.417195 -0.000812  0.012538 -0.045282
  1O   2px       -0.000220  0.014372  0.030394  0.000132  0.160968  0.011193
  1O   2py        0.000005 -0.325537  0.076822 -0.007350  0.004041 -0.248421
  1O   1dz2       0.000980  0.010991 -0.004592  0.007328 -0.000119 -0.002022
  1O   1dxz       0.007179 -0.000539  0.000843 -0.000692 -0.001024  0.001141
  1O   1dyz       0.000108 -0.005479 -0.014147 -0.002921 -0.000492 -0.001260
  1O   1dx2y2    -0.000485  0.010114 -0.002742  0.002839  0.000440  0.010408
  1O   1dxy      -0.001372  0.001029  0.000945  0.000387 -0.005773  0.000761
  2C   1s         0.000011  0.022807  0.000009  0.056750  0.054169  0.004775
  2C   2s        -0.000023 -0.059440  0.000015 -0.058142 -0.077222  0.034305
  2C   1pz        0.237688  0.042889  0.132567 -0.045767 -0.009640 -0.023577
  2C   1px       -0.016828  0.027940 -0.009636 -0.081425  0.050551 -0.132772
  2C   1py       -0.044007  0.222041 -0.024352 -0.214829 -0.071312 -0.075042
  2C   3s        -0.000160 -0.054827 -0.000230 -1.031162 -0.784013 -0.271626
  2C   2pz        0.104555  0.015156 -0.022689 -0.122401 -0.027982 -0.031075
  2C   2px       -0.007547  0.014235  0.001643 -0.231279  0.270501 -0.467551
  2C   2py       -0.019466  0.077234  0.004018 -0.564174 -0.248700  0.011877
  2C   1dz2       0.005657  0.011305  0.010675  0.005505  0.002199  0.000190
  2C   1dxz      -0.004011 -0.002587  0.016725 -0.001597  0.000516 -0.003995
  2C   1dyz       0.018608  0.000355  0.025522 -0.001984  0.000189  0.000809
  2C   1dx2y2     0.003820 -0.020922  0.003652 -0.001054 -0.002720 -0.011377
  2C   1dxy      -0.000719  0.001969 -0.005093 -0.004287  0.005272 -0.016875
  3C   1s        -0.000038  0.019176  0.000022  0.032189  0.084457 -0.088933
  3C   2s         0.000057 -0.041484 -0.000030 -0.035057 -0.099707  0.086659
  3C   1pz       -0.218045 -0.011154 -0.016807 -0.002492 -0.001296 -0.016196
  3C   1px        0.015373  0.111438  0.001317 -0.085932 -0.101576  0.008631
  3C   1py        0.040286 -0.104063  0.003017  0.019860  0.032046 -0.088810
  3C   3s         0.000207 -0.099421 -0.000200 -0.503105 -1.400220  1.585052
  3C   2pz       -0.101737 -0.011861  0.043297  0.021364  0.006767 -0.062115
  3C   2px        0.007202  0.024033 -0.003009 -0.211470 -0.303783 -0.119540
  3C   2py        0.019093 -0.074206 -0.007907  0.193588  0.145433 -0.278392
  3C   1dz2       0.005083  0.003509  0.001835  0.002096  0.003473 -0.006113
  3C   1dxz      -0.005727 -0.000099 -0.001791  0.001603  0.000509  0.002726
  3C   1dyz       0.017555  0.000158  0.006227 -0.001926 -0.000518 -0.000141
  3C   1dx2y2     0.003734 -0.005395  0.001309  0.009092 -0.001135  0.013536
  3C   1dxy      -0.000313  0.003954 -0.000142  0.006597  0.005525  0.005234
  4H   1s         0.136656  0.084027  0.126977  0.017997  0.011432  0.013632
  4H   2s         0.130545  0.115230  0.201124  0.773563  0.501332  0.096302
  5H   1s        -0.136804  0.084172 -0.126886  0.018093  0.011373  0.013545
  5H   2s        -0.130577  0.115320 -0.200705  0.770588  0.498744  0.096342
  6H   1s        -0.132369  0.029171 -0.021522 -0.009438  0.016945 -0.049837
  6H   2s        -0.129997  0.053523 -0.069475  0.236755  0.613986 -0.844209
  7H   1s        -0.000172  0.003474  0.000024  0.037067  0.011773  0.052868
  7H   2s        -0.000313  0.040665  0.000002  0.426389  0.750343 -0.182759
  8H   1s         0.132345  0.029167  0.021548 -0.009500  0.017018 -0.049930
  8H   2s         0.130068  0.053519  0.069665  0.238141  0.617208 -0.848690
  9C   1s         0.000037  0.019191  0.000020  0.032263 -0.084941 -0.088382
  9C   2s        -0.000063 -0.041492 -0.000007 -0.035074  0.100055  0.085828
  9C   1pz        0.218005 -0.027850 -0.016827  0.010812 -0.014434 -0.016631
  9C   1px       -0.016359 -0.101980  0.001149  0.083893 -0.098742 -0.000517
  9C   1py       -0.040342 -0.110594  0.003029  0.025090 -0.038318 -0.088429
  9C   3s        -0.000185 -0.099676 -0.000245 -0.504633  1.409121  1.575931
  9C   2pz        0.101711 -0.015124  0.043250  0.052985 -0.053346 -0.040639
  9C   2px       -0.007595 -0.017276 -0.003259  0.193050 -0.290811  0.143210
  9C   2py       -0.019086 -0.075633 -0.007926  0.205797 -0.163712 -0.268574
  9C   1dz2      -0.006351  0.003305  0.002221  0.001813 -0.003224 -0.006290
  9C   1dxz      -0.003627 -0.001618  0.001045 -0.000479  0.001477  0.001185
  9C   1dyz      -0.017711 -0.000556  0.006273 -0.002900  0.001430 -0.000879
  9C   1dx2y2    -0.003100 -0.004755  0.001115  0.009959  0.000371  0.014165
  9C   1dxy       0.002041 -0.004545 -0.000690 -0.005063  0.005452 -0.003485
 10H   1s        -0.132360  0.029176  0.021558 -0.009475 -0.017240 -0.049797
 10H   2s        -0.130054  0.053518  0.069644  0.238861 -0.621117 -0.843160
 11H   1s         0.000173  0.003503  0.000017  0.037031 -0.011575  0.052831
 11H   2s         0.000282  0.040877  0.000037  0.426316 -0.753839 -0.181376
 12H   1s         0.132419  0.029186 -0.021529 -0.009465 -0.017140 -0.049759
 12H   2s         0.130036  0.053518 -0.069462  0.237337 -0.617838 -0.839952
 13H   1s         0.136825  0.084178 -0.126886  0.018122 -0.011200  0.013716
 13H   2s         0.130657  0.115339 -0.200720  0.770397 -0.497840  0.099155
 14H   1s        -0.136676  0.084085  0.126990  0.017960 -0.011245  0.013717
 14H   2s        -0.130576  0.115239  0.201129  0.772403 -0.500013  0.098003
                     24        25        26        27        28        29   
                   0.14824   0.15526   0.17539   0.17621   0.19463   0.19917
                   0.00000   0.00000   0.00000   0.00000   0.00000   0.00000
                  --------  --------  --------  --------  --------  --------
  0C   1s         0.000694  0.076104 -0.000971 -0.036093  0.085520 -0.048577
  0C   2s        -0.000804 -0.104530  0.000728  0.028788 -0.097678  0.049479
  0C   1pz       -0.257750 -0.003431  0.169409  0.003433 -0.020091  0.008278
  0C   1px        0.017456 -0.117551 -0.012895 -0.025708  0.018678  0.142747
  0C   1py        0.047952  0.012644 -0.029958  0.044222 -0.111490 -0.014761
  0C   3s        -0.009890 -1.089173  0.018076  0.670709 -1.485040  0.722217
  0C   2pz       -0.585362 -0.022945  0.399376 -0.027222 -0.070780 -0.017180
  0C   2px        0.040659 -0.113130 -0.028642  0.049843  0.049715  0.669063
  0C   2py        0.106555 -0.114470 -0.074096 -0.129454 -0.381284 -0.368205
  0C   1dz2       0.003457 -0.004811 -0.005881  0.000187  0.002541  0.008271
  0C   1dxz       0.013690  0.000089 -0.007693  0.000099 -0.001792  0.001166
  0C   1dyz       0.005089 -0.002370 -0.014600 -0.003106 -0.001950 -0.002622
  0C   1dx2y2     0.000180  0.016924 -0.001962  0.015125  0.002354  0.003572
  0C   1dxy      -0.003058 -0.008497  0.002510 -0.005826 -0.008206  0.010617
  1O   1s        -0.000698 -0.063091 -0.000008 -0.000103  0.000047  0.071643
  1O   2s         0.001492  0.140661 -0.000038  0.000231 -0.000073 -0.091429
  1O   1pz        0.075964  0.024834 -0.000148 -0.003178 -0.010240 -0.039526
  1O   1px       -0.005566 -0.006244 -0.000197 -0.040324 -0.128871  0.010179
  1O   1py       -0.012339  0.141461  0.000052 -0.000963 -0.003956 -0.218820
  1O   3s         0.006893  0.595802  0.000424  0.001057 -0.000719 -1.229413
  1O   2pz        0.203426  0.046348 -0.000040  0.008223 -0.015231 -0.087090
  1O   2px       -0.014741 -0.011572  0.002939  0.105595 -0.192022  0.022995
  1O   2py       -0.034347  0.267767  0.000111  0.003589 -0.005755 -0.482012
  1O   1dz2       0.000328  0.006204 -0.001144 -0.000066 -0.000017  0.015183
  1O   1dxz      -0.000066 -0.001654 -0.008281 -0.000514 -0.000150 -0.002393
  1O   1dyz       0.000847 -0.000185 -0.000131 -0.000300 -0.000112 -0.004027
  1O   1dx2y2     0.000045 -0.010201  0.000561  0.000234  0.000101 -0.005283
  1O   1dxy      -0.000065 -0.000593  0.001511 -0.003662 -0.001237  0.000044
  2C   1s         0.000816  0.076044  0.000961  0.036168 -0.085662 -0.048566
  2C   2s        -0.000871 -0.104373 -0.000602 -0.028811  0.097819  0.049223
  2C   1pz       -0.257631  0.014516 -0.168770 -0.006743  0.022322 -0.014857
  2C   1px        0.019928  0.115643  0.011711 -0.021696  0.008706 -0.140570
  2C   1py        0.047982  0.019989  0.030148 -0.045033  0.111802 -0.023111
  2C   3s        -0.012534 -1.088651 -0.018242 -0.671656  1.487274  0.723107
  2C   2pz       -0.585521 -0.005264 -0.397492  0.035080  0.076517 -0.122183
  2C   2px        0.043684  0.121462  0.028927  0.037482  0.016154 -0.630502
  2C   2py        0.107273 -0.105836  0.075620  0.133140  0.380689 -0.404297
  2C   1dz2      -0.000344 -0.004286  0.003533 -0.000514 -0.002932  0.007762
  2C   1dxz      -0.014257  0.003802 -0.009451 -0.002242 -0.001416 -0.002433
  2C   1dyz       0.004677 -0.000732  0.014319  0.001957  0.000554 -0.004278
  2C   1dx2y2     0.002049  0.015467  0.003130 -0.014070 -0.001101  0.005079
  2C   1dxy       0.002436  0.010708  0.000542 -0.007937 -0.008598 -0.009593
  3C   1s        -0.000592 -0.058577 -0.000734 -0.035062  0.054766  0.008014
  3C   2s         0.000252  0.060262  0.000186  0.033768 -0.036028  0.001799
  3C   1pz       -0.173349  0.026807 -0.242919 -0.047407 -0.018738  0.047636
  3C   1px        0.013615  0.109968  0.015239 -0.143878 -0.135701  0.133124
  3C   1py        0.032979  0.091686  0.041176 -0.222766 -0.036262  0.203713
  3C   3s         0.010254  0.933111  0.014596  0.632911 -1.000233 -0.110555
  3C   2pz       -0.464842  0.106742 -0.662167 -0.154757 -0.092711  0.159775
  3C   2px        0.036698  0.334935  0.037208 -0.580309 -0.254087  0.498490
  3C   2py        0.090549  0.421918  0.112021 -0.674622 -0.357501  0.666553
  3C   1dz2      -0.002798  0.009230 -0.003206 -0.006474 -0.007468  0.002692
  3C   1dxz       0.009099 -0.003167  0.007340  0.002519  0.000173  0.001088
  3C   1dyz      -0.012260 -0.000933 -0.012180  0.001910  0.002422 -0.003019
  3C   1dx2y2    -0.003107 -0.012696 -0.002727  0.005649 -0.001469  0.012336
  3C   1dxy      -0.000818 -0.005305 -0.000271  0.007563 -0.003309  0.002899
  4H   1s         0.029848  0.006447  0.072452  0.024476 -0.045139  0.004946
  4H   2s         0.761573  0.495046  0.615150  0.277069 -0.888519 -0.188419
  5H   1s        -0.029673  0.007086 -0.071332  0.027023 -0.045293  0.004672
  5H   2s        -0.750889  0.508332 -0.600009  0.299283 -0.880101 -0.192239
  6H   1s         0.054753  0.028531  0.061809 -0.039538 -0.001111 -0.004590
  6H   2s         0.654473 -0.040399  0.842625 -0.806965  0.168791  0.519113
  7H   1s        -0.000954 -0.088250  0.000968  0.062443  0.040990  0.012936
  7H   2s        -0.011368 -1.118286  0.013562  0.919807  0.939186 -0.880993
  8H   1s        -0.054159  0.029513 -0.063111 -0.037101 -0.001997 -0.004876
  8H   2s        -0.654924 -0.027624 -0.869520 -0.778206  0.152306  0.520819
  9C   1s        -0.000468 -0.058480  0.000812  0.035188 -0.054636  0.008101
  9C   2s         0.000220  0.060236 -0.000341 -0.033775  0.035934  0.001637
  9C   1pz       -0.173227  0.009183  0.242621  0.023523 -0.003391  0.024999
  9C   1px        0.011549 -0.118000 -0.019994 -0.162525 -0.139091 -0.150549
  9C   1py        0.032870  0.084635 -0.041180  0.213713  0.027721  0.195451
  9C   3s         0.007615  0.931115 -0.015603 -0.635375  0.997888 -0.111726
  9C   2pz       -0.464413  0.051642  0.660096  0.059651  0.047722  0.074964
  9C   2px        0.029563 -0.372549 -0.057388 -0.635985 -0.288442 -0.555723
  9C   2py        0.089762  0.400158 -0.112171  0.639275  0.340175  0.637479
  9C   1dz2      -0.005071  0.009496  0.004999  0.006828  0.007288  0.002628
  9C   1dxz      -0.007659 -0.001404  0.005843 -0.000182 -0.001390  0.000417
  9C   1dyz      -0.012505 -0.000153  0.012431 -0.000672 -0.002951 -0.003351
  9C   1dx2y2    -0.001989 -0.013383  0.001811 -0.006789  0.001958  0.012638
  9C   1dxy       0.002455  0.003776 -0.001942  0.007020 -0.002673 -0.000896
 10H   1s        -0.054030  0.029613  0.063156  0.037449  0.001779 -0.004815
 10H   2s        -0.652858 -0.026537  0.869994  0.780390 -0.154778  0.520259
 11H   1s        -0.001036 -0.088229 -0.000821 -0.062643 -0.040962  0.013087
 11H   2s        -0.011248 -1.117462 -0.011339 -0.919235 -0.939341 -0.880139
 12H   1s         0.054685  0.028546 -0.061768  0.039792  0.001215 -0.004417
 12H   2s         0.654006 -0.040874 -0.841684  0.808774 -0.166819  0.522797
 13H   1s        -0.029575  0.007227  0.071228 -0.027047  0.045357  0.005150
 13H   2s        -0.751130  0.510740  0.600561 -0.299097  0.881582 -0.187108
 14H   1s         0.029696  0.006413 -0.072530 -0.024562  0.045359  0.005009
 14H   2s         0.760111  0.494930 -0.618118 -0.278655  0.888652 -0.190589
                     30        31        32        33        34        35   
                   0.20344   0.20500   0.22158   0.24880   0.28071   0.50682
                   0.00000   0.00000   0.00000   0.00000   0.00000   0.00000
                  --------  --------  --------  --------  --------  --------
  0C   1s        -0.000680  0.000036 -0.068015  0.020892 -0.060329 -0.014802
  0C   2s         0.001071 -0.000211  0.084482 -0.038169  0.059446  0.019862
  0C   1pz       -0.259756  0.228326 -0.045844 -0.012759 -0.062612  0.072471
  0C   1px        0.019611 -0.016715 -0.107237 -0.333603 -0.162260  0.301434
  0C   1py        0.048593 -0.042273 -0.206242  0.064972 -0.275619  0.272786
  0C   3s         0.010578  0.000093  1.086972 -0.077832  1.364369 -0.430554
  0C   2pz       -0.919896  0.806618 -0.206557  0.009167 -0.260870 -0.117099
  0C   2px        0.069864 -0.059115 -0.553129 -1.167953 -0.485846 -0.241056
  0C   2py        0.170428 -0.148394 -0.903157  0.518034 -1.222462 -0.542032
  0C   1dz2       0.001046  0.003420  0.018895 -0.017038  0.010919  0.058461
  0C   1dxz      -0.011819  0.003019 -0.005836 -0.002194 -0.000131 -0.017226
  0C   1dyz       0.007868  0.009065 -0.005970  0.003982 -0.004209 -0.018532
  0C   1dx2y2     0.002331  0.001522 -0.007875 -0.000688  0.005066 -0.022243
  0C   1dxy       0.001703 -0.001284 -0.014874 -0.023399  0.005039 -0.042800
  1O   1s         0.000109 -0.000055  0.022464  0.000141  0.000025  0.017398
  1O   2s        -0.000172  0.000031 -0.019992 -0.000263 -0.000000 -0.091014
  1O   1pz       -0.003007 -0.161208 -0.002216 -0.031220  0.013568 -0.004714
  1O   1px        0.001602  0.011942  0.000849 -0.396568  0.172860  0.001335
  1O   1py        0.000261  0.030071 -0.012043 -0.012380  0.005211 -0.026446
  1O   3s        -0.001756  0.001140 -0.398903 -0.001949 -0.000537  0.024373
  1O   2pz       -0.005011 -0.266788  0.014166 -0.072362  0.047094  0.038790
  1O   2px        0.003263  0.019939 -0.003050 -0.921017  0.600509 -0.010684
  1O   2py        0.000292  0.049604  0.078172 -0.028514  0.018329  0.214592
  1O   1dz2       0.002549 -0.002002  0.005410 -0.000015  0.000194  0.000262
  1O   1dxz       0.018799  0.000008  0.000768 -0.000225  0.001345 -0.000276
  1O   1dyz       0.000174 -0.006025 -0.004956 -0.000131  0.000633  0.000426
  1O   1dx2y2    -0.001307 -0.001135  0.017119  0.000140 -0.000526 -0.002738
  1O   1dxy      -0.003518  0.000481  0.001434 -0.001513  0.007664 -0.000285
  2C   1s         0.000616  0.000205 -0.067937 -0.021240  0.060092 -0.014932
  2C   2s        -0.000922 -0.000268  0.084304  0.038302 -0.058847  0.019641
  2C   1pz        0.268157  0.218539 -0.027712 -0.038928  0.035223  0.023549
  2C   1px       -0.019364 -0.015790  0.126297 -0.327420 -0.185708 -0.324449
  2C   1py       -0.050113 -0.040470 -0.199754 -0.085814  0.264445  0.255012
  2C   3s        -0.010236 -0.003357  1.087597  0.083541 -1.361410 -0.429098
  2C   2pz        0.950063  0.772275 -0.113966 -0.188728  0.176094 -0.076569
  2C   2px       -0.068835 -0.055667  0.637426 -1.118744 -0.591626  0.288398
  2C   2py       -0.176855 -0.141929 -0.870546 -0.589872  1.187394 -0.530293
  2C   1dz2      -0.004022  0.002609  0.019598  0.016011 -0.010603  0.060724
  2C   1dxz      -0.011013 -0.003664 -0.000572 -0.005968  0.001699 -0.002070
  2C   1dyz      -0.007888  0.009238 -0.003478 -0.007841  0.004918 -0.011480
  2C   1dx2y2    -0.000716  0.002026 -0.010070  0.004089 -0.005789 -0.028614
  2C   1dxy       0.002733  0.000004  0.014510 -0.022226  0.003783  0.042329
  3C   1s        -0.000228  0.000053  0.042520 -0.015738 -0.052644 -0.004791
  3C   2s        -0.000211 -0.000462 -0.029566  0.037636  0.012222 -0.052776
  3C   1pz       -0.150843 -0.209202 -0.015976  0.004876  0.016648 -0.042479
  3C   1px        0.011997  0.015166  0.189438 -0.102602 -0.079110  0.268797
  3C   1py        0.028668  0.038989 -0.158619  0.066597  0.118863 -0.339844
  3C   3s         0.005391  0.000231 -0.785538  0.180591  1.183724 -0.166991
  3C   2pz       -0.801977 -0.899140 -0.037596  0.088711  0.045140  0.086217
  3C   2px        0.059409  0.064390  1.043602 -0.160728 -1.153972 -0.413356
  3C   2py        0.151631  0.167105 -0.607622  0.550993  0.694568  0.638127
  3C   1dz2      -0.003041 -0.002943 -0.008665  0.012261  0.008879  0.038511
  3C   1dxz      -0.016500 -0.011199 -0.001229  0.001460  0.002814  0.002716
  3C   1dyz      -0.002867 -0.004531 -0.000741 -0.005906  0.001421 -0.007460
  3C   1dx2y2     0.000621 -0.000089  0.012011  0.014092 -0.012391 -0.010226
  3C   1dxy       0.003334  0.002447 -0.017110  0.011245  0.025884  0.045383
  4H   1s        -0.047794  0.015029  0.056318  0.041196 -0.032671  0.119009
  4H   2s        -0.962249 -0.701833  0.233339  0.243475 -0.299890  0.088699
  5H   1s         0.048351 -0.014940  0.056374  0.041243 -0.032646  0.118938
  5H   2s         0.972791  0.703962  0.233842  0.246176 -0.300169  0.088883
  6H   1s         0.030540  0.044363 -0.036000  0.006873  0.050563  0.104476
  6H   2s         0.705381  0.871454 -0.206302  0.178807  0.136942  0.063623
  7H   1s        -0.000261 -0.000080 -0.026857  0.054595  0.044841  0.059780
  7H   2s        -0.006644 -0.000502 -0.250055 -0.013524  0.050181 -0.051934
  8H   1s        -0.030417 -0.044190 -0.036112  0.006485  0.050655  0.103649
  8H   2s        -0.703964 -0.869242 -0.208600  0.177111  0.138466  0.063135
  9C   1s         0.000204  0.000144  0.042525  0.015836  0.052860 -0.004887
  9C   2s         0.000276 -0.000525 -0.029675 -0.037574 -0.012444 -0.052256
  9C   1pz        0.143258 -0.215081 -0.043918 -0.020502 -0.028181 -0.081281
  9C   1px       -0.009882  0.016068 -0.174206 -0.097613 -0.068800 -0.236528
  9C   1py       -0.026291  0.039906 -0.169229 -0.072488 -0.124314 -0.353008
  9C   3s        -0.004792 -0.001637 -0.784425 -0.182691 -1.187282 -0.164792
  9C   2pz        0.768336 -0.929364 -0.194161 -0.110496 -0.220473  0.144936
  9C   2px       -0.055670  0.068473 -0.982869 -0.115215 -1.091516  0.355606
  9C   2py       -0.142134  0.171585 -0.664852 -0.559224 -0.763733  0.658476
[...]
     25       0.132350   0.095301   0.150028   0.103601  -0.029828  -0.039688
     26      -0.020495  -0.070282  -0.123908  -0.101094  -0.010368  -0.001740
     27      -0.004067   0.000519  -0.060500   0.089026  -0.065710  -0.003266
     28      -0.010329   0.040314  -0.064920   0.055173  -0.016605  -0.008545
     29       0.056163   0.007537  -0.016342   0.016566  -0.007733   0.047171
     30       0.099919  -0.068769   0.290628  -0.349798   0.197644  -0.452424
     31       0.137908  -0.099190   0.166696  -0.125212  -0.018190   0.090557
     32      -0.004341   0.059821  -0.078281   0.047219   0.020652  -0.065368
     33       0.005025  -0.119506   0.185727  -0.153215   0.044652   0.048360
     34       0.012630  -0.167427   0.358700  -0.359603   0.171109   0.122090
     35      -0.068472  -0.039565   0.079007  -0.076467   0.033571  -0.665257
     36      -0.094668  -0.057471   0.273076  -0.337268   0.200293   0.458045
     37      -0.124734  -0.069987   0.120304  -0.090762  -0.015278  -0.074101
     38      -0.066975  -0.100266   0.172222  -0.137007   0.002033  -0.030027
     39       0.462812  -0.449287   0.189853   0.155365  -0.398451  -0.010309
     40       0.020000  -0.013822   0.046539  -0.010675  -0.088415  -0.034898
     41       0.018741  -0.044478   0.049612   0.011254  -0.126871  -0.009378
     42      -0.459117  -0.452186   0.194069   0.156137  -0.410713   0.011328
     43      -0.013424  -0.017094   0.056241  -0.010080  -0.117254   0.035527
     44      -0.054833  -0.027204  -0.002595   0.007725   0.029770   0.005269
                 30         31         32         33         34         35    
      0       0.000553  -0.018978  -0.018097  -0.006478   0.031894   0.000955
      1       0.001183  -0.020379  -0.010696   0.055100  -0.051957   0.044884
      2      -0.006121  -0.005132  -0.003288   0.009648  -0.007218   0.007433
      3      -0.000185   0.009324   0.000314  -0.006971   0.000671  -0.004839
      4      -0.000495   0.000324  -0.006702  -0.000233  -0.015009  -0.000159
      5       0.002485   0.000733  -0.001213  -0.000541  -0.002728  -0.000381
      6       0.001308  -0.020660   0.018832  -0.001745  -0.027263   0.004867
      7       0.003704   0.019204  -0.009556  -0.055345  -0.053654  -0.044999
      8      -0.019869   0.002037  -0.000384  -0.010328  -0.011870  -0.007683
      9       0.003575  -0.010404   0.011525  -0.008968   0.000851   0.001196
     10       0.008615  -0.030213   0.031719  -0.015451  -0.007810   0.002365
     11      -0.047116  -0.006311   0.006661  -0.003477  -0.001371   0.000504
     12       0.015555   0.029017  -0.027494   0.048562   0.145969  -0.037709
     13      -0.034088  -0.219845   0.156386   0.381782   0.400314   0.199328
     14      -0.003253   0.109980  -0.075651  -0.197814  -0.203194   0.455778
     15      -0.014987   0.049615  -0.041709   0.010702   0.105903   0.021154
     16       0.033445  -0.167153   0.120004   0.285329   0.298245   0.351680
     17       0.006958  -0.175638   0.121625   0.325104   0.350239  -0.358432
     18       0.442637   0.041588  -0.043895   0.020977  -0.004615   0.000370
     19       0.101061   0.271800  -0.291086   0.153968   0.097896  -0.004523
     20       0.100280   0.303584  -0.324569   0.170988   0.106786   0.006479
     21      -0.048413   0.102223  -0.110274   0.058519   0.046441  -0.019644
     22      -0.122213  -0.177299   0.191788  -0.109676  -0.074656  -0.017193
     23       0.665137  -0.025280   0.027440  -0.016204  -0.010474  -0.004605
     24      -0.450723   0.076397  -0.081193   0.040896   0.007860   0.001359
     25      -0.118329   0.360814  -0.386235   0.204178   0.129585  -0.001791
     26      -0.005160  -0.178446   0.190667  -0.100528  -0.064640  -0.007252
     27       0.001067  -0.012868  -0.014315  -0.010312  -0.000142   0.001383
     28       0.002854   0.029379   0.031144   0.014822  -0.007860  -0.002271
     29      -0.015786   0.004440   0.004650   0.001952  -0.001451  -0.000252
     30       0.152199   0.068673   0.073935   0.036976  -0.005512   0.000190
     31      -0.030416  -0.354501  -0.383776  -0.201166   0.129284   0.001670
     32       0.021993   0.188885   0.204031   0.106331  -0.065773   0.006984
     33      -0.016215   0.085616   0.093336   0.048335  -0.039645  -0.020976
     34      -0.040912   0.181649   0.198769   0.112478  -0.077280   0.015822
     35       0.223320   0.039974   0.043783   0.024626  -0.017206   0.001417
     36      -0.153928   0.103478   0.111455   0.056275  -0.017979   0.001077
     37       0.024809  -0.265966  -0.288078  -0.151151   0.097599   0.004780
     38       0.010030  -0.290529  -0.314173  -0.164346   0.105828  -0.006556
     39       0.005684   0.012095   0.015426   0.077606  -0.176476  -0.013872
     40       0.010639   0.168381   0.122175  -0.282532   0.290031  -0.351771
     41       0.002553   0.179779   0.126516  -0.318000   0.328470   0.359071
     42      -0.006351   0.032922   0.029924   0.039511  -0.136225   0.044771
     43      -0.011027   0.220913   0.158690  -0.379094   0.392365  -0.195224
     44      -0.002090  -0.104772  -0.071435   0.204724  -0.225672  -0.446854
                 36         37         38         39         40         41    
      0       0.001340  -0.004342   0.005252   0.001024  -0.000868  -0.000489
      1      -0.045872  -0.009996   0.012307   0.000900  -0.001669   0.003162
      2      -0.006689   0.059252  -0.071854   0.000267  -0.000404   0.000324
      3       0.000142  -0.000024   0.000046  -0.000135  -0.000001   0.000399
      4      -0.002746   0.000031  -0.000028  -0.000003   0.000069  -0.000022
      5      -0.000493   0.000057  -0.000006  -0.000010   0.000012   0.000025
      6       0.002518  -0.005161  -0.004371   0.001136   0.000984  -0.000133
      7      -0.045233  -0.012561  -0.011130  -0.000867  -0.001573  -0.002527
      8      -0.007702   0.070994   0.060018  -0.000109  -0.000252  -0.000269
      9       0.002254   0.000408   0.000355  -0.030558  -0.029609  -0.033322
     10       0.003204   0.001102   0.000897   0.018436   0.017922  -0.047528
     11       0.000707  -0.006150  -0.004761   0.001025   0.001004  -0.009154
     12      -0.026479   0.037634   0.038967  -0.001756  -0.002142  -0.002113
     13       0.199883  -0.240584  -0.196696   0.002564   0.004621   0.007107
     14       0.449435  -0.485973  -0.401487   0.004339   0.008576   0.013991
     15       0.031799   0.023551   0.012652  -0.001210  -0.001058  -0.000369
     16       0.351975   0.390351   0.328212   0.003669   0.007066   0.013578
     17      -0.352800  -0.361248  -0.307608  -0.003047  -0.006253  -0.012590
     18      -0.001402  -0.005491  -0.003493  -0.026202  -0.025424   0.009453
     19      -0.003586  -0.034857  -0.029537  -0.287130  -0.278473   0.203021
     20       0.005974   0.033365   0.027609   0.279441   0.270985  -0.206751
     21      -0.026509   0.000594   0.000093   0.360502   0.350397   0.412007
     22      -0.023732   0.000780   0.000328   0.241179   0.233829   0.265943
     23      -0.006306  -0.002156  -0.002143   0.070582   0.068496   0.079296
     24      -0.000440  -0.000070  -0.001173   0.020231   0.019607  -0.022855
     25      -0.000938   0.020479   0.017647  -0.167459  -0.162414   0.102937
     26      -0.006411   0.043857   0.036328  -0.361781  -0.350842   0.237578
     27      -0.002540   0.000433  -0.000471  -0.028112   0.028919  -0.045171
     28       0.003096   0.000903  -0.001014  -0.019518   0.020138   0.055329
     29       0.000255  -0.005197   0.005784  -0.005507   0.005679   0.004649
     30       0.001380  -0.006863   0.006915  -0.044973   0.046327   0.025368
     31      -0.000589   0.016819  -0.020857   0.161552  -0.166375  -0.126781
     32      -0.005702   0.036210  -0.043228   0.348505  -0.358865  -0.292276
     33       0.028851  -0.000515   0.000433   0.370828  -0.382670   0.528380
     34      -0.022264   0.000815  -0.000909  -0.212889   0.219111  -0.292120
     35      -0.002045  -0.001796   0.002454  -0.012142   0.012426  -0.015692
     36       0.000679   0.002128  -0.001307   0.000350  -0.000347  -0.013026
     37      -0.004045  -0.028729   0.034965   0.277260  -0.285499  -0.247088
     38       0.006663   0.028361  -0.033400  -0.272615   0.280686   0.251632
     39       0.002852   0.006487  -0.017085  -0.001397   0.001640  -0.001536
     40       0.360465   0.322315  -0.385673  -0.003649   0.007346  -0.017401
     41      -0.364177  -0.298886   0.360142   0.002769  -0.006217   0.015880
     42      -0.055550   0.046150  -0.045848  -0.000882   0.000518   0.001065
     43       0.196908  -0.203006   0.240322  -0.002544   0.004821  -0.009371
     44       0.443208  -0.409383   0.490278  -0.004370   0.009008  -0.018437
                  42         43         44    
      0       0.000777  -0.000278  -0.000636
      1      -0.003018  -0.000644  -0.001390
      2      -0.000322   0.003759   0.008267
      3       0.000025   0.000005   0.000025
      4       0.000350  -0.000014   0.000041
      5       0.000057   0.000108  -0.000276
      6      -0.000572   0.000586  -0.000245
      7      -0.003620   0.001409  -0.000598
      8      -0.000460  -0.008344   0.003617
      9      -0.040511   0.004499  -0.001995
     10      -0.057883   0.012970  -0.005752
     11      -0.011123  -0.083722   0.037145
     12      -0.001504  -0.007207   0.002205
     13       0.011552   0.024185  -0.011203
     14       0.022522   0.051600  -0.023300
     15       0.001386   0.000587   0.000687
     16       0.021219  -0.039758   0.017997
     17      -0.019251   0.038897  -0.017157
     18       0.011303  -0.034164   0.015032
     19       0.247742  -0.457266   0.203003
     20      -0.252349   0.425848  -0.189012
     21       0.501312   0.020105  -0.008943
     22       0.323516   0.015098  -0.006712
     23       0.096476  -0.011896   0.005266
     24      -0.028103  -0.039714   0.017773
     25       0.125487   0.287134  -0.127505
     26       0.289728   0.587631  -0.260852
     27       0.036990  -0.003392  -0.007650
     28      -0.045382  -0.005901  -0.013259
     29      -0.003812   0.037061   0.083430
     30      -0.020655   0.030899   0.069294
     31       0.104130  -0.126829  -0.285833
     32       0.240137  -0.259265  -0.584114
     33      -0.432983   0.007481   0.017024
     34       0.239324  -0.005680  -0.012883
     35       0.012850   0.006675   0.015006
     36       0.010901   0.002203   0.005244
     37       0.203008   0.203025   0.457253
     38      -0.206746  -0.190619  -0.429145
     39       0.000043   0.002535   0.003524
     40       0.018030   0.017491   0.040069
     41      -0.016451  -0.017042  -0.038500
     42      -0.002577   0.000338   0.003173
     43       0.009996  -0.010529  -0.024625
     44       0.019444  -0.022912  -0.052132


-----------
IR SPECTRUM
-----------

 Mode    freq (cm**-1)   T**2         TX         TY         TZ
-------------------------------------------------------------------
   6:       101.90    0.010392  ( -0.006276  -0.019406   0.099878)
   7:       106.79    4.025976  (  0.140155   0.362073  -1.968562)
   8:       191.91    0.663880  (  0.035613  -0.801767  -0.140643)
   9:       255.06    0.000918  ( -0.004375   0.008841  -0.028655)
  10:       259.64    1.607545  (  0.090166   0.221101  -1.245203)
  11:       432.78    2.793608  ( -1.665603  -0.050267  -0.129795)
  12:       441.55    0.067526  ( -0.016076   0.255438   0.044933)
  13:       826.50    0.000068  (  0.007261  -0.003380   0.001912)
  14:       837.52    0.705512  ( -0.064957  -0.138228   0.825945)
  15:       866.58    7.510529  (  0.121282  -2.694367  -0.486008)
  16:       952.98    4.869417  (  2.198903   0.067214   0.172407)
  17:      1060.63   10.542902  (  0.137798  -3.192013  -0.578766)
  18:      1105.78    9.259347  (  3.032357   0.089955   0.236788)
  19:      1175.61  203.080775  ( 14.200343   0.427087   1.117417)
  20:      1184.07    0.000245  ( -0.013671  -0.007646   0.000222)
  21:      1191.39   20.918660  ( -0.197822   4.495705   0.817414)
  22:      1216.55   12.372512  ( -0.269273  -0.639921   3.448261)
  23:      1307.40    0.000059  (  0.004540   0.000280  -0.006224)
  24:      1311.98    2.769109  ( -0.131008  -0.304013   1.630804)
  25:      1400.00   61.550711  (  7.817515   0.241062   0.615676)
  26:      1427.63    0.184474  ( -0.037112   0.423333   0.062334)
  27:      1438.78   30.193175  ( -5.475623  -0.163110  -0.429091)
  28:      1473.01    5.964258  ( -0.099061   2.400595   0.437709)
  29:      1513.84    1.784841  (  0.089733   0.235803  -1.311940)
  30:      1513.87    7.265477  ( -0.193622  -0.486844   2.644044)
  31:      1528.82    3.058690  (  1.742657   0.054570   0.137325)
  32:      1531.62    3.437522  (  0.081293  -1.824550  -0.319267)
  33:      1548.48    3.869676  ( -1.960399  -0.054828  -0.153320)
  34:      1569.00    0.253717  ( -0.026443   0.496394   0.081304)
  35:      2957.84   10.770613  ( -3.263234  -0.131853  -0.323317)
  36:      2971.72  109.747628  (  0.464647 -10.329972  -1.680298)
  37:      2986.70  140.892263  ( -0.867014  -1.989922  11.669651)
  38:      2987.44    1.145739  (  0.117409   0.089296  -1.060180)
  39:      3055.41   29.965445  ( -5.456775  -0.114763  -0.419377)
  40:      3055.88    7.616370  ( -0.034445   2.716694   0.484519)
  41:      3125.47   20.772220  ( -4.524590   0.485922  -0.253344)
  42:      3125.77   40.586113  ( -0.184320  -6.301769  -0.916433)
  43:      3130.67    8.116683  (  0.072427   0.430058  -2.815402)
  44:      3131.02   54.610691  ( -0.580798  -1.153065   7.276249)

The first frequency considered to be a vibration is 6
The total number of vibrations considered is 39


--------------------------
THERMOCHEMISTRY AT 298.15K
--------------------------

Temperature         ... 298.15 K
Pressure            ... 1.00 atm
Total Mass          ... 74.12 AMU

Throughout the following assumptions are being made:
  (1) The electronic state is orbitally nondegenerate
  (2) There are no thermally accessible electronically excited states
  (3) Hindered rotations indicated by low frequency modes are not
      treated as such but are treated as vibrations and this may
      cause some error
  (4) All equations used are the standard statistical mechanics
      equations for an ideal gas
  (5) All vibrations are strictly harmonic

freq.     101.90  E(vib)   ...       0.46 
freq.     106.79  E(vib)   ...       0.45 
freq.     191.91  E(vib)   ...       0.36 
freq.     255.06  E(vib)   ...       0.30 
freq.     259.64  E(vib)   ...       0.30 
freq.     432.78  E(vib)   ...       0.17 
freq.     441.55  E(vib)   ...       0.17 
freq.     826.50  E(vib)   ...       0.04 
freq.     837.52  E(vib)   ...       0.04 
freq.     866.58  E(vib)   ...       0.04 
freq.     952.98  E(vib)   ...       0.03 
freq.    1060.63  E(vib)   ...       0.02 
freq.    1105.78  E(vib)   ...       0.02 
freq.    1175.61  E(vib)   ...       0.01 
freq.    1184.07  E(vib)   ...       0.01 
freq.    1191.39  E(vib)   ...       0.01 
freq.    1216.55  E(vib)   ...       0.01 
freq.    1307.40  E(vib)   ...       0.01 
freq.    1311.98  E(vib)   ...       0.01 
freq.    1400.00  E(vib)   ...       0.00 
freq.    1427.63  E(vib)   ...       0.00 
freq.    1438.78  E(vib)   ...       0.00 
freq.    1473.01  E(vib)   ...       0.00 
freq.    1513.84  E(vib)   ...       0.00 
freq.    1513.87  E(vib)   ...       0.00 
freq.    1528.82  E(vib)   ...       0.00 
freq.    1531.62  E(vib)   ...       0.00 
freq.    1548.48  E(vib)   ...       0.00 
freq.    1569.00  E(vib)   ...       0.00 
freq.    2957.84  E(vib)   ...       0.00 
freq.    2971.72  E(vib)   ...       0.00 
freq.    2986.70  E(vib)   ...       0.00 
freq.    2987.44  E(vib)   ...       0.00 
freq.    3055.41  E(vib)   ...       0.00 
freq.    3055.88  E(vib)   ...       0.00 
freq.    3125.47  E(vib)   ...       0.00 
freq.    3125.77  E(vib)   ...       0.00 
freq.    3130.67  E(vib)   ...       0.00 
freq.    3131.02  E(vib)   ...       0.00 

------------
INNER ENERGY
------------

The inner energy is: U= E(el) + E(ZPE) + E(vib) + E(rot) + E(trans)
    E(el)   - is the total energy from the electronic structure calculation
              = E(kin-el) + E(nuc-el) + E(el-el) + E(nuc-nuc)
    E(ZPE)  - the the zero temperature vibrational energy from the frequency calculation
    E(vib)  - the the finite temperature correction to E(ZPE) due to population
              of excited vibrational states
    E(rot)  - is the rotational thermal energy
    E(trans)- is the translational thermal energy

Summary of contributions to the inner energy U:
Electronic energy                ...   -233.50545131 Eh
Zero point energy                ...      0.13737260 Eh      86.20 kcal/mol
Thermal vibrational correction   ...      0.00396948 Eh       2.49 kcal/mol
Thermal rotational correction    ...      0.00141627 Eh       0.89 kcal/mol
Thermal translational correction ...      0.00141627 Eh       0.89 kcal/mol
-----------------------------------------------------------------------
Total thermal energy                   -233.36127669 Eh


Summary of corrections to the electronic energy:
(perhaps to be used in another calculation)
Total thermal correction                  0.00680202 Eh       4.27 kcal/mol
Non-thermal (ZPE) correction              0.13737260 Eh      86.20 kcal/mol
-----------------------------------------------------------------------
Total correction                          0.14417462 Eh      90.47 kcal/mol


--------
ENTHALPY
--------

The enthalpy is H = U + kB*T
                kB is Boltzmann's constant
Total free energy                 ...   -233.36127669 Eh 
Thermal Enthalpy correction       ...      0.00094421 Eh       0.59 kcal/mol
-----------------------------------------------------------------------
Total Enthalpy                    ...   -233.36033248 Eh


Note: Rotational entropy computed according to Herzberg 
Infrared and Raman Spectra, Chapter V,1, Van Nostrand Reinhold, 1945 
Point Group:  C1, Symmetry Number:   1  
Rotational constants in cm-1:     0.595815     0.074437     0.069641 

Vibrational entropy computed according to the QRRHO of S. Grimme
Chem.Eur.J. 2012 18 9955


-------
ENTROPY
-------

The entropy contributions are T*S = T*(S(el)+S(vib)+S(rot)+S(trans))
     S(el)   - electronic entropy
     S(vib)  - vibrational entropy
     S(rot)  - rotational entropy
     S(trans)- translational entropy
The entropies will be listed as mutliplied by the temperature to get
units of energy

Electronic entropy                ...      0.00000000 Eh      0.00 kcal/mol
Vibrational entropy               ...      0.00693958 Eh      4.35 kcal/mol
Rotational entropy                ...      0.01223950 Eh      7.68 kcal/mol
Translational entropy             ...      0.01844715 Eh     11.58 kcal/mol
-----------------------------------------------------------------------
Final entropy term                ...      0.03762623 Eh     23.61 kcal/mol


-------------------
GIBBS FREE ENTHALPY
-------------------

The Gibbs free enthalpy is G = H - T*S

Total enthalpy                    ...   -233.36033248 Eh 
Total entropy correction          ...     -0.03762623 Eh    -23.61 kcal/mol
-----------------------------------------------------------------------
Final Gibbs free enthalpy         ...   -233.39795871 Eh

For completeness - the Gibbs free enthalpy minus the electronic energy
G-E(el)                           ...      0.10749260 Eh     67.45 kcal/mol


Timings for individual modules:

Sum of individual times         ...      227.595 sec (=   3.793 min)
GTO integral calculation        ...        0.292 sec (=   0.005 min)   0.1 %
SCF iterations                  ...       13.541 sec (=   0.226 min)   5.9 %
Analytical frequency calculation...      213.762 sec (=   3.563 min)  93.9 %
                             ****ORCA TERMINATED NORMALLY****
TOTAL RUN TIME: 0 days 0 hours 3 minutes 48 seconds 35 msec
