
                                 *****************
                                 * O   R   C   A *
                                 *****************

           --- An Ab Initio, DFT and Semiempirical electronic structure package ---

                  #######################################################
                  #                        -***-                        #
                  #          Department of theory and spectroscopy      #
                  #               Directorship: Frank Neese             #
                  #        Max Planck Institute fuer Kohlenforschung    #
                  #                Kaiser Wilhelm Platz 1               #
                  #                 D-45470 Muelheim/Ruhr               #
                  #                      Germany                        #
                  #                                                     #
                  #                  All rights reserved                #
                  #                        -***-                        #
                  #######################################################


                         Program Version 4.1.0  - RELEASE  -


 With contributions from (in alphabetic order):
   Daniel Aravena         : Magnetic Properties
   Michael Atanasov       : Ab Initio Ligand Field Theory
   Alexander A. Auer      : GIAO ZORA
   Ute Becker             : Parallelization
   Giovanni Bistoni       : ED, Open-shell LED
   Martin Brehm           : Molecular dynamics
   Dmytro Bykov           : SCF Hessian
   Vijay G. Chilkuri      : MRCI spin determinant printing
   Dipayan Datta          : RHF DLPNO-CCSD density
   Achintya Kumar Dutta   : EOM-CC, STEOM-CC
   Dmitry Ganyushin       : Spin-Orbit,Spin-Spin,Magnetic field MRCI
   Miquel Garcia          : C-PCM Hessian
   Yang Guo               : DLPNO-NEVPT2, CIM, IAO-localization
   Andreas Hansen         : Spin unrestricted coupled pair/coupled cluster methods
   Benjamin Helmich-Paris : CASSCF linear response (MC-RPA)
   Lee Huntington         : MR-EOM, pCC
   Robert Izsak           : Overlap fitted RIJCOSX, COSX-SCS-MP3, EOM
   Christian Kollmar      : KDIIS, OOCD, Brueckner-CCSD(T), CCSD density
   Simone Kossmann        : Meta GGA functionals, TD-DFT gradient, OOMP2, MP2 Hessian
   Martin Krupicka        : AUTO-CI
   Lucas Lang             : DCDCAS
   Dagmar Lenk            : GEPOL surface, SMD
   Dimitrios Liakos       : Extrapolation schemes; parallel MDCI
   Dimitrios Manganas     : ROCIS; embedding schemes
   Dimitrios Pantazis     : SARC Basis sets
   Taras Petrenko         : DFT Hessian,TD-DFT gradient, ASA, ECA, R-Raman, ABS, FL, XAS/XES, NRVS
   Peter Pinski           : DLPNO-MP2, DLPNO-MP2 Gradient
   Christoph Reimann      : Effective Core Potentials
   Marius Retegan         : Local ZFS, SOC
   Christoph Riplinger    : Optimizer, TS searches, QM/MM, DLPNO-CCSD(T), (RO)-DLPNO pert. Triples
   Tobias Risthaus        : Range-separated hybrids, TD-DFT gradient, RPA, STAB
   Michael Roemelt        : Restricted open shell CIS
   Masaaki Saitow         : Open-shell DLPNO
   Barbara Sandhoefer     : DKH picture change effects
   Avijit Sen             : IP-ROCIS
   Kantharuban Sivalingam : CASSCF convergence, NEVPT2, FIC-MRCI
   Bernardo de Souza      : ESD, SOC TD-DFT
   Georgi Stoychev        : AutoAux, RI-MP2 NMR
   Willem Van den Heuvel  : Paramagnetic NMR
   Boris Wezisla          : Elementary symmetry handling
   Frank Wennmohs         : Technical directorship


 We gratefully acknowledge several colleagues who have allowed us to
 interface, adapt or use parts of their codes:
   Stefan Grimme, W. Hujo, H. Kruse,             : VdW corrections, initial TS optimization,
                  C. Bannwarth                     DFT functionals, gCP, sTDA/sTD-DF
   Ed Valeev                                     : LibInt (2-el integral package), F12 methods
   Garnet Chan, S. Sharma, J. Yang, R. Olivares  : DMRG
   Ulf Ekstrom                                   : XCFun DFT Library
   Mihaly Kallay                                 : mrcc  (arbitrary order and MRCC methods)
   Andreas Klamt, Michael Diedenhofen            : otool_cosmo (COSMO solvation model)
   Jiri Pittner, Ondrej Demel                    : Mk-CCSD
   Frank Weinhold                                : gennbo (NPA and NBO analysis)
   Christopher J. Cramer and Donald G. Truhlar   : smd solvation model
   Lars Goerigk                                  : TD-DFT with DH, B97 family of functionals
   V. Asgeirsson, H. Jonsson                     : NEB implementation
   FAccTs GmbH                                   : IRC, NEB, NEB-TS, Multilevel


 Your calculation uses the libint2 library for the computation of 2-el integrals
 For citations please refer to: http://libint.valeyev.net

 This ORCA versions uses:
   CBLAS   interface :  Fast vector & matrix operations
   LAPACKE interface :  Fast linear algebra routines
   SCALAPACK package :  Parallel linear algebra routines




***************************************
The coordinates will be read from file: /Users/lailaal-madhagi/Desktop/Testing_XAS_Analysis_code/Biuret/Biuret_geom.xyz
***************************************


----- Orbital basis set information -----
Your calculation utilizes the basis: 6-31G*
   H-He, Li-Ne : W. J. Hehre, R. Ditchfield and J.A. Pople, J. Chem. Phys. 56, 2257 (1972).
                 Note: He and Ne are unpublished basis sets taken from the Gaussian program.
                 Note: Li and B from J. D. Dill and J. A. Pople, J. Chem. Phys. 62, 2921 (1975).
   Na - Ar     : M. M. Francl, W. J. Pietro, W. J. Hehre, J. S. Binkley, M. S. Gordon, 
                 D. J. DeFrees and J. A. Pople, J. Chem. Phys. 77, 3654 (1982).
   K - Zn      : V. A. Rassolov, J. A. Pople, M. A. Ratner, and T. L. Windus, J. Chem. Phys. 109, 1223 (1998).

================================================================================
                                        WARNINGS
                       Please study these warnings very carefully!
================================================================================


WARNING: Geometry Optimization
  ===> : Switching off AutoStart
         For restart on a previous wavefunction, please use MOREAD

INFO   : the flag for use of LIBINT has been found!

================================================================================
                                       INPUT FILE
================================================================================
NAME = /Users/lailaal-madhagi/Desktop/Testing_XAS_Analysis_code/Biuret//Results_dir_Biuret_geom_element_C_2019-11-07_22-31-28//GTE1_Biuret_geom_2019-11-07_22-31-39//opt.inp
|  1> ! B3LYP 6-31G* TIGHTSCF Grid3 FinalGrid5 Opt 
|  2> !NormalPrint 
|  3> %output 
|  4> Print[P_Basis] 2 
|  5> Print[P_MOS] 1 
|  6> end 
|  7> *xyzfile 0 1 /Users/lailaal-madhagi/Desktop/Testing_XAS_Analysis_code/Biuret/Biuret_geom.xyz                           ****END OF INPUT****
================================================================================

                       *****************************
                       * Geometry Optimization Run *
                       *****************************

Geometry optimization settings:
Update method            Update   .... BFGS
Choice of coordinates    CoordSys .... Z-matrix Internals
Initial Hessian          InHess   .... Almoef's Model

Convergence Tolerances:
Energy Change            TolE     ....  5.0000e-06 Eh
Max. Gradient            TolMAXG  ....  3.0000e-04 Eh/bohr
RMS Gradient             TolRMSG  ....  1.0000e-04 Eh/bohr
Max. Displacement        TolMAXD  ....  4.0000e-03 bohr
RMS Displacement         TolRMSD  ....  2.0000e-03 bohr

------------------------------------------------------------------------------
                        ORCA OPTIMIZATION COORDINATE SETUP
------------------------------------------------------------------------------

The optimization will be done in new redundant internal coordinates
Making redundant internal coordinates   ...  (new redundants) done
Evaluating the initial hessian          ...  (Almloef) done
Evaluating the coordinates              ...  done
Calculating the B-matrix                .... done
Calculating the G-matrix                .... done
Diagonalizing the G-matrix              .... done
The first mode is                       ....   12
The number of degrees of freedom        ....   30

    -----------------------------------------------------------------
                    Redundant Internal Coordinates


    -----------------------------------------------------------------
         Definition                    Initial Value    Approx d2E/dq
    -----------------------------------------------------------------
      1. B(C   1,N   0)                  1.3545         0.637463   
      2. B(N   2,C   1)                  1.3678         0.607167   
      3. B(C   3,N   2)                  1.3678         0.607190   
      4. B(N   4,C   3)                  1.3545         0.637440   
      5. B(O   5,C   1)                  1.2235         1.031580   
      6. B(O   6,C   3)                  1.2235         1.031568   
      7. B(H   7,N   2)                  1.0320         0.399140   
      8. B(H   8,N   0)                  1.0306         0.401184   
      9. B(H   9,N   0)                  1.0310         0.400654   
     10. B(H  10,N   4)                  1.0306         0.401201   
     11. B(H  11,N   4)                  1.0309         0.400670   
     12. A(C   1,N   0,H   9)          120.4805         0.355683   
     13. A(H   8,N   0,H   9)          118.5095         0.295983   
     14. A(C   1,N   0,H   8)          121.0100         0.355763   
     15. A(N   0,C   1,N   2)          119.9213         0.428938   
     16. A(N   2,C   1,O   5)          121.1119         0.468066   
     17. A(N   0,C   1,O   5)          118.9668         0.472267   
     18. A(C   3,N   2,H   7)          117.6554         0.352536   
     19. A(C   1,N   2,H   7)          117.6544         0.352534   
     20. A(C   1,N   2,C   3)          124.6902         0.425215   
     21. A(N   4,C   3,O   6)          118.9670         0.472263   
     22. A(N   2,C   3,O   6)          121.1118         0.468069   
     23. A(N   2,C   3,N   4)          119.9212         0.428938   
     24. A(H  10,N   4,H  11)          118.5104         0.295987   
     25. A(C   3,N   4,H  11)          120.4798         0.355683   
     26. A(C   3,N   4,H  10)          121.0098         0.355763   
     27. D(N   2,C   1,N   0,H   8)     -0.0002         0.033053   
     28. D(O   5,C   1,N   0,H   8)   -179.9997         0.033053   
     29. D(O   5,C   1,N   0,H   9)      0.0004         0.033053   
     30. D(N   2,C   1,N   0,H   9)    179.9999         0.033053   
     31. D(C   3,N   2,C   1,O   5)      0.0002         0.029757   
     32. D(H   7,N   2,C   1,N   0)      0.0008         0.029757   
     33. D(C   3,N   2,C   1,N   0)   -179.9993         0.029757   
     34. D(H   7,N   2,C   1,O   5)   -179.9996         0.029757   
     35. D(O   6,C   3,N   2,H   7)   -179.9993         0.029759   
     36. D(O   6,C   3,N   2,C   1)      0.0008         0.029759   
     37. D(N   4,C   3,N   2,H   7)     -0.0003         0.029759   
     38. D(N   4,C   3,N   2,C   1)    179.9998         0.029759   
     39. D(H  11,N   4,C   3,N   2)   -179.9999         0.033050   
     40. D(H  10,N   4,C   3,O   6)    180.0000         0.033050   
     41. D(H  10,N   4,C   3,N   2)      0.0010         0.033050   
     42. D(H  11,N   4,C   3,O   6)     -0.0009         0.033050   
    -----------------------------------------------------------------

Number of atoms                         .... 12
Number of degrees of freedom            .... 42

         *************************************************************
         *                GEOMETRY OPTIMIZATION CYCLE   1            *
         *************************************************************
---------------------------------
CARTESIAN COORDINATES (ANGSTROEM)
---------------------------------
  N     -3.468590    0.011030   -0.317060
  C     -2.328960    0.723900   -0.150240
  N     -1.124510    0.079160   -0.083430
  C      0.082750    0.700220    0.082800
  N      1.219160   -0.035000    0.135900
  O     -2.399680    1.942150   -0.061710
  O      0.158890    1.917030    0.185540
  H     -1.126810   -0.949650   -0.164240
  H     -3.445570   -1.016330   -0.395280
  H     -4.381050    0.488130   -0.368560
  H      1.191560   -1.061850    0.052770
  H      2.133690    0.424170    0.260940

----------------------------
CARTESIAN COORDINATES (A.U.)
----------------------------
  NO LB      ZA    FRAG     MASS         X           Y           Z
   0 N     7.0000    0    14.007   -6.554685    0.020844   -0.599157
   1 C     6.0000    0    12.011   -4.401097    1.367973   -0.283912
   2 N     7.0000    0    14.007   -2.125016    0.149591   -0.157660
   3 C     6.0000    0    12.011    0.156375    1.323224    0.156469
   4 N     7.0000    0    14.007    2.303879   -0.066140    0.256814
   5 O     8.0000    0    15.999   -4.534738    3.670132   -0.116615
   6 O     8.0000    0    15.999    0.300259    3.622662    0.350620
   7 H     1.0000    0     1.008   -2.129362   -1.794578   -0.310369
   8 H     1.0000    0     1.008   -6.511184   -1.920585   -0.746971
   9 H     1.0000    0     1.008   -8.278985    0.922432   -0.696477
  10 H     1.0000    0     1.008    2.251722   -2.006606    0.099721
  11 H     1.0000    0     1.008    4.032090    0.801565    0.493105

--------------------------------
INTERNAL COORDINATES (ANGSTROEM)
--------------------------------
 N      0   0   0     0.000000000000     0.00000000     0.00000000
 C      1   0   0     1.354536483894     0.00000000     0.00000000
 N      2   1   0     1.367791302136   119.92129870     0.00000000
 C      3   2   1     1.367780919629   124.69022824   180.00068774
 N      4   3   2     1.354546324974   119.92118892   179.99980824
 O      2   1   3     1.223508047297   118.96678128   180.00046559
 O      4   3   2     1.223511088344   121.11180645     0.00000000
 H      3   2   1     1.031981376867   117.65438986     0.00000000
 H      1   2   3     1.030590538672   121.01003294     0.00000000
 H      1   2   3     1.030950974392   120.48049567   179.99990473
 H      5   4   3     1.030579099051   121.00983157     0.00000000
 H      5   4   3     1.030939964983   120.47975150   180.00009760

---------------------------
INTERNAL COORDINATES (A.U.)
---------------------------
 N      0   0   0     0.000000000000     0.00000000     0.00000000
 C      1   0   0     2.559702992964     0.00000000     0.00000000
 N      2   1   0     2.584750969397   119.92129870     0.00000000
 C      3   2   1     2.584731349301   124.69022824   180.00068774
 N      4   3   2     2.559721589910   119.92118892   179.99980824
 O      2   1   3     2.312095132040   118.96678128   180.00046559
 O      4   3   2     2.312100878786   121.11180645     0.00000000
 H      3   2   1     1.950162177585   117.65438986     0.00000000
 H      1   2   3     1.947533874300   121.01003294     0.00000000
 H      1   2   3     1.948214999100   120.48049567   179.99990473
 H      5   4   3     1.947512256549   121.00983157     0.00000000
 H      5   4   3     1.948194194333   120.47975150   180.00009760

---------------------
BASIS SET INFORMATION
---------------------
There are 4 groups of distinct atoms

 Group   1 Type N   : 10s4p1d contracted to 3s2p1d pattern {631/31/1}
 Group   2 Type C   : 10s4p1d contracted to 3s2p1d pattern {631/31/1}
 Group   3 Type O   : 10s4p1d contracted to 3s2p1d pattern {631/31/1}
 Group   4 Type H   : 4s contracted to 2s pattern {31}

Atom   0N    basis set group =>   1
Atom   1C    basis set group =>   2
Atom   2N    basis set group =>   1
Atom   3C    basis set group =>   2
Atom   4N    basis set group =>   1
Atom   5O    basis set group =>   3
Atom   6O    basis set group =>   3
Atom   7H    basis set group =>   4
Atom   8H    basis set group =>   4
Atom   9H    basis set group =>   4
Atom  10H    basis set group =>   4
Atom  11H    basis set group =>   4

-------------------------
BASIS SET IN INPUT FORMAT
-------------------------

 # Basis set for element : H 
 NewGTO H 
 S 3 
   1      18.7311370000      0.0334945995
   2       2.8253937000      0.2347269467
   3       0.6401217000      0.8137573184
 S 1 
   1       0.1612778000      1.0000000000
  end;

 # Basis set for element : C 
 NewGTO C 
 S 6 
   1    3047.5249000000      0.0018347002
   2     457.3695100000      0.0140373012
   3     103.9486900000      0.0688426061
   4      29.2101550000      0.2321844206
   5       9.2866630000      0.4679413416
   6       3.1639270000      0.3623120322
 S 3 
   1       7.8682724000     -0.1193324086
   2       1.8812885000     -0.1608542116
   3       0.5442493000      1.1434564826
 P 3 
   1       7.8682724000      0.0689990956
   2       1.8812885000      0.3164239798
   3       0.5442493000      0.7443082524
 S 1 
   1       0.1687144000      1.0000000000
 P 1 
   1       0.1687144000      1.0000000000
 D 1 
   1       0.8000000000      1.0000000000
  end;

 # Basis set for element : N 
 NewGTO N 
 S 6 
   1    4173.5110000000      0.0018347994
   2     627.4579000000      0.0139949958
   3     142.9021000000      0.0685869792
   4      40.2343300000      0.2322409295
   5      12.8202100000      0.4690698576
   6       4.3904370000      0.3604548906
 S 3 
   1      11.6263580000     -0.1149610229
   2       2.7162800000     -0.1691180337
   3       0.7722180000      1.1458522281
 P 3 
   1      11.6263580000      0.0675800232
   2       2.7162800000      0.3239071114
   3       0.7722180000      0.7408952549
 S 1 
   1       0.2120313000      1.0000000000
 P 1 
   1       0.2120313000      1.0000000000
 D 1 
   1       0.8000000000      1.0000000000
  end;

 # Basis set for element : O 
 NewGTO O 
 S 6 
   1    5484.6717000000      0.0018310998
   2     825.2349500000      0.0139500985
   3     188.0469600000      0.0684450927
   4      52.9645000000      0.2327142753
   5      16.8975700000      0.4701929501
   6       5.7996353000      0.3585208619
 S 3 
   1      15.5396160000     -0.1107775038
   2       3.5999336000     -0.1480263051
   3       1.0137618000      1.1307670390
 P 3 
   1      15.5396160000      0.0708742995
   2       3.5999336000      0.3397527978
   3       1.0137618000      0.7271585953
 S 1 
   1       0.2700058000      1.0000000000
 P 1 
   1       0.2700058000      1.0000000000
 D 1 
   1       0.8000000000      1.0000000000
  end;

------------------------------------------------------------------------------
                           ORCA GTO INTEGRAL CALCULATION
------------------------------------------------------------------------------

                         BASIS SET STATISTICS AND STARTUP INFO

 # of primitive gaussian shells          ...  125
 # of primitive gaussian functions       ...  209
 # of contracted shells                  ...   52
 # of contracted basis functions         ...  108
 Highest angular momentum                ...    2
 Maximum contraction depth               ...    6
 Integral package used                   ... LIBINT
 Integral threshhold            Thresh   ...  2.500e-11
 Primitive cut-off              TCut     ...  2.500e-12


------------------------------ INTEGRAL EVALUATION ----------------------------


 * One electron integrals 
 Pre-screening matrix                    ... done
 Shell pair data                         ... done (   0.002 sec)

-------------------------------------------------------------------------------
                                 ORCA SCF
-------------------------------------------------------------------------------

------------
SCF SETTINGS
------------
Hamiltonian:
 Density Functional     Method          .... DFT(GTOs)
 Exchange Functional    Exchange        .... B88
   X-Alpha parameter    XAlpha          ....  0.666667
   Becke's b parameter  XBeta           ....  0.004200
 Correlation Functional Correlation     .... LYP
 LDA part of GGA corr.  LDAOpt          .... VWN-5
 Gradients option       PostSCFGGA      .... off
 Hybrid DFT is turned on
   Fraction HF Exchange ScalHFX         ....  0.200000
   Scaling of DF-GGA-X  ScalDFX         ....  0.720000
   Scaling of DF-GGA-C  ScalDFC         ....  0.810000
   Scaling of DF-LDA-C  ScalLDAC        ....  1.000000
   Perturbative correction              ....  0.000000
   Density functional embedding theory  .... OFF
   NL short-range parameter             ....  4.800000


General Settings:
 Integral files         IntName         .... /Users/lailaal-madhagi/Desktop/Testing_XAS_Analysis_code/Biuret//Results_dir_Biuret_geom_element_C_2019-11-07_22-31-28//GTE1_Biuret_geom_2019-11-07_22-31-39//opt
 Hartree-Fock type      HFTyp           .... RHF
 Total Charge           Charge          ....    0
 Multiplicity           Mult            ....    1
 Number of Electrons    NEL             ....   54
 Basis Dimension        Dim             ....  108
 Nuclear Repulsion      ENuc            ....    308.2997186870 Eh

Convergence Acceleration:
 DIIS                   CNVDIIS         .... on
   Start iteration      DIISMaxIt       ....    12
   Startup error        DIISStart       ....  0.200000
   # of expansion vecs  DIISMaxEq       ....     5
   Bias factor          DIISBfac        ....   1.050
   Max. coefficient     DIISMaxC        ....  10.000
 Newton-Raphson         CNVNR           .... off
 SOSCF                  CNVSOSCF        .... on
   Start iteration      SOSCFMaxIt      ....   150
   Startup grad/error   SOSCFStart      ....  0.003300
 Level Shifting         CNVShift        .... on
   Level shift para.    LevelShift      ....    0.2500
   Turn off err/grad.   ShiftErr        ....    0.0010
 Zerner damping         CNVZerner       .... off
 Static damping         CNVDamp         .... on
   Fraction old density DampFac         ....    0.7000
   Max. Damping (<1)    DampMax         ....    0.9800
   Min. Damping (>=0)   DampMin         ....    0.0000
   Turn off err/grad.   DampErr         ....    0.1000
 Fernandez-Rico         CNVRico         .... off

SCF Procedure:
 Maximum # iterations   MaxIter         ....   125
 SCF integral mode      SCFMode         .... Direct
   Integral package                     .... LIBINT
 Reset frequency        DirectResetFreq ....    20
 Integral Threshold     Thresh          ....  2.500e-11 Eh
 Primitive CutOff       TCut            ....  2.500e-12 Eh

Convergence Tolerance:
 Convergence Check Mode ConvCheckMode   .... Total+1el-Energy
 Convergence forced     ConvForced      .... 0
 Energy Change          TolE            ....  1.000e-08 Eh
 1-El. energy change                    ....  1.000e-05 Eh
 Orbital Gradient       TolG            ....  1.000e-05
 Orbital Rotation angle TolX            ....  1.000e-05
 DIIS Error             TolErr          ....  5.000e-07


Diagonalization of the overlap matrix:
Smallest eigenvalue                        ... 3.627e-03
Time for diagonalization                   ...    0.002 sec
Threshold for overlap eigenvalues          ... 1.000e-08
Number of eigenvalues below threshold      ... 0
Time for construction of square roots      ...    0.001 sec
Total time needed                          ...    0.003 sec

-------------------
DFT GRID GENERATION
-------------------

General Integration Accuracy     IntAcc      ...  4.340
Radial Grid Type                 RadialGrid  ... Gauss-Chebyshev
Angular Grid (max. acc.)         AngularGrid ... Lebedev-194
Angular grid pruning method      GridPruning ... 3 (G Style)
Weight generation scheme         WeightScheme... Becke
Basis function cutoff            BFCut       ...    1.0000e-11
Integration weight cutoff        WCut        ...    1.0000e-14
Grids for H and He will be reduced by one unit

# of grid points (after initial pruning)     ...  30916 (   0.0 sec)
# of grid points (after weights+screening)   ...  29186 (   0.0 sec)
nearest neighbour list constructed           ...    0.0 sec
Grid point re-assignment to atoms done       ...    0.0 sec
Grid point division into batches done        ...    0.0 sec
Reduced shell lists constructed in    0.2 sec

Total number of grid points                  ...    29186
Total number of batches                      ...      463
Average number of points per batch           ...       63
Average number of grid points per atom       ...     2432
Average number of shells per batch           ...    35.99 (69.21%)
Average number of basis functions per batch  ...    77.28 (71.56%)
Average number of large shells per batch     ...    28.11 (78.12%)
Average number of large basis fcns per batch ...    60.94 (78.85%)
Maximum spatial batch extension              ...  17.29, 20.63, 39.85 au
Average spatial batch extension              ...   2.84,  3.11,  3.80 au

Time for grid setup =    0.205 sec

------------------------------
INITIAL GUESS: MODEL POTENTIAL
------------------------------
Loading Hartree-Fock densities                     ... done
Calculating cut-offs                               ... done
Setting up the integral package                    ... done
Initializing the effective Hamiltonian             ... done
Starting the Coulomb interaction                   ... done (   0.0 sec)
Reading the grid                                   ... done
Mapping shells                                     ... done
Starting the XC term evaluation                    ... done (   0.2 sec)
  promolecular density results
     # of electrons  =     53.998574077
     EX              =    -47.927775228
     EC              =     -1.888306915
     EX+EC           =    -49.816082143
Transforming the Hamiltonian                       ... done (   0.0 sec)
Diagonalizing the Hamiltonian                      ... done (   0.0 sec)
Back transforming the eigenvectors                 ... done (   0.0 sec)
Now organizing SCF variables                       ... done
                      ------------------
                      INITIAL GUESS DONE (   0.5 sec)
                      ------------------
--------------
SCF ITERATIONS
--------------
               ***  Starting incremental Fock matrix formation  ***

                         ----------------------------
                         !        ITERATION     0   !
                         ----------------------------
   Total Energy        :    -393.334254003306 Eh
   Energy Change       :    -393.334254003306 Eh
   MAX-DP              :       0.146497731693
   RMS-DP              :       0.005912330821
   Actual Damping      :       0.7000
   Actual Level Shift  :       0.2500 Eh
   Int. Num. El.       :    54.00106735 (UP=   27.00053367 DN=   27.00053367)
   Exchange            :   -39.43286405
   Correlation         :    -2.25429014


                         ----------------------------
                         !        ITERATION     1   !
                         ----------------------------
   Total Energy        :    -393.529671622735 Eh
   Energy Change       :      -0.195417619429 Eh
   MAX-DP              :       0.077078700113
   RMS-DP              :       0.003503911815
   Actual Damping      :       0.7000
   Actual Level Shift  :       0.2500 Eh
   Int. Num. El.       :    54.00120951 (UP=   27.00060475 DN=   27.00060475)
   Exchange            :   -38.97277070
   Correlation         :    -2.24050705

                               ***Turning on DIIS***

                         ----------------------------
                         !        ITERATION     2   !
                         ----------------------------
   Total Energy        :    -393.591389652302 Eh
   Energy Change       :      -0.061718029567 Eh
   MAX-DP              :       0.073093513761
   RMS-DP              :       0.003870312823
   Actual Damping      :       0.0000
   Actual Level Shift  :       0.2500 Eh
   Int. Num. El.       :    54.00129756 (UP=   27.00064878 DN=   27.00064878)
   Exchange            :   -38.71400228
   Correlation         :    -2.23189698
   DIIS-Error          :       0.050012540820


                         ----------------------------
                         !        ITERATION     3   !
                         ----------------------------
   Total Energy        :    -393.705967782844 Eh
   Energy Change       :      -0.114578130542 Eh
   MAX-DP              :       0.066910225768
   RMS-DP              :       0.002627358899
   Actual Damping      :       0.0000
   Actual Level Shift  :       0.2500 Eh
   Int. Num. El.       :    54.00142544 (UP=   27.00071272 DN=   27.00071272)
   Exchange            :   -38.42770677
   Correlation         :    -2.22058712
   DIIS-Error          :       0.062108212086
   DIIS coefficients:
      0.61899   0.38101


                         ----------------------------
                         !        ITERATION     4   !
                         ----------------------------
   Total Energy        :    -393.725520013624 Eh
   Energy Change       :      -0.019552230780 Eh
   MAX-DP              :       0.012885721799
   RMS-DP              :       0.000649126220
   Actual Damping      :       0.0000
   Actual Level Shift  :       0.2500 Eh
   Int. Num. El.       :    54.00136949 (UP=   27.00068475 DN=   27.00068475)
   Exchange            :   -38.59485115
   Correlation         :    -2.22620424
   DIIS-Error          :       0.023289397912
   DIIS coefficients:
      0.37096   0.14609   0.48295


                         ----------------------------
                         !        ITERATION     5   !
                         ----------------------------
   Total Energy        :    -393.728034491175 Eh
   Energy Change       :      -0.002514477551 Eh
   MAX-DP              :       0.004670744230
   RMS-DP              :       0.000226474233
   Actual Damping      :       0.0000
   Actual Level Shift  :       0.2500 Eh
   Int. Num. El.       :    54.00135500 (UP=   27.00067750 DN=   27.00067750)
   Exchange            :   -38.61145291
   Correlation         :    -2.22724895
   DIIS-Error          :       0.004628061215
   DIIS coefficients:
      0.02484   0.02220  -0.15138   1.10434

                      *** Initiating the SOSCF procedure ***
                           *** Shutting down DIIS ***
                      *** Re-Reading the Fockian *** 
                      *** Removing any level shift *** 

                         ----------------------------
                         !        ITERATION     6   !
                         ----------------------------
   Total Energy        :    -393.728144930576 Eh
   Energy Change       :      -0.000110439400 Eh
   MAX-DP              :       0.002042918471
   RMS-DP              :       0.000090336936
   Orbital gradient    :       0.000871643716
   Orbital Rotation    :       0.000871643716
   Actual Damping      :       0.0000
   Int. Num. El.       :    54.00135315 (UP=   27.00067657 DN=   27.00067657)
   Exchange            :   -38.61682482
   Correlation         :    -2.22752450

               *** Restarting incremental Fock matrix formation ***

                         ----------------------------
                         !        ITERATION     7   !
                         ----------------------------
   Total Energy        :    -393.728158012494 Eh
   Energy Change       :      -0.000013081918 Eh
   MAX-DP              :       0.002078873102
   RMS-DP              :       0.000090502160
   Orbital gradient    :       0.000559440950
   Orbital Rotation    :       0.001991969335
   Actual Damping      :       0.0000
   Int. Num. El.       :    54.00135375 (UP=   27.00067688 DN=   27.00067688)
   Exchange            :   -38.61600323
   Correlation         :    -2.22751010


                         ----------------------------
                         !        ITERATION     8   !
                         ----------------------------
   Total Energy        :    -393.728160460292 Eh
   Energy Change       :      -0.000002447798 Eh
   MAX-DP              :       0.000747605061
   RMS-DP              :       0.000036825340
   Orbital gradient    :       0.000313870153
   Orbital Rotation    :       0.000885731927
   Actual Damping      :       0.0000
   Int. Num. El.       :    54.00135454 (UP=   27.00067727 DN=   27.00067727)
   Exchange            :   -38.61651406
   Correlation         :    -2.22752969


                         ----------------------------
                         !        ITERATION     9   !
                         ----------------------------
   Total Energy        :    -393.728160673367 Eh
   Energy Change       :      -0.000000213075 Eh
   MAX-DP              :       0.000525651569
   RMS-DP              :       0.000025955594
   Orbital gradient    :       0.000280367929
   Orbital Rotation    :       0.000467795593
   Actual Damping      :       0.0000
   Int. Num. El.       :    54.00135458 (UP=   27.00067729 DN=   27.00067729)
   Exchange            :   -38.61614711
   Correlation         :    -2.22752348


                         ----------------------------
                         !        ITERATION    10   !
                         ----------------------------
   Total Energy        :    -393.728161328777 Eh
   Energy Change       :      -0.000000655410 Eh
   MAX-DP              :       0.000188276170
   RMS-DP              :       0.000010274045
   Orbital gradient    :       0.000111494991
   Orbital Rotation    :       0.000181288609
   Actual Damping      :       0.0000
   Int. Num. El.       :    54.00135452 (UP=   27.00067726 DN=   27.00067726)
   Exchange            :   -38.61631649
   Correlation         :    -2.22751906


                         ----------------------------
                         !        ITERATION    11   !
                         ----------------------------
   Total Energy        :    -393.728161375677 Eh
   Energy Change       :      -0.000000046899 Eh
   MAX-DP              :       0.000162166747
   RMS-DP              :       0.000007530283
   Orbital gradient    :       0.000069172509
   Orbital Rotation    :       0.000147789567
   Actual Damping      :       0.0000
   Int. Num. El.       :    54.00135450 (UP=   27.00067725 DN=   27.00067725)
   Exchange            :   -38.61617896
   Correlation         :    -2.22751927


                         ----------------------------
                         !        ITERATION    12   !
                         ----------------------------
   Total Energy        :    -393.728161451962 Eh
   Energy Change       :      -0.000000076285 Eh
   MAX-DP              :       0.000040523911
   RMS-DP              :       0.000001533398
   Orbital gradient    :       0.000012488019
   Orbital Rotation    :       0.000021726007
   Actual Damping      :       0.0000
   Int. Num. El.       :    54.00135449 (UP=   27.00067724 DN=   27.00067724)
   Exchange            :   -38.61631227
   Correlation         :    -2.22752317


                         ----------------------------
                         !        ITERATION    13   !
                         ----------------------------
   Total Energy        :    -393.728161451652 Eh
   Energy Change       :       0.000000000310 Eh
   MAX-DP              :       0.000028797794
   RMS-DP              :       0.000001022697
   Orbital gradient    :       0.000013662674
   Orbital Rotation    :       0.000013746146
   Actual Damping      :       0.0000
   Int. Num. El.       :    54.00135453 (UP=   27.00067726 DN=   27.00067726)
   Exchange            :   -38.61623813
   Correlation         :    -2.22751965

                  ***Gradient check signals convergence***
              ***Rediagonalizing the Fockian in SOSCF/NRSCF***

               *****************************************************
               *                     SUCCESS                       *
               *           SCF CONVERGED AFTER  14 CYCLES          *
               *****************************************************

Setting up the final grid:

General Integration Accuracy     IntAcc      ...  5.010
Radial Grid Type                 RadialGrid  ... Gauss-Chebyshev
Angular Grid (max. acc.)         AngularGrid ... Lebedev-434
Angular grid pruning method      GridPruning ... 3 (G Style)
Weight generation scheme         WeightScheme... Becke
Basis function cutoff            BFCut       ...    1.0000e-11
Integration weight cutoff        WCut        ...    1.0000e-14
Grids for H and He will be reduced by one unit

# of grid points (after initial pruning)     ... 108310 (   0.0 sec)
# of grid points (after weights+screening)   ... 101485 (   0.1 sec)
nearest neighbour list constructed           ...    0.0 sec
Grid point re-assignment to atoms done       ...    0.0 sec
Grid point division into batches done        ...    0.6 sec
Reduced shell lists constructed in    0.9 sec

Total number of grid points                  ...   101485
Total number of batches                      ...     1593
Average number of points per batch           ...       63
Average number of grid points per atom       ...     8457
Average number of shells per batch           ...    33.14 (63.73%)
Average number of basis functions per batch  ...    71.02 (65.76%)
Average number of large shells per batch     ...    25.33 (76.43%)
Average number of large basis fcns per batch ...    54.73 (77.06%)
Maximum spatial batch extension              ...  15.36, 20.31, 23.80 au
Average spatial batch extension              ...   2.00,  2.09,  2.36 au

Final grid set up in    1.1 sec
Final integration                            ... done (   0.6 sec)
Change in XC energy                          ...     0.000088784
Integrated number of electrons               ...    54.000004966
Previous integrated no of electrons          ...    54.001354511

----------------
TOTAL SCF ENERGY
----------------

Total Energy       :         -393.72807267 Eh          -10713.88554 eV

Components:
Nuclear Repulsion  :          308.29971869 Eh            8389.26185 eV
Electronic Energy  :         -702.02779136 Eh          -19103.14739 eV
One Electron Energy:        -1148.99886675 Eh          -31265.84869 eV
Two Electron Energy:          446.97107539 Eh           12162.70130 eV

Virial components:
Potential Energy   :         -785.16013442 Eh          -21365.29345 eV
Kinetic Energy     :          391.43206175 Eh           10651.40791 eV
Virial Ratio       :            2.00586567


DFT components:
N(Alpha)           :       27.000002483012 electrons
N(Beta)            :       27.000002483012 electrons
N(Total)           :       54.000004966024 electrons
E(X)               :      -38.616191540906 Eh       
E(C)               :       -2.227499986981 Eh       
E(XC)              :      -40.843691527888 Eh       
DFET-embed. en.    :        0.000000000000 Eh       

---------------
SCF CONVERGENCE
---------------

  Last Energy change         ...   -3.6696e-09  Tolerance :   1.0000e-08
  Last MAX-Density change    ...    7.2757e-06  Tolerance :   1.0000e-07
  Last RMS-Density change    ...    2.3493e-07  Tolerance :   5.0000e-09
  Last Orbital Gradient      ...    2.0724e-06  Tolerance :   1.0000e-05
  Last Orbital Rotation      ...    2.5178e-06  Tolerance :   1.0000e-05

             **** THE GBW FILE WAS UPDATED (/Users/lailaal-madhagi/Desktop/Testing_XAS_Analysis_code/Biuret//Results_dir_Biuret_geom_element_C_2019-11-07_22-31-28//GTE1_Biuret_geom_2019-11-07_22-31-39//opt.gbw) ****
             **** DENSITY FILE WAS UPDATED (/Users/lailaal-madhagi/Desktop/Testing_XAS_Analysis_code/Biuret//Results_dir_Biuret_geom_element_C_2019-11-07_22-31-28//GTE1_Biuret_geom_2019-11-07_22-31-39//opt.scfp.tmp) ****
             **** ENERGY FILE WAS UPDATED (/Users/lailaal-madhagi/Desktop/Testing_XAS_Analysis_code/Biuret//Results_dir_Biuret_geom_element_C_2019-11-07_22-31-28//GTE1_Biuret_geom_2019-11-07_22-31-39//opt.en.tmp) ****
----------------
ORBITAL ENERGIES
----------------

  NO   OCC          E(Eh)            E(eV) 
   0   2.0000     -19.078518      -519.1529 
   1   2.0000     -19.078482      -519.1519 
   2   2.0000     -14.376220      -391.1968 
   3   2.0000     -14.352014      -390.5381 
   4   2.0000     -14.351992      -390.5376 
   5   2.0000     -10.304480      -280.3991 
   6   2.0000     -10.304469      -280.3988 
   7   2.0000      -1.053738       -28.6737 
   8   2.0000      -1.012564       -27.5533 
   9   2.0000      -0.928101       -25.2549 
  10   2.0000      -0.896124       -24.3848 
  11   2.0000      -0.887415       -24.1478 
  12   2.0000      -0.673160       -18.3176 
  13   2.0000      -0.578299       -15.7363 
  14   2.0000      -0.574356       -15.6290 
  15   2.0000      -0.548265       -14.9191 
  16   2.0000      -0.524656       -14.2766 
  17   2.0000      -0.492234       -13.3944 
  18   2.0000      -0.453108       -12.3297 
  19   2.0000      -0.389228       -10.5914 
  20   2.0000      -0.389009       -10.5855 
  21   2.0000      -0.385389       -10.4870 
  22   2.0000      -0.279323        -7.6008 
  23   2.0000      -0.259817        -7.0700 
  24   2.0000      -0.252537        -6.8719 
  25   2.0000      -0.249729        -6.7955 
  26   2.0000      -0.212343        -5.7781 
  27   0.0000       0.033570         0.9135 
  28   0.0000       0.039469         1.0740 
  29   0.0000       0.068916         1.8753 
  30   0.0000       0.092058         2.5050 
  31   0.0000       0.115400         3.1402 
  32   0.0000       0.126516         3.4427 
  33   0.0000       0.139122         3.7857 
  34   0.0000       0.235600         6.4110 
  35   0.0000       0.273759         7.4494 
  36   0.0000       0.311033         8.4637 
  37   0.0000       0.371315        10.1040 
  38   0.0000       0.438322        11.9274 
  39   0.0000       0.455958        12.4073 
  40   0.0000       0.529027        14.3955 
  41   0.0000       0.550104        14.9691 
  42   0.0000       0.564385        15.3577 
  43   0.0000       0.599485        16.3128 
  44   0.0000       0.604770        16.4566 
  45   0.0000       0.644675        17.5425 
  46   0.0000       0.661825        18.0092 
  47   0.0000       0.681177        18.5358 
  48   0.0000       0.693488        18.8708 
  49   0.0000       0.706888        19.2354 
  50   0.0000       0.763905        20.7869 
  51   0.0000       0.780748        21.2452 
  52   0.0000       0.837281        22.7836 
  53   0.0000       0.850166        23.1342 
  54   0.0000       0.854564        23.2539 
  55   0.0000       0.860779        23.4230 
  56   0.0000       0.870140        23.6777 
  57   0.0000       0.882531        24.0149 
  58   0.0000       0.897380        24.4189 
  59   0.0000       0.975754        26.5516 
  60   0.0000       0.982669        26.7398 
  61   0.0000       1.053969        28.6800 
  62   0.0000       1.070152        29.1203 
  63   0.0000       1.112645        30.2766 
  64   0.0000       1.200297        32.6618 
  65   0.0000       1.284566        34.9548 
  66   0.0000       1.297208        35.2988 
  67   0.0000       1.304638        35.5010 
  68   0.0000       1.313547        35.7434 
  69   0.0000       1.349244        36.7148 
  70   0.0000       1.355772        36.8924 
  71   0.0000       1.415479        38.5171 
  72   0.0000       1.487984        40.4901 
  73   0.0000       1.527859        41.5752 
  74   0.0000       1.553356        42.2690 
  75   0.0000       1.651139        44.9298 
  76   0.0000       1.673546        45.5395 
  77   0.0000       1.736122        47.2423 
  78   0.0000       1.756657        47.8011 
  79   0.0000       1.848978        50.3133 
  80   0.0000       1.856114        50.5074 
  81   0.0000       1.864139        50.7258 
  82   0.0000       1.896762        51.6135 
  83   0.0000       1.905722        51.8573 
  84   0.0000       1.958701        53.2990 
  85   0.0000       2.007433        54.6250 
  86   0.0000       2.029645        55.2295 
  87   0.0000       2.096624        57.0521 
  88   0.0000       2.112948        57.4962 
  89   0.0000       2.137357        58.1605 
  90   0.0000       2.157297        58.7030 
  91   0.0000       2.235334        60.8265 
  92   0.0000       2.300481        62.5993 
  93   0.0000       2.335038        63.5396 
  94   0.0000       2.398761        65.2736 
  95   0.0000       2.442564        66.4655 
  96   0.0000       2.471636        67.2566 
  97   0.0000       2.491138        67.7873 
  98   0.0000       2.626339        71.4663 
  99   0.0000       2.626648        71.4747 
 100   0.0000       2.720945        74.0407 
 101   0.0000       2.741108        74.5893 
 102   0.0000       2.866695        78.0067 
 103   0.0000       2.941521        80.0428 
 104   0.0000       2.989080        81.3370 
 105   0.0000       3.033200        82.5376 
 106   0.0000       3.155699        85.8709 
 107   0.0000       3.341945        90.9389 
------------------
MOLECULAR ORBITALS
------------------
                      0         1         2         3         4         5   
                 -19.07852 -19.07848 -14.37622 -14.35201 -14.35199 -10.30448
                   2.00000   2.00000   2.00000   2.00000   2.00000   2.00000
                  --------  --------  --------  --------  --------  --------
  0N   1s        -0.000021  0.000059 -0.000761  0.887845  0.449764  0.000048
  0N   2s        -0.000286  0.000789 -0.000512  0.029445  0.014424  0.000770
  0N   1pz       -0.000006  0.000031 -0.000030  0.000067  0.000032  0.000049
  0N   1px       -0.000082  0.000296 -0.000123  0.000500  0.000233  0.000277
  0N   1py        0.000019  0.000023 -0.000230  0.000238  0.000127  0.000275
  0N   3s         0.002152 -0.004215  0.002766 -0.027476 -0.010222 -0.006018
  0N   2pz        0.000072 -0.000196  0.000179 -0.000788 -0.000163 -0.000271
  0N   2px        0.001723 -0.003894 -0.000615 -0.005316 -0.001025 -0.001601
  0N   2py       -0.001222  0.002342  0.003050 -0.003457 -0.000812 -0.001473
  0N   1dz2      -0.000020  0.000199 -0.000093  0.000102 -0.000041 -0.000254
  0N   1dxz       0.000008 -0.000048 -0.000015 -0.000027  0.000017  0.000092
  0N   1dyz      -0.000014  0.000014  0.000035 -0.000023  0.000011  0.000055
  0N   1dx2y2     0.000112 -0.000295 -0.000303 -0.000016  0.000036  0.000198
  0N   1dxy      -0.000082  0.000189 -0.000018 -0.000104  0.000081  0.000361
  1C   1s         0.000064 -0.000288  0.000079  0.000087 -0.000020 -0.336882
  1C   2s        -0.000043 -0.000833 -0.000699 -0.000632 -0.001076 -0.011965
  1C   1pz       -0.000009 -0.000002  0.000001  0.000089  0.000017 -0.000017
  1C   1px       -0.000271  0.000004 -0.000164  0.000743  0.000077 -0.000198
  1C   1py        0.000222 -0.000029  0.000214  0.000217  0.000117  0.000025
  1C   3s        -0.000760 -0.005240  0.009081  0.009574  0.003616 -0.000158
  1C   2pz        0.000484 -0.001122  0.000777 -0.001703 -0.000310 -0.001235
  1C   2px       -0.001468  0.000736  0.010808 -0.011730 -0.002339 -0.008069
  1C   2py        0.008006 -0.015245 -0.003513 -0.007162 -0.001043 -0.005731
  1C   1dz2       0.000094 -0.000357  0.000347  0.000311  0.000108  0.000896
  1C   1dxz       0.000028 -0.000028 -0.000006 -0.000137 -0.000088 -0.000111
  1C   1dyz      -0.000026  0.000106  0.000078 -0.000098 -0.000049 -0.000111
  1C   1dx2y2     0.000342 -0.000840 -0.000302 -0.000241 -0.000257  0.000203
  1C   1dxy       0.000138 -0.000083  0.001041 -0.000751 -0.000553  0.000283
  2N   1s         0.000021  0.000047  0.995349  0.000315  0.000962 -0.000182
  2N   2s         0.000296  0.000678  0.034481 -0.000195 -0.000596 -0.000631
  2N   1pz        0.000063 -0.000031  0.000058  0.000006 -0.000014  0.000062
  2N   1px        0.000664 -0.000290  0.000002  0.000100 -0.000033  0.000502
  2N   1py       -0.000021 -0.000030  0.000746 -0.000046 -0.000139  0.000164
  2N   3s        -0.001923 -0.004409 -0.037239  0.000704  0.002151  0.006117
  2N   2pz       -0.000644  0.000626 -0.000574  0.000148  0.000181  0.000609
  2N   2px       -0.007971  0.003487 -0.000016  0.000827 -0.000264  0.000116
  2N   2py        0.001688  0.003656 -0.007310  0.000857  0.002645  0.007634
  2N   1dz2       0.000080  0.000175  0.000104 -0.000062 -0.000178 -0.001408
  2N   1dxz      -0.000006 -0.000069  0.000002 -0.000022 -0.000004  0.000414
  2N   1dyz       0.000025 -0.000010 -0.000030 -0.000003  0.000065  0.000157
  2N   1dx2y2    -0.000132 -0.000311  0.000200 -0.000141 -0.000421  0.001261
  2N   1dxy       0.000257 -0.000105 -0.000001 -0.000231  0.000079  0.000619
  3C   1s        -0.000255 -0.000149  0.000079 -0.000081  0.000036 -0.936189
  3C   2s        -0.000581 -0.000598 -0.000699 -0.000127 -0.001242 -0.033684
  3C   1pz       -0.000031  0.000030  0.000033  0.000045 -0.000031  0.000032
  3C   1px       -0.000188  0.000197  0.000165  0.000553 -0.000500  0.000567
  3C   1py       -0.000168  0.000139  0.000211 -0.000117  0.000232 -0.000300
  3C   3s        -0.003323 -0.004122  0.009081 -0.005581  0.008578  0.003427
  3C   2pz       -0.001457 -0.000300 -0.001313 -0.000368  0.000446 -0.000290
  3C   2px       -0.001612  0.000555 -0.010823 -0.008051  0.008801  0.001227
  3C   2py       -0.016589 -0.004514 -0.003300  0.005316 -0.005250 -0.005225
  3C   1dz2      -0.000321 -0.000174  0.000319 -0.000194  0.000295  0.001948
  3C   1dxz      -0.000014 -0.000005 -0.000168  0.000014 -0.000010 -0.000308
  3C   1dyz       0.000127  0.000045 -0.000120 -0.000004  0.000074 -0.000303
  3C   1dx2y2    -0.000844 -0.000321 -0.000327  0.000036 -0.000328  0.000335
  3C   1dxy       0.000167 -0.000041 -0.001025 -0.000284  0.000906 -0.000087
  4N   1s         0.000057  0.000025 -0.000760 -0.449848  0.887803 -0.000044
  4N   2s         0.000773  0.000327 -0.000512 -0.015210  0.029046  0.000322
  4N   1pz       -0.000026 -0.000011 -0.000006  0.000016 -0.000027 -0.000047
  4N   1px       -0.000272 -0.000141  0.000122  0.000265 -0.000482 -0.000963
  4N   1py        0.000009  0.000032 -0.000232 -0.000122  0.000252  0.000596
  4N   3s        -0.004553 -0.001291  0.002766  0.016108 -0.024493 -0.000498
  4N   2pz        0.000587  0.000188  0.000299 -0.000171  0.000168  0.000069
  4N   2px        0.004037  0.001389  0.000629 -0.003670  0.003959 -0.000332
  4N   2py        0.002469  0.000670  0.003038  0.002379 -0.002777  0.001298
  4N   1dz2       0.000154  0.000119 -0.000092 -0.000110  0.000027 -0.000899
  4N   1dxz      -0.000070 -0.000037 -0.000012  0.000011 -0.000003  0.000106
  4N   1dyz      -0.000016 -0.000013  0.000039 -0.000001 -0.000006 -0.000057
  4N   1dx2y2    -0.000297 -0.000120 -0.000303  0.000031  0.000019  0.000611
  4N   1dxy      -0.000183 -0.000062  0.000023 -0.000136 -0.000003 -0.001353
  5O   1s         0.363651 -0.926362 -0.000007 -0.000025 -0.000006 -0.000028
  5O   2s         0.011412 -0.028524 -0.000358 -0.000611 -0.000278 -0.000654
  5O   1pz       -0.000056  0.000166  0.000015  0.000002  0.000003 -0.000033
  5O   1px        0.000109 -0.000033  0.000065 -0.000073 -0.000057 -0.000010
  5O   1py       -0.000849  0.002163  0.000110  0.000122  0.000109 -0.000403
  5O   3s        -0.010343  0.024159  0.000766  0.002559  0.000220  0.005615
  5O   2pz        0.000222 -0.000510 -0.000230  0.000159  0.000065 -0.000035
  5O   2px       -0.000109  0.000344 -0.002134  0.002124  0.000733  0.001474
  5O   2py        0.002974 -0.006940 -0.000286 -0.000616 -0.000086 -0.002285
  5O   1dz2       0.000081 -0.000070 -0.000213 -0.000170 -0.000144 -0.000221
  5O   1dxz       0.000000 -0.000012  0.000075 -0.000001  0.000019 -0.000033
  5O   1dyz      -0.000016  0.000026  0.000081 -0.000025 -0.000002  0.000053
  5O   1dx2y2     0.000111 -0.000234 -0.000016  0.000053  0.000078 -0.000555
  5O   1dxy       0.000041 -0.000019  0.000506 -0.000446 -0.000163 -0.000207
  6O   1s        -0.926365 -0.363644 -0.000007  0.000016 -0.000019  0.000006
  6O   2s        -0.028670 -0.011040 -0.000358  0.000329 -0.000585 -0.000924
  6O   1pz        0.000180  0.000061  0.000002 -0.000005  0.000021 -0.000067
  6O   1px        0.000108 -0.000054 -0.000064 -0.000025  0.000090  0.000000
  6O   1py        0.002161  0.000850  0.000111 -0.000034  0.000158 -0.000854
  6O   3s         0.024743  0.008853  0.000766 -0.001933  0.001691  0.007554
  6O   2pz       -0.000591 -0.000215  0.000182  0.000158 -0.000211 -0.000429
  6O   2px       -0.000358 -0.000166  0.002132  0.001281 -0.001849 -0.000722
  6O   2py       -0.007104 -0.002538 -0.000328  0.000420 -0.000397 -0.004584
  6O   1dz2      -0.000106  0.000011 -0.000226  0.000045 -0.000206 -0.000856
  6O   1dxz      -0.000002 -0.000011 -0.000005 -0.000029  0.000076  0.000028
  6O   1dyz       0.000038  0.000003 -0.000017 -0.000032  0.000059  0.000241
  6O   1dx2y2    -0.000246 -0.000078 -0.000028 -0.000003  0.000104 -0.001358
  6O   1dxy       0.000045 -0.000015 -0.000512 -0.000262  0.000387  0.000174
  7H   1s         0.000391  0.000896 -0.000282  0.000037  0.000113  0.001160
  7H   2s         0.000192  0.000440  0.001544  0.000156  0.000477  0.000866
  8H   1s        -0.000343  0.000708  0.000318 -0.000056 -0.000167  0.000049
  8H   2s        -0.000207  0.000374  0.000630  0.002194  0.001444 -0.000485
  9H   1s         0.000194 -0.000344 -0.000553 -0.000018 -0.000088  0.000294
  9H   2s         0.000341 -0.001089 -0.000182  0.002280  0.001472 -0.000343
 10H   1s         0.000752  0.000230  0.000318 -0.000054 -0.000167  0.000251
 10H   2s         0.000415  0.000103  0.000630 -0.000915  0.002462 -0.000245
 11H   1s        -0.000384 -0.000092 -0.000553 -0.000037 -0.000081  0.000007
 11H   2s        -0.001030 -0.000490 -0.000182 -0.000968  0.002536 -0.000529
                      6         7         8         9        10        11   
                 -10.30447  -1.05374  -1.01256  -0.92810  -0.89612  -0.88741
                   2.00000   2.00000   2.00000   2.00000   2.00000   2.00000
                  --------  --------  --------  --------  --------  --------
  0N   1s        -0.000096  0.045138 -0.058586 -0.033284  0.124960  0.131066
  0N   2s        -0.000219 -0.093095  0.119964  0.068572 -0.257446 -0.273247
  0N   1pz        0.000141 -0.004535  0.005022  0.000611 -0.001526 -0.001177
  0N   1px        0.001024 -0.030810  0.030265  0.020596 -0.021263 -0.006581
  0N   1py        0.000521 -0.019613  0.026508 -0.017799  0.006906 -0.006898
  0N   3s         0.004330 -0.080570  0.123218  0.069869 -0.299191 -0.296050
  0N   2pz        0.000398 -0.001561  0.002332  0.000207 -0.001848 -0.000350
  0N   2px        0.001763 -0.011197  0.011289  0.014662 -0.022809 -0.002810
  0N   2py        0.002894 -0.006040  0.015790 -0.015565  0.004606 -0.001124
  0N   1dz2      -0.000911  0.005275 -0.006458 -0.003292  0.011605  0.011821
  0N   1dxz       0.000334 -0.001224  0.001350  0.000653 -0.001809 -0.001626
  0N   1dyz       0.000212 -0.000859  0.001129  0.000092 -0.001235 -0.001441
  0N   1dx2y2     0.000670 -0.001332  0.000311  0.002375 -0.000723  0.001539
  0N   1dxy       0.001407 -0.002395  0.002679 -0.001780  0.003103  0.003103
  1C   1s        -0.936220  0.103220 -0.097626 -0.006560  0.015594  0.006232
  1C   2s        -0.033814 -0.203893  0.193899  0.017430 -0.032421 -0.015170
  1C   1pz       -0.000087 -0.005721  0.003122 -0.007654  0.018444  0.018163
  1C   1px       -0.000573 -0.023557 -0.036231  0.067522  0.065408  0.150075
  1C   1py       -0.000395 -0.043773  0.084923 -0.181642  0.154107  0.045271
  1C   3s         0.004578 -0.025422  0.040514 -0.018044  0.027874  0.002133
  1C   2pz        0.000334  0.002253  0.000810 -0.000848 -0.003963 -0.001456
  1C   2px        0.005049  0.010953  0.016246 -0.013574 -0.020725 -0.015888
  1C   2py       -0.002011  0.015205 -0.009923  0.005890 -0.024559  0.001194
  1C   1dz2       0.001790  0.013251 -0.011846 -0.000272  0.000836 -0.000092
  1C   1dxz      -0.000285 -0.001418  0.000820  0.001300 -0.002154 -0.001406
  1C   1dyz      -0.000274 -0.001939  0.002741 -0.001892  0.000006 -0.001399
  1C   1dx2y2     0.000271  0.005859 -0.013094  0.017503 -0.013110 -0.001748
  1C   1dxy      -0.000064  0.003504  0.000870 -0.005721 -0.009146 -0.015693
  2N   1s        -0.000086  0.103365 -0.000010 -0.142868  0.000011 -0.090529
  2N   2s        -0.000297 -0.210624  0.000017  0.296018 -0.000017  0.190528
  2N   1pz       -0.000097 -0.002866 -0.006137 -0.002208  0.004388  0.001866
  2N   1px       -0.001066 -0.000089 -0.063510 -0.000051  0.045423  0.000054
  2N   1py        0.000090 -0.036505  0.000625 -0.028112 -0.000445  0.023754
  2N   3s         0.002879 -0.216399  0.000046  0.332804 -0.000063  0.216289
  2N   2pz        0.000262 -0.002093 -0.001995 -0.001369  0.004474  0.000886
  2N   2px       -0.000201 -0.000046 -0.020635 -0.000064  0.046170  0.000070
  2N   2py        0.003596 -0.026628  0.000211 -0.017354 -0.000449  0.011429
  2N   1dz2      -0.000685  0.010623 -0.000091 -0.010840 -0.000033 -0.005510
  2N   1dxz       0.000061 -0.001979 -0.000535  0.001876 -0.000206  0.000416
  2N   1dyz      -0.000089 -0.001309 -0.000651  0.001454 -0.000249  0.001178
  2N   1dx2y2     0.000573 -0.001760 -0.000082  0.000300 -0.000032 -0.005389
  2N   1dxy      -0.001403  0.000164 -0.006797 -0.000151 -0.002603 -0.000008
  3C   1s         0.336970  0.103234  0.097610 -0.006570 -0.015597  0.006232
  3C   2s         0.012326 -0.203918 -0.193863  0.017452  0.032420 -0.015166
  3C   1pz        0.000001 -0.001188 -0.010160 -0.020783 -0.005867 -0.010822
  3C   1px       -0.000211  0.023360 -0.036611 -0.068325  0.064735 -0.149866
  3C   1py        0.000275 -0.044244 -0.084208 -0.180328 -0.155359  0.048204
  3C   3s        -0.003039 -0.025446 -0.040527 -0.018021 -0.027862  0.002077
  3C   2pz        0.000658  0.000148  0.002339  0.001760 -0.000074  0.001653
  3C   2px        0.009422 -0.010857  0.016317  0.013557 -0.020640  0.015922
  3C   2py       -0.003320  0.015416  0.009598  0.005603  0.024907  0.000981
  3C   1dz2      -0.000456  0.013164  0.011867 -0.000129 -0.001081  0.000322
  3C   1dxz       0.000054 -0.001954 -0.000682  0.002168  0.000685  0.001069
  3C   1dyz       0.000038 -0.002591 -0.002574 -0.000836 -0.001791  0.001613
  3C   1dx2y2    -0.000023  0.005779  0.013115  0.017638  0.012885 -0.001371
  3C   1dxy      -0.000271 -0.003293  0.000871  0.005293 -0.009486  0.015734
  4N   1s         0.000099  0.045144  0.058575 -0.033303 -0.124962  0.131062
  4N   2s         0.000733 -0.093106 -0.119943  0.068608  0.257457 -0.273251
  4N   1pz        0.000033  0.001410  0.000814 -0.003378 -0.002586  0.000093
  4N   1px        0.000439  0.030722  0.030136 -0.020677 -0.021285  0.006543
  4N   1py       -0.000128 -0.020221 -0.027099 -0.017392 -0.006483 -0.007028
  4N   3s        -0.007397 -0.080592 -0.123202  0.069926  0.299174 -0.295992
  4N   2pz       -0.000009  0.000589 -0.000172 -0.002621 -0.002516  0.000144
  4N   2px        0.002344  0.011186  0.011226 -0.014744 -0.022824  0.002788
  4N   2py       -0.003026 -0.006256 -0.016005 -0.015267 -0.004153 -0.001183
  4N   1dz2       0.000401  0.005341  0.006530 -0.003249 -0.011528  0.011742
  4N   1dxz      -0.000043 -0.000833 -0.000913  0.000922  0.002269 -0.002088
  4N   1dyz       0.000028 -0.000384 -0.000599  0.000421  0.001803 -0.002014
  4N   1dx2y2    -0.000259 -0.001271 -0.000242  0.002416  0.000791  0.001471
  4N   1dxy       0.000635  0.002570  0.002860  0.001633  0.002775 -0.002824
  5O   1s         0.000030  0.093053 -0.115894  0.100835 -0.076860 -0.017948
  5O   2s        -0.000658 -0.199905  0.251817 -0.222040  0.169925  0.039788
  5O   1pz       -0.000060  0.006027 -0.008415  0.005794 -0.002932  0.001618
  5O   1px        0.000003 -0.008965 -0.001720  0.002451  0.010607  0.024134
  5O   1py       -0.000775  0.088094 -0.105298  0.070903 -0.050607 -0.009352
  5O   3s         0.005159 -0.188158  0.228495 -0.203095  0.164330  0.035631
  5O   2pz       -0.000349  0.002186 -0.003388  0.001915 -0.000458  0.001341
  5O   2px       -0.000308 -0.004702 -0.005087  0.005365  0.006004  0.015094
  5O   2py       -0.004077  0.033714 -0.036897  0.017859 -0.013430 -0.001679
  5O   1dz2      -0.000934  0.003114 -0.003330  0.001695 -0.000658 -0.000305
  5O   1dxz       0.000029  0.000267 -0.000209 -0.000029 -0.000323 -0.000282
  5O   1dyz       0.000227 -0.000808  0.001099 -0.000625  0.000053 -0.000369
  5O   1dx2y2    -0.001309  0.006873 -0.008055  0.003595 -0.002518 -0.000010
  5O   1dxy      -0.000041  0.001609  0.000102 -0.001122 -0.002371 -0.004170
  6O   1s        -0.000041  0.093071  0.115887  0.100840  0.076845 -0.017941
  6O   2s        -0.000085 -0.199946 -0.251802 -0.222054 -0.169900  0.039783
  6O   1pz        0.000015  0.007799  0.008128  0.005350  0.005002 -0.003049
  6O   1px        0.000011  0.009358 -0.001252 -0.002135  0.010832 -0.024173
  6O   1py        0.000183  0.087930  0.105319  0.070949  0.050385 -0.008873
  6O   3s         0.001040 -0.188192 -0.228475 -0.203095 -0.164253  0.035555
  6O   2pz       -0.000062  0.003105  0.002416  0.000892  0.001637 -0.001587
  6O   2px       -0.001329  0.004845 -0.004932 -0.005280  0.006067 -0.015110
  6O   2py        0.000863  0.033627  0.036991  0.017961  0.013294 -0.001363
  6O   1dz2       0.000428  0.003072  0.003332  0.001724  0.000594 -0.000195
  6O   1dxz      -0.000023  0.000007  0.000216  0.000145 -0.000054  0.000375
  6O   1dyz      -0.000078 -0.001124 -0.001088 -0.000414 -0.000512  0.000431
  6O   1dx2y2     0.000410  0.006835  0.008056  0.003622  0.002459  0.000093
  6O   1dxy       0.000135 -0.001691 -0.000002  0.001079 -0.002415  0.004163
  7H   1s         0.000546 -0.046432  0.000005  0.095543 -0.000004  0.048522
  7H   2s         0.000408  0.001550  0.000002  0.006168 -0.000002 -0.004283
  8H   1s         0.000286 -0.018839  0.025476  0.025331 -0.079127 -0.080334
  8H   2s         0.000083  0.000852 -0.000839  0.002009 -0.005723 -0.002450
  9H   1s        -0.000234 -0.018911  0.026970  0.012402 -0.069544 -0.080122
  9H   2s        -0.000403  0.000871 -0.000938  0.000997 -0.005419 -0.004717
 10H   1s        -0.000144 -0.018841 -0.025471  0.025344  0.079135 -0.080340
 10H   2s        -0.000427  0.000859  0.000846  0.002005  0.005709 -0.002438
 11H   1s         0.000376 -0.018916 -0.026967  0.012411  0.069547 -0.080120
 11H   2s        -0.000008  0.000861  0.000927  0.001003  0.005434 -0.004733
                     12        13        14        15        16        17   
                  -0.67316  -0.57830  -0.57436  -0.54827  -0.52466  -0.49223
                   2.00000   2.00000   2.00000   2.00000   2.00000   2.00000
                  --------  --------  --------  --------  --------  --------
  0N   1s        -0.044731  0.020770 -0.004704 -0.002030  0.002641 -0.005426
  0N   2s         0.095587 -0.043255  0.011637  0.005146 -0.008212  0.008088
  0N   1pz       -0.017073  0.038862  0.003085 -0.031225  0.000482  0.018833
  0N   1px       -0.162503  0.246718  0.011374 -0.073536  0.217533  0.285590
  0N   1py       -0.015919  0.189458  0.025270 -0.307321 -0.264392 -0.114623
  0N   3s         0.135391 -0.071784  0.015704 -0.019919 -0.001367  0.052198
  0N   2pz       -0.007060  0.018211  0.000173 -0.016171  0.001679  0.013115
  0N   2px       -0.070603  0.113349 -0.005699 -0.037302  0.123089  0.174471
  0N   2py       -0.002178  0.091177  0.009058 -0.159625 -0.131397 -0.049405
  0N   1dz2      -0.004002  0.004349  0.000505 -0.002786 -0.000052  0.001118
  0N   1dxz      -0.000257  0.000510  0.000221 -0.000748 -0.000615 -0.000442
  0N   1dyz       0.000346 -0.000209 -0.000246  0.000822  0.001479  0.001441
  0N   1dx2y2    -0.004836  0.005849  0.002798 -0.009823 -0.011279 -0.009573
  0N   1dxy      -0.005904  0.008573  0.000421 -0.003317  0.006005  0.008605
  1C   1s         0.085692 -0.058499 -0.050647  0.024259 -0.007040  0.014212
  1C   2s        -0.188565  0.132113  0.116789 -0.054973  0.013612 -0.037609
  1C   1pz        0.001661 -0.026060  0.008853  0.021519 -0.003401 -0.022470
  1C   1px       -0.111955 -0.194034  0.115955  0.206388  0.002003 -0.216760
  1C   1py        0.160394 -0.091482 -0.031203  0.018148 -0.045972 -0.017357
  1C   3s        -0.085985  0.070853  0.075081 -0.032638  0.011972 -0.058502
  1C   2pz        0.003727 -0.005603  0.000370 -0.001780  0.000781  0.002197
  1C   2px        0.006844 -0.029295  0.016536 -0.001686  0.019139 -0.002118
  1C   2py        0.039137 -0.034976 -0.015382 -0.020860 -0.013869  0.030710
  1C   1dz2       0.004972 -0.001338 -0.001670  0.000836 -0.000349  0.001095
  1C   1dxz      -0.000379  0.000904  0.002703 -0.001733 -0.000390  0.000465
  1C   1dyz       0.000367  0.000754 -0.000612  0.000276  0.002063  0.002255
  1C   1dx2y2    -0.002364  0.001320  0.019263 -0.011840 -0.012932 -0.008049
  1C   1dxy       0.008816  0.006819  0.006701 -0.005404  0.010199  0.018035
  2N   1s         0.000002  0.026975  0.019190  0.000004  0.031542  0.000003
  2N   2s        -0.000006 -0.063371 -0.035296 -0.000014 -0.068230 -0.000001
  2N   1pz        0.033151 -0.005102  0.035347 -0.012851  0.002611  0.025210
  2N   1px        0.343095 -0.000143  0.001002 -0.132989  0.000062  0.260914
  2N   1py       -0.003362 -0.065000  0.450104  0.001337  0.033134 -0.002565
  2N   3s         0.000021 -0.075131 -0.071856  0.000013 -0.133932 -0.000045
  2N   2pz        0.014731 -0.001820  0.017504 -0.006167  0.001032  0.010028
  2N   2px        0.152631 -0.000015  0.000513 -0.063724  0.000012  0.103704
  2N   2py       -0.001476 -0.023252  0.222253  0.000643  0.012977 -0.001024
  2N   1dz2       0.000081 -0.000847  0.006121 -0.000049  0.000532  0.000091
  2N   1dxz       0.000490  0.000897  0.000678 -0.000297  0.000421  0.000543
  2N   1dyz       0.000596 -0.000501 -0.002244 -0.000362 -0.000492  0.000660
  2N   1dx2y2     0.000077  0.007787  0.017798 -0.000043  0.005289  0.000083
  2N   1dxy       0.006234 -0.000105 -0.000130 -0.003775 -0.000058  0.006884
  3C   1s        -0.085695 -0.058495 -0.050641 -0.024274 -0.007036 -0.014213
  3C   2s         0.188571  0.132111  0.116766  0.055018  0.013589  0.037616
  3C   1pz       -0.023374  0.011387 -0.013575  0.018349 -0.003811 -0.019402
  3C   1px       -0.112665  0.193603 -0.116109  0.206310 -0.002205 -0.216663
  3C   1py       -0.158189 -0.095280 -0.028904 -0.022217 -0.045920  0.021598
  3C   3s         0.085970  0.070805  0.075053  0.032657  0.011963  0.058536
  3C   2pz       -0.002379  0.000093 -0.002810  0.001489 -0.002904 -0.002658
  3C   2px        0.006700  0.029182 -0.016597 -0.001569 -0.019240 -0.002267
  3C   2py       -0.039250 -0.035495 -0.015066  0.020900 -0.013471 -0.030700
  3C   1dz2      -0.004742 -0.001517 -0.001851 -0.000983 -0.000612 -0.000626
  3C   1dxz       0.001755 -0.000174  0.001610  0.000857 -0.001971  0.002356
  3C   1dyz       0.001304 -0.000561 -0.001947 -0.001345  0.000139  0.001181
  3C   1dx2y2     0.002572  0.001152  0.019095  0.011709 -0.013178  0.008482
  3C   1dxy       0.008627 -0.006888 -0.007212 -0.005718 -0.009894  0.017810
  4N   1s         0.044731  0.020769 -0.004705  0.002034  0.002636  0.005429
  4N   2s        -0.095598 -0.043263  0.011641 -0.005154 -0.008215 -0.008085
  4N   1pz       -0.014316 -0.008721  0.000898  0.017155 -0.041678  0.036402
  4N   1px       -0.162425 -0.245850 -0.011236 -0.072203 -0.218713  0.286050
  4N   1py        0.019110  0.194264  0.025453  0.308775 -0.260150  0.108995
  4N   3s        -0.135365 -0.071748  0.015700  0.019907 -0.001295 -0.052251
  4N   2pz       -0.006635 -0.003748  0.001251  0.008956 -0.022177  0.020675
  4N   2px       -0.070601 -0.112941  0.005753 -0.036592 -0.123718  0.174694
  4N   2py        0.003552  0.093354  0.008925  0.160325 -0.128952  0.045951
  4N   1dz2       0.003847  0.004124  0.000492  0.002696 -0.000205 -0.000896
  4N   1dxz      -0.000667 -0.000835  0.000150  0.000217 -0.001538  0.001772
  4N   1dyz      -0.001483 -0.001859 -0.000332 -0.001475  0.000350  0.000188
  4N   1dx2y2     0.004694  0.005640  0.002785  0.009738 -0.011419  0.009773
  4N   1dxy      -0.005916 -0.008597 -0.000474 -0.003478 -0.005742  0.008348
  5O   1s        -0.034878  0.025680  0.047495 -0.031243 -0.016046 -0.015479
  5O   2s         0.081817 -0.060172 -0.107406  0.070065  0.035758  0.036050
  5O   1pz       -0.001517 -0.008901  0.001414  0.009065  0.004282 -0.003084
  5O   1px       -0.023408 -0.063203  0.052364  0.064792  0.024915 -0.055632
  5O   1py        0.009755 -0.035072 -0.047052  0.035175  0.023647  0.029789
  5O   3s         0.071000 -0.061132 -0.140467  0.109628  0.057985  0.042119
  5O   2pz       -0.000418 -0.004733  0.000549  0.004223  0.001618 -0.002207
  5O   2px       -0.016792 -0.030033  0.024325  0.034549  0.010099 -0.034914
  5O   2py        0.015529 -0.023105 -0.023371  0.010972  0.007994  0.015143
  5O   1dz2       0.000861 -0.001077 -0.002392  0.001965  0.001304  0.001101
  5O   1dxz       0.000299  0.000336 -0.000192 -0.000738 -0.000150  0.000502
  5O   1dyz       0.000084  0.000991  0.000258 -0.001066 -0.000257  0.000539
  5O   1dx2y2     0.001758 -0.003306 -0.003390  0.001503  0.000839  0.000812
  5O   1dxy       0.003448  0.005937 -0.003392 -0.006877 -0.000111  0.007649
  6O   1s         0.034879  0.025676  0.047490  0.031252 -0.016049  0.015475
  6O   2s        -0.081817 -0.060160 -0.107399 -0.070089  0.035770 -0.036047
  6O   1pz       -0.003012  0.003295 -0.008727  0.003437 -0.000524 -0.007676
  6O   1px       -0.023451  0.063041 -0.052582  0.064633 -0.024808 -0.055765
  6O   1py       -0.009298 -0.036311 -0.046023 -0.036462  0.024140 -0.028692
  6O   3s        -0.071019 -0.061149 -0.140439 -0.109656  0.057970 -0.042086
  6O   2pz       -0.002849  0.001051 -0.004168  0.002451 -0.000352 -0.004524
  6O   2px       -0.016867  0.029927 -0.024441  0.034503 -0.010064 -0.034980
  6O   2py       -0.015194 -0.023687 -0.022899 -0.011662  0.008206 -0.014464
  6O   1dz2      -0.000770 -0.001232 -0.002303 -0.002147  0.001308 -0.000900
  6O   1dxz       0.000245 -0.000596  0.000343 -0.000346 -0.000132  0.000703
  6O   1dyz       0.000581 -0.000140  0.000911 -0.000254 -0.000232  0.000925
  6O   1dx2y2    -0.001675 -0.003449 -0.003308 -0.001672  0.000844 -0.000628
  6O   1dxy       0.003468 -0.005886  0.003411 -0.006894  0.000125  0.007639
  7H   1s        -0.000006  0.003984 -0.271365 -0.000022 -0.041054 -0.000000
  7H   2s         0.000002 -0.003680 -0.140095 -0.000008  0.000767  0.000007
  8H   1s         0.044204 -0.120928 -0.016161  0.176567  0.152741  0.077494
  8H   2s         0.013694 -0.056997 -0.021470  0.093517  0.084608  0.051703
  9H   1s         0.097169 -0.089531  0.004138 -0.035701 -0.180050 -0.179105
  9H   2s         0.027528 -0.037020 -0.006377 -0.014406 -0.083004 -0.089709
 10H   1s        -0.044212 -0.120922 -0.016139 -0.176594  0.152774 -0.077488
 10H   2s        -0.013699 -0.056982 -0.021450 -0.093505  0.084600 -0.051684
 11H   1s        -0.097166 -0.089525  0.004142  0.035690 -0.180066  0.179076
 11H   2s        -0.027548 -0.037055 -0.006379  0.014375 -0.083020  0.089722
                     18        19        20        21        22        23   
                  -0.45311  -0.38923  -0.38901  -0.38539  -0.27932  -0.25982
                   2.00000   2.00000   2.00000   2.00000   2.00000   2.00000
                  --------  --------  --------  --------  --------  --------
  0N   1s        -0.000003 -0.004209 -0.000017  0.010324  0.000014 -0.019742
  0N   2s        -0.000004  0.008633  0.000045 -0.022197  0.000004  0.041248
  0N   1pz        0.145688  0.007721 -0.244628 -0.009360 -0.327262  0.011098
  0N   1px       -0.014210  0.008096  0.023874 -0.038756  0.031869  0.049699
  0N   1py       -0.011418  0.069834  0.019578 -0.072062  0.025656  0.078607
  0N   3s         0.000014  0.026103  0.000085 -0.058418 -0.000327  0.170228
  0N   2pz        0.096658  0.005756 -0.173745 -0.006260 -0.269327  0.009400
  0N   2px       -0.009441  0.031874  0.017136 -0.046121  0.026168  0.045881
  0N   2py       -0.007556  0.020471  0.013726 -0.022814  0.021010  0.061546
  0N   1dz2       0.001717  0.000177 -0.001899 -0.000460 -0.000239  0.001728
  0N   1dxz       0.007428  0.000440 -0.007783 -0.000398 -0.000512  0.000072
  0N   1dyz       0.003218 -0.001016 -0.004095  0.001027 -0.001103 -0.000818
  0N   1dx2y2    -0.000478  0.007744  0.000489 -0.007819 -0.000038  0.005203
  0N   1dxy      -0.000909 -0.004196  0.001001  0.003575  0.000147 -0.001734
  1C   1s         0.000002  0.041348  0.000235 -0.031737  0.000002 -0.002649
  1C   2s        -0.000037 -0.102585 -0.000578  0.076019 -0.000005  0.004071
  1C   1pz        0.266656 -0.015963 -0.278497  0.016972 -0.026393  0.000097
  1C   1px       -0.025965  0.004418  0.027141 -0.021071  0.002554  0.001340
  1C   1py       -0.020873 -0.230589  0.020472  0.242039  0.002078  0.000194
  1C   3s         0.000046 -0.118156 -0.000681  0.022355 -0.000046  0.028199
  1C   2pz        0.103083 -0.000006 -0.132961 -0.003278 -0.019075  0.014130
  1C   2px       -0.009996 -0.029201  0.012785 -0.015592  0.001574  0.145140
  1C   2py       -0.008210  0.026072  0.010639 -0.023129  0.001351  0.000007
  1C   1dz2       0.000654  0.000223  0.001167  0.000773  0.004272 -0.000308
  1C   1dxz       0.006622  0.000351  0.009149 -0.001595  0.029329  0.002266
  1C   1dyz      -0.003492 -0.000938 -0.002921  0.000595 -0.005502  0.003691
  1C   1dx2y2    -0.000915  0.007417 -0.001082 -0.012608 -0.003291 -0.004636
  1C   1dxy      -0.000185 -0.003499 -0.000467 -0.002870 -0.001796  0.033443
  2N   1s        -0.000001  0.000021  0.000002  0.014207 -0.000006  0.042346
  2N   2s        -0.000008 -0.000041 -0.000018 -0.033961 -0.000000 -0.089675
  2N   1pz        0.330400 -0.009611 -0.000076 -0.009289  0.424882 -0.010115
  2N   1px       -0.032185 -0.099358 -0.000607 -0.000120 -0.041384 -0.000316
  2N   1py       -0.025893  0.000807 -0.000017 -0.118517 -0.033311 -0.128972
  2N   3s        -0.000020 -0.000155  0.000062 -0.073567  0.000176 -0.358824
  2N   2pz        0.220569 -0.012908 -0.000086 -0.001187  0.345050 -0.009185
  2N   2px       -0.021447 -0.133655 -0.000749  0.000123 -0.033645 -0.000375
  2N   2py       -0.017308  0.001260  0.000064 -0.015028 -0.026951 -0.116801
  2N   1dz2       0.000809  0.000085  0.002747 -0.001811 -0.000165 -0.003641
  2N   1dxz      -0.000032  0.000519  0.016270 -0.000966  0.000007 -0.000120
  2N   1dyz       0.005902  0.000753 -0.000281  0.001287 -0.001199  0.001104
  2N   1dx2y2     0.000461  0.000084 -0.001612 -0.013138 -0.000092 -0.007674
  2N   1dxy      -0.000581  0.007828 -0.001219  0.000122  0.000110  0.000041
  3C   1s        -0.000000 -0.041435 -0.000252 -0.031621  0.000003 -0.002649
  3C   2s        -0.000034  0.102795  0.000600  0.075733 -0.000017  0.004060
  3C   1pz        0.266680  0.017004  0.278490  0.020982 -0.026378 -0.000071
  3C   1px       -0.025968  0.005827 -0.027054  0.022124  0.002543 -0.001328
  3C   1py       -0.020888  0.231165 -0.020390  0.240977  0.002081  0.000204
  3C   3s         0.000063  0.118228  0.000761  0.022052 -0.000209  0.028297
  3C   2pz        0.103089 -0.005656  0.132947 -0.000344 -0.019066 -0.013918
  3C   2px       -0.010023 -0.029188 -0.012953  0.015528  0.001676 -0.145358
  3C   2py       -0.008092 -0.025575 -0.010674 -0.023397  0.001721  0.002783
  3C   1dz2      -0.001579 -0.000330  0.001919  0.000852 -0.005630 -0.001186
  3C   1dxz      -0.006584 -0.001000  0.009111 -0.001116 -0.029276 -0.002994
  3C   1dyz      -0.003261  0.000289  0.002596  0.001175 -0.004472 -0.002694
  3C   1dx2y2     0.000393 -0.007523 -0.000731 -0.012513  0.002502 -0.005440
  3C   1dxy       0.000847 -0.003313 -0.001011  0.003207  0.002790 -0.033346
  4N   1s         0.000004  0.004236  0.000036  0.010311 -0.000015 -0.019755
  4N   2s        -0.000028 -0.008691 -0.000081 -0.022168  0.000021  0.041261
  4N   1pz        0.145705 -0.006178  0.244622 -0.001995 -0.327282  0.001365
  4N   1px       -0.014200  0.008175 -0.023809  0.038413  0.031936 -0.049378
  4N   1py       -0.011395 -0.070196 -0.019583 -0.072626  0.025631  0.079631
  4N   3s        -0.000013 -0.026230 -0.000309 -0.058342  0.000287  0.170399
  4N   2pz        0.096667  0.000422  0.173768  0.002596 -0.269334  0.000370
  4N   2px       -0.009414  0.032102 -0.016632  0.045931  0.025974 -0.045625
  4N   2py       -0.007632 -0.021140 -0.013844 -0.023647  0.021185  0.062537
  4N   1dz2      -0.000801 -0.000271 -0.000743 -0.000551 -0.000065  0.001772
  4N   1dxz      -0.007466 -0.000997 -0.007839 -0.000946  0.000526  0.000341
  4N   1dyz       0.003480  0.000230  0.004365  0.000356 -0.001121 -0.000489
  4N   1dx2y2     0.000998 -0.007874  0.001052 -0.007882 -0.000130  0.005245
  4N   1dxy       0.000255 -0.004019  0.000179 -0.003388  0.000052  0.001653
  5O   1s        -0.000005 -0.068595 -0.000391  0.059416  0.000001  0.006397
  5O   2s        -0.000002  0.156663  0.000898 -0.135399 -0.000020 -0.016074
  5O   1pz        0.155293  0.023235 -0.215802 -0.027061 -0.075963  0.041463
  5O   1px       -0.015123 -0.056135  0.020695  0.005815  0.007353  0.421517
  5O   1py       -0.012157  0.349985  0.018914 -0.353467  0.005932  0.006986
  5O   3s         0.000101  0.247218  0.001367 -0.204486  0.000103 -0.021204
  5O   2pz        0.086636  0.011838 -0.123591 -0.015845 -0.053377  0.028068
  5O   2px       -0.008437 -0.038513  0.011810  0.004390  0.005205  0.284221
  5O   2py       -0.006804  0.189580  0.010776 -0.208088  0.004129  0.006231
  5O   1dz2      -0.001710  0.009202  0.002509 -0.008594  0.000914 -0.000580
  5O   1dxz       0.001174 -0.000147  0.000655 -0.000126  0.001809 -0.001111
  5O   1dyz      -0.013868 -0.002265  0.017000  0.002316  0.004402 -0.001872
  5O   1dx2y2    -0.001198  0.013429  0.001340 -0.015647  0.000162  0.002324
  5O   1dxy       0.001274  0.001569 -0.001721 -0.000872 -0.000581 -0.018035
  6O   1s         0.000000  0.068759  0.000419  0.059223 -0.000000  0.006389
  6O   2s        -0.000005 -0.157037 -0.000968 -0.134962  0.000019 -0.016055
  6O   1pz        0.155312 -0.034305  0.215721 -0.028349 -0.075941 -0.039794
  6O   1px       -0.015124 -0.057470 -0.021356 -0.007228  0.007347 -0.421638
  6O   1py       -0.012164 -0.349854 -0.019060 -0.352358  0.005959  0.015286
  6O   3s         0.000005 -0.247776 -0.001448 -0.203768 -0.000106 -0.021155
  6O   2pz        0.086659 -0.019398  0.123535 -0.016783 -0.053342 -0.026718
  6O   2px       -0.008441 -0.039230 -0.012287 -0.005205  0.005179 -0.284289
  6O   2py       -0.006794 -0.189395 -0.010875 -0.207466  0.004222  0.011818
  6O   1dz2      -0.002085 -0.009185 -0.002263 -0.008543  0.000299 -0.000108
  6O   1dxz      -0.001023  0.000389  0.000844  0.000022 -0.001857  0.001724
  6O   1dyz      -0.013832  0.002579 -0.017022  0.002498  0.004463  0.001568
  6O   1dx2y2    -0.000981 -0.013433 -0.001498 -0.015587  0.000533  0.002761
  6O   1dxy       0.001446  0.001630  0.001623  0.001016 -0.000290  0.017971
  7H   1s         0.000010  0.000132  0.000020  0.092504  0.000029  0.078047
  7H   2s        -0.000095  0.000130  0.000033  0.100050 -0.000028  0.109056
  8H   1s         0.000009 -0.052398 -0.000319  0.052719 -0.000023 -0.049353
  8H   2s        -0.000045 -0.046733 -0.000181  0.056950  0.000078 -0.060569
  9H   1s         0.000009  0.030898  0.000179 -0.017829  0.000008  0.011200
  9H   2s        -0.000011  0.044826  0.000306 -0.032373  0.000063 -0.024410
 10H   1s        -0.000027  0.052549  0.000295  0.052581  0.000021 -0.049377
 10H   2s        -0.000041  0.046886  0.000250  0.056809 -0.000023 -0.060583
 11H   1s        -0.000009 -0.030946 -0.000219 -0.017744  0.000058  0.011197
 11H   2s         0.000046 -0.044914 -0.000241 -0.032239  0.000011 -0.024467
                     24        25        26        27        28        29   
                  -0.25254  -0.24973  -0.21234   0.03357   0.03947   0.06892
                   2.00000   2.00000   2.00000   0.00000   0.00000   0.00000
                  --------  --------  --------  --------  --------  --------
  0N   1s         0.000004  0.000003 -0.029217  0.050730 -0.000073  0.076887
  0N   2s         0.000010  0.000014  0.066642 -0.087489  0.000132 -0.138578
[...]
 1 C  dyz             0.0       0.0       0.1       0.1       0.3       2.2
 1 C  dx2y2           3.7       0.5       0.5       0.0       0.3       0.1
 1 C  dxy             0.8       0.1       0.1       0.4       0.1       0.3
 2 N  s               0.0       0.2       0.0       2.6       0.0       0.0
 2 N  pz              0.0       0.0       0.0       0.0       0.9       0.0
 2 N  px              3.7       0.0       0.5       0.0       0.0       0.0
 2 N  py              0.0       0.8       0.0       6.3       0.0       0.0
 2 N  dz2             0.0       6.4       0.0       1.5       0.2       0.4
 2 N  dxz             0.0       0.1       0.0       0.1       0.0      13.5
 2 N  dyz             0.0       0.2       0.0       0.3       9.9       0.0
 2 N  dx2y2           0.0       1.6       0.0      24.6       0.1       0.1
 2 N  dxy             0.1       0.0       4.4       0.0       0.1       0.1
 3 C  s               0.8       0.2       1.2       1.0       0.0       0.0
 3 C  pz              0.0       0.0       0.0       0.0       0.3       0.0
 3 C  px              0.5       0.5       0.6       0.6       0.0       0.0
 3 C  py              0.4       0.6       1.4       1.0       0.0       0.0
 3 C  dz2             1.3       0.5       5.7       5.7       0.7       0.3
 3 C  dxz             0.0       0.0       0.0       0.2      23.9      21.1
 3 C  dyz             0.2       0.0       0.1       0.2       0.1       2.6
 3 C  dx2y2           3.6       0.5       0.5       0.0       0.2       0.4
 3 C  dxy             0.8       0.1       0.1       0.3       0.2       0.1
 4 N  s               1.1       0.5       0.2       0.9       0.0       0.0
 4 N  pz              0.0       0.0       0.0       0.0       0.3       0.4
 4 N  px              1.4       0.0       0.1       1.1       0.0       0.0
 4 N  py              0.3       1.9       3.4       0.2       0.0       0.0
 4 N  dz2            10.3       8.2       0.8       1.3       0.0       0.0
 4 N  dxz             0.7       0.2       0.0       0.3       3.3       5.5
 4 N  dyz             0.5       1.0       0.5       0.1       6.1       6.1
 4 N  dx2y2           0.7       7.4      14.5       1.4       0.1       0.2
 4 N  dxy            11.9       8.4       4.8       6.1       0.0       0.0
 5 O  s               4.6       0.5       0.9       0.6       0.0       0.0
 5 O  pz              0.0       0.0       0.0       0.0       0.2       0.1
 5 O  px              0.1       0.3       0.2       0.2       0.0       0.0
 5 O  py              1.0       0.3       0.7       0.4       0.0       0.0
 5 O  dz2             0.3       0.1       1.9       1.0       0.3       0.1
 5 O  dxz             0.0       0.0       0.0       0.0       2.9       5.3
 5 O  dyz             0.0       0.0       0.0       0.1       5.4       0.7
 5 O  dx2y2           0.0       0.3       1.1       0.0       0.0       0.1
 5 O  dxy             0.4       5.8       2.5       2.2       0.2       0.0
 6 O  s               4.6       0.5       0.9       0.6       0.0       0.0
 6 O  pz              0.0       0.0       0.0       0.0       0.2       0.1
 6 O  px              0.1       0.3       0.2       0.2       0.0       0.0
 6 O  py              1.0       0.3       0.7       0.4       0.0       0.0
 6 O  dz2             0.3       0.1       1.8       1.0       0.0       0.2
 6 O  dxz             0.0       0.1       0.2       0.0       3.0       5.3
 6 O  dyz             0.0       0.1       0.1       0.0       5.7       0.6
 6 O  dx2y2           0.0       0.3       1.2       0.0       0.1       0.0
 6 O  dxy             0.5       5.7       2.3       2.3       0.0       0.1
 7 H  s               0.0       2.6       0.0       8.5       0.0       0.0
 8 H  s               0.2       6.3       5.7       0.0       0.0       0.0
 9 H  s               6.7       0.4       0.4       3.1       0.0       0.0
10 H  s               0.2       6.3       5.7       0.0       0.0       0.0
11 H  s               6.7       0.4       0.4       3.1       0.0       0.0

                     96        97        98        99       100       101   
                   2.42587   2.52181   2.62368   2.63217   2.66793   2.74265
                   0.00000   0.00000   0.00000   0.00000   0.00000   0.00000
                  --------  --------  --------  --------  --------  --------
 0 N  s               0.5       5.5       0.0       8.6       1.9       0.0
 0 N  pz              0.0       0.0       0.1       0.0       0.0       0.0
 0 N  px              0.3       1.7       0.0       1.8       0.8       0.0
 0 N  py              0.2       0.9       0.0       0.5       0.3       0.0
 0 N  dz2             2.1       6.2       0.1       9.6       3.2       0.0
 0 N  dxz             0.2       0.5       3.0       0.4       0.2       1.1
 0 N  dyz             0.0       0.3       0.6       0.4       0.3       0.0
 0 N  dx2y2           5.0       0.8       0.0       0.3       0.7       0.0
 0 N  dxy             0.8       6.5       0.0       7.5       5.5       0.0
 1 C  s               3.8       0.3       0.0       0.6       5.7       0.0
 1 C  pz              0.0       0.1       0.6       0.1       0.0       0.2
 1 C  px              1.6       3.9       0.0       5.3       0.0       0.0
 1 C  py              0.1       0.3       0.0       0.3       0.8       0.0
 1 C  dz2            15.1       0.0       0.6       1.7      13.6       0.1
 1 C  dxz             0.2       0.0       0.8       0.1       0.7       2.5
 1 C  dyz             0.2       0.0      20.6       0.1       0.2      21.3
 1 C  dx2y2           0.6       0.7       0.1       0.0       1.1       0.3
 1 C  dxy             2.4       0.0       0.3       0.0       0.4       0.1
 2 N  s               0.0      15.8       0.0       0.0      10.4       0.0
 2 N  px              5.6       0.0       0.0       4.9       0.0       0.0
 2 N  py              0.0       0.2       0.0       0.0       1.4       0.0
 2 N  dz2             0.0      17.4       0.0       0.0      12.3       0.3
 2 N  dxz             0.1       0.5       0.0       0.0       0.5      12.2
 2 N  dyz             0.2       0.3       1.0       0.1       0.1       0.0
 2 N  dx2y2           0.0       0.0       0.0       0.0       1.5       0.1
 2 N  dxy            15.8       0.0       0.0       5.8       0.0       0.1
 3 C  s               3.8       0.3       0.0       0.6       5.7       0.0
 3 C  pz              0.0       0.0       0.6       0.0       0.0       0.2
 3 C  px              1.6       3.9       0.0       5.3       0.0       0.0
 3 C  py              0.1       0.3       0.0       0.4       0.8       0.0
 3 C  dz2            14.6       0.0       0.2       1.9      13.7       0.9
 3 C  dxz             0.5       0.0       0.9       0.1       0.5       2.4
 3 C  dyz             0.6       0.0      20.9       0.0       0.1      20.7
 3 C  dx2y2           0.6       0.7       0.2       0.0       1.1       0.0
 3 C  dxy             2.1       0.0       0.1       0.0       0.5       0.3
 4 N  s               0.5       5.5       0.0       8.6       2.0       0.0
 4 N  pz              0.0       0.0       0.1       0.0       0.0       0.0
 4 N  px              0.3       1.7       0.0       1.8       0.8       0.0
 4 N  py              0.2       1.0       0.0       0.5       0.3       0.0
 4 N  dz2             2.1       6.5       0.0       9.9       3.4       0.0
 4 N  dxz             0.3       0.1       3.0       0.0       0.0       1.1
 4 N  dyz             0.0       0.0       0.7       0.1       0.0       0.0
 4 N  dx2y2           5.1       0.7       0.1       0.3       0.8       0.0
 4 N  dxy             0.6       7.0       0.0       7.8       5.6       0.0
 5 O  s               1.5       0.1       0.0       0.2       0.3       0.0
 5 O  pz              0.0       0.0       1.0       0.0       0.0       0.9
 5 O  px              0.0       0.1       0.0       0.4       0.0       0.0
 5 O  py              1.7       0.0       0.0       0.1       0.2       0.0
 5 O  dz2             0.0       0.3       0.1       0.1       0.3       0.2
 5 O  dxz             0.0       0.0       1.3       0.1       0.0       0.1
 5 O  dyz             0.0       0.0      19.9       0.0       0.0      16.5
 5 O  dx2y2           0.6       0.3       0.2       0.3       0.0       0.1
 5 O  dxy             0.0       2.9       0.1       5.3       0.0       0.1
 6 O  s               1.5       0.1       0.0       0.2       0.3       0.0
 6 O  pz              0.0       0.0       1.0       0.0       0.0       0.9
 6 O  px              0.0       0.1       0.0       0.4       0.0       0.0
 6 O  py              1.7       0.0       0.0       0.1       0.2       0.0
 6 O  dz2             0.0       0.3       0.7       0.1       0.3       0.4
 6 O  dxz             0.0       0.1       1.2       0.0       0.0       0.1
 6 O  dyz             0.0       0.0      19.4       0.0       0.0      16.3
 6 O  dx2y2           0.6       0.4       0.1       0.4       0.0       0.1
 6 O  dxy             0.0       2.8       0.2       5.3       0.0       0.2
 7 H  s               0.0       2.0       0.0       0.0       0.3       0.0
 8 H  s               0.2       0.1       0.0       0.9       0.5       0.0
 9 H  s               2.1       0.2       0.0       0.1       0.1       0.0
10 H  s               0.2       0.1       0.0       0.9       0.5       0.0
11 H  s               2.1       0.2       0.0       0.1       0.1       0.0

                    102       103       104       105       106       107   
                   2.86182   2.87123   2.98861   3.01876   3.13999   3.28428
                   0.00000   0.00000   0.00000   0.00000   0.00000   0.00000
                  --------  --------  --------  --------  --------  --------
 0 N  s               0.5       0.1       0.1       0.2       0.1       0.2
 0 N  px              0.9       0.0       0.0       0.1       0.3       0.4
 0 N  py              0.4       0.3       0.1       0.0       0.1       0.3
 0 N  dz2             0.3       0.1       0.1       0.0       0.1       0.0
 0 N  dxz             0.0       0.1       0.0       0.1       0.1       0.0
 0 N  dyz             0.1       0.0       0.0       0.0       0.0       0.0
 0 N  dx2y2           0.8       7.6       0.4       5.5       7.8       0.2
 0 N  dxy             5.8       0.3       0.0       0.0       0.0       1.5
 1 C  s               1.9       1.3       5.4       3.4       0.2       0.8
 1 C  px              0.3       0.5       0.0       0.1       0.4       0.4
 1 C  py              0.6       2.2       4.2       2.5       0.8       0.2
 1 C  dz2             0.3       0.2       0.3       0.2       0.1       0.5
 1 C  dxz             0.4       0.0       0.0       0.0       0.0       0.1
 1 C  dyz             0.1       0.1       0.0       0.2       0.4       0.1
 1 C  dx2y2           5.8       9.1       0.2       8.8      14.5       2.8
 1 C  dxy            14.2       0.4       2.0       3.9       7.7      20.1
 2 N  s               0.0       2.1       0.0       0.3       0.0       0.7
 2 N  px              0.6       0.0       0.5       0.0       2.8       0.0
 2 N  py              0.0       0.3       0.0       0.4       0.0       0.1
 2 N  dz2             0.0       0.6       0.0       0.1       0.0       0.6
 2 N  dxz             0.1       0.1       0.0       0.0       0.1       0.4
 2 N  dyz             0.1       0.0       0.0       0.0       0.1       0.1
 2 N  dx2y2           0.0       3.6       0.0       0.0       0.0      23.7
 2 N  dxy            12.1       0.0       0.9       0.0      10.5       0.0
 3 C  s               1.9       1.3       5.4       3.4       0.2       0.8
 3 C  px              0.3       0.5       0.0       0.1       0.4       0.4
 3 C  py              0.6       2.1       4.2       2.4       0.8       0.2
 3 C  dz2             0.5       0.2       0.3       0.3       0.1       0.4
 3 C  dxz             0.0       0.1       0.1       0.1       0.3       0.1
 3 C  dyz             0.2       0.1       0.0       0.0       0.0       0.4
 3 C  dx2y2           5.4       9.2       0.3       9.0      15.0       2.4
 3 C  dxy            14.7       0.3       1.9       3.7       7.2      20.2
 4 N  s               0.5       0.1       0.1       0.2       0.1       0.2
 4 N  px              0.9       0.0       0.0       0.1       0.3       0.4
 4 N  py              0.4       0.3       0.1       0.0       0.1       0.3
 4 N  dz2             0.4       0.1       0.1       0.0       0.1       0.1
 4 N  dxz             0.0       0.1       0.0       0.0       0.1       0.0
 4 N  dx2y2           0.9       7.6       0.3       5.4       7.7       0.2
 4 N  dxy             5.7       0.2       0.0       0.0       0.1       1.5
 5 O  s               1.0       7.5      10.1       4.0       0.8       0.7
 5 O  px              0.8       0.0       0.0       0.6       0.6       0.3
 5 O  py              0.6       2.3       3.4       2.0       0.8       0.9
 5 O  dz2             0.6       3.7       5.6       2.5       0.3       0.2
 5 O  dyz             0.0       0.3       0.3       0.0       0.0       0.1
 5 O  dx2y2           0.6       8.7      16.8       6.3       0.4       2.7
 5 O  dxy             6.7       0.5       0.0       8.3       6.6       3.8
 6 O  s               1.0       7.5      10.1       4.0       0.8       0.7
 6 O  px              0.8       0.0       0.0       0.6       0.6       0.3
 6 O  py              0.6       2.3       3.4       2.0       0.8       1.0
 6 O  dz2             0.5       3.7       5.5       2.2       0.2       0.2
 6 O  dxz             0.2       0.0       0.0       0.1       0.1       0.1
 6 O  dyz             0.1       0.2       0.5       0.5       0.1       0.0
 6 O  dx2y2           0.7       8.8      16.7       5.9       0.4       2.9
 6 O  dxy             6.5       0.4       0.1       8.4       6.6       3.7
 7 H  s               0.0       0.1       0.0       0.0       0.0       1.3
 8 H  s               0.1       0.7       0.0       0.7       0.7       0.0
 9 H  s               0.5       0.8       0.0       0.2       0.4       0.1
10 H  s               0.1       0.7       0.0       0.7       0.7       0.0
11 H  s               0.5       0.8       0.0       0.2       0.4       0.1



                      *****************************
                      * MAYER POPULATION ANALYSIS *
                      *****************************

  NA   - Mulliken gross atomic population
  ZA   - Total nuclear charge
  QA   - Mulliken gross atomic charge
  VA   - Mayer's total valence
  BVA  - Mayer's bonded valence
  FA   - Mayer's free valence

  ATOM       NA         ZA         QA         VA         BVA        FA
  0 N      7.7868     7.0000    -0.7868     2.8178     2.8178    -0.0000
  1 C      5.2847     6.0000     0.7153     4.0028     4.0028    -0.0000
  2 N      7.6779     7.0000    -0.6779     2.8469     2.8469     0.0000
  3 C      5.2848     6.0000     0.7152     4.0030     4.0030     0.0000
  4 N      7.7867     7.0000    -0.7867     2.8180     2.8180    -0.0000
  5 O      8.4259     8.0000    -0.4259     2.1405     2.1405     0.0000
  6 O      8.4259     8.0000    -0.4259     2.1405     2.1405     0.0000
  7 H      0.6877     1.0000     0.3123     0.8721     0.8721    -0.0000
  8 H      0.6748     1.0000     0.3252     0.8633     0.8633    -0.0000
  9 H      0.6450     1.0000     0.3550     0.8563     0.8563    -0.0000
 10 H      0.6748     1.0000     0.3252     0.8633     0.8633     0.0000
 11 H      0.6451     1.0000     0.3549     0.8564     0.8564    -0.0000

  Mayer bond orders larger than 0.1
B(  0-N ,  1-C ) :   1.0533 B(  0-N ,  8-H ) :   0.8371 B(  0-N ,  9-H ) :   0.8300 
B(  1-C ,  2-N ) :   0.9521 B(  1-C ,  5-O ) :   1.9575 B(  2-N ,  3-C ) :   0.9522 
B(  2-N ,  7-H ) :   0.8353 B(  3-C ,  4-N ) :   1.0534 B(  3-C ,  6-O ) :   1.9576 
B(  4-N , 10-H ) :   0.8371 B(  4-N , 11-H ) :   0.8301 

-------
TIMINGS
-------

Total SCF time: 0 days 0 hours 0 min 10 sec 

Total time                  ....      10.496 sec
Sum of individual times     ....      10.254 sec  ( 97.7%)

Fock matrix formation       ....       8.929 sec  ( 85.1%)
  XC integration            ....       1.729 sec  ( 19.4% of F)
    Basis function eval.    ....       0.665 sec  ( 38.4% of XC)
    Density eval.           ....       0.426 sec  ( 24.6% of XC)
    XC-Functional eval.     ....       0.154 sec  (  8.9% of XC)
    XC-Potential eval.      ....       0.389 sec  ( 22.5% of XC)
Diagonalization             ....       0.002 sec  (  0.0%)
Density matrix formation    ....       0.001 sec  (  0.0%)
Population analysis         ....       0.028 sec  (  0.3%)
Initial guess               ....       0.002 sec  (  0.0%)
Orbital Transformation      ....       0.000 sec  (  0.0%)
Orbital Orthonormalization  ....       0.001 sec  (  0.0%)
DIIS solution               ....       0.000 sec  (  0.0%)
SOSCF solution              ....       0.007 sec  (  0.1%)
Grid generation             ....       1.285 sec  ( 12.2%)

-------------------------   --------------------
FINAL SINGLE POINT ENERGY      -393.744175432293
-------------------------   --------------------

                                *** OPTIMIZATION RUN DONE ***

                            ***************************************
                            *     ORCA property calculations      *
                            ***************************************

                                    ---------------------
                                    Active property flags
                                    ---------------------
   (+) Dipole Moment


------------------------------------------------------------------------------
                       ORCA ELECTRIC PROPERTIES CALCULATION
------------------------------------------------------------------------------

Dipole Moment Calculation                       ... on
Quadrupole Moment Calculation                   ... off
Polarizability Calculation                      ... off
GBWName                                         ... /Users/lailaal-madhagi/Desktop/Testing_XAS_Analysis_code/Biuret//Results_dir_Biuret_geom_element_C_2019-11-07_22-31-28//GTE1_Biuret_geom_2019-11-07_22-31-39//opt.gbw
Electron density file                           ... /Users/lailaal-madhagi/Desktop/Testing_XAS_Analysis_code/Biuret//Results_dir_Biuret_geom_element_C_2019-11-07_22-31-28//GTE1_Biuret_geom_2019-11-07_22-31-39//opt.scfp.tmp
The origin for moment calculation is the CENTER OF MASS  = (-2.122128,  1.487593 -0.051690)

-------------
DIPOLE MOMENT
-------------
                                X             Y             Z
Electronic contribution:      0.00662       2.97414       0.23460
Nuclear contribution   :     -0.01265      -5.92441      -0.47106
                        -----------------------------------------
Total Dipole Moment    :     -0.00602      -2.95028      -0.23646
                        -----------------------------------------
Magnitude (a.u.)       :      2.95974
Magnitude (Debye)      :      7.52307



--------------------
Rotational spectrum 
--------------------
 
Rotational constants in cm-1:     0.198076     0.059822     0.045946 
Rotational constants in MHz :  5938.165398  1793.407916  1377.426288 

 Dipole components along the rotational axes: 
x,y,z [a.u.] :     0.000072     2.959737    -0.005588 
x,y,z [Debye]:     0.000184     7.523055    -0.014203 

 

Timings for individual modules:

Sum of individual times         ...      169.976 sec (=   2.833 min)
GTO integral calculation        ...        3.539 sec (=   0.059 min)   2.1 %
SCF iterations                  ...      108.027 sec (=   1.800 min)  63.6 %
SCF Gradient evaluation         ...       57.380 sec (=   0.956 min)  33.8 %
Geometry relaxation             ...        1.031 sec (=   0.017 min)   0.6 %
                             ****ORCA TERMINATED NORMALLY****
TOTAL RUN TIME: 0 days 0 hours 2 minutes 51 seconds 369 msec
