
                                 *****************
                                 * O   R   C   A *
                                 *****************

           --- An Ab Initio, DFT and Semiempirical electronic structure package ---

                  #######################################################
                  #                        -***-                        #
                  #          Department of theory and spectroscopy      #
                  #               Directorship: Frank Neese             #
                  #        Max Planck Institute fuer Kohlenforschung    #
                  #                Kaiser Wilhelm Platz 1               #
                  #                 D-45470 Muelheim/Ruhr               #
                  #                      Germany                        #
                  #                                                     #
                  #                  All rights reserved                #
                  #                        -***-                        #
                  #######################################################


                         Program Version 4.1.0  - RELEASE  -


 With contributions from (in alphabetic order):
   Daniel Aravena         : Magnetic Properties
   Michael Atanasov       : Ab Initio Ligand Field Theory
   Alexander A. Auer      : GIAO ZORA
   Ute Becker             : Parallelization
   Giovanni Bistoni       : ED, Open-shell LED
   Martin Brehm           : Molecular dynamics
   Dmytro Bykov           : SCF Hessian
   Vijay G. Chilkuri      : MRCI spin determinant printing
   Dipayan Datta          : RHF DLPNO-CCSD density
   Achintya Kumar Dutta   : EOM-CC, STEOM-CC
   Dmitry Ganyushin       : Spin-Orbit,Spin-Spin,Magnetic field MRCI
   Miquel Garcia          : C-PCM Hessian
   Yang Guo               : DLPNO-NEVPT2, CIM, IAO-localization
   Andreas Hansen         : Spin unrestricted coupled pair/coupled cluster methods
   Benjamin Helmich-Paris : CASSCF linear response (MC-RPA)
   Lee Huntington         : MR-EOM, pCC
   Robert Izsak           : Overlap fitted RIJCOSX, COSX-SCS-MP3, EOM
   Christian Kollmar      : KDIIS, OOCD, Brueckner-CCSD(T), CCSD density
   Simone Kossmann        : Meta GGA functionals, TD-DFT gradient, OOMP2, MP2 Hessian
   Martin Krupicka        : AUTO-CI
   Lucas Lang             : DCDCAS
   Dagmar Lenk            : GEPOL surface, SMD
   Dimitrios Liakos       : Extrapolation schemes; parallel MDCI
   Dimitrios Manganas     : ROCIS; embedding schemes
   Dimitrios Pantazis     : SARC Basis sets
   Taras Petrenko         : DFT Hessian,TD-DFT gradient, ASA, ECA, R-Raman, ABS, FL, XAS/XES, NRVS
   Peter Pinski           : DLPNO-MP2, DLPNO-MP2 Gradient
   Christoph Reimann      : Effective Core Potentials
   Marius Retegan         : Local ZFS, SOC
   Christoph Riplinger    : Optimizer, TS searches, QM/MM, DLPNO-CCSD(T), (RO)-DLPNO pert. Triples
   Tobias Risthaus        : Range-separated hybrids, TD-DFT gradient, RPA, STAB
   Michael Roemelt        : Restricted open shell CIS
   Masaaki Saitow         : Open-shell DLPNO
   Barbara Sandhoefer     : DKH picture change effects
   Avijit Sen             : IP-ROCIS
   Kantharuban Sivalingam : CASSCF convergence, NEVPT2, FIC-MRCI
   Bernardo de Souza      : ESD, SOC TD-DFT
   Georgi Stoychev        : AutoAux, RI-MP2 NMR
   Willem Van den Heuvel  : Paramagnetic NMR
   Boris Wezisla          : Elementary symmetry handling
   Frank Wennmohs         : Technical directorship


 We gratefully acknowledge several colleagues who have allowed us to
 interface, adapt or use parts of their codes:
   Stefan Grimme, W. Hujo, H. Kruse,             : VdW corrections, initial TS optimization,
                  C. Bannwarth                     DFT functionals, gCP, sTDA/sTD-DF
   Ed Valeev                                     : LibInt (2-el integral package), F12 methods
   Garnet Chan, S. Sharma, J. Yang, R. Olivares  : DMRG
   Ulf Ekstrom                                   : XCFun DFT Library
   Mihaly Kallay                                 : mrcc  (arbitrary order and MRCC methods)
   Andreas Klamt, Michael Diedenhofen            : otool_cosmo (COSMO solvation model)
   Jiri Pittner, Ondrej Demel                    : Mk-CCSD
   Frank Weinhold                                : gennbo (NPA and NBO analysis)
   Christopher J. Cramer and Donald G. Truhlar   : smd solvation model
   Lars Goerigk                                  : TD-DFT with DH, B97 family of functionals
   V. Asgeirsson, H. Jonsson                     : NEB implementation
   FAccTs GmbH                                   : IRC, NEB, NEB-TS, Multilevel


 Your calculation uses the libint2 library for the computation of 2-el integrals
 For citations please refer to: http://libint.valeyev.net

 This ORCA versions uses:
   CBLAS   interface :  Fast vector & matrix operations
   LAPACKE interface :  Fast linear algebra routines
   SCALAPACK package :  Parallel linear algebra routines




***************************************
The coordinates will be read from file: /Users/lailaal-madhagi/Desktop/Testing_XAS_Analysis_code/Acetonitrile/Acetonitrile_geom.xyz
***************************************


----- Orbital basis set information -----
Your calculation utilizes the basis: 6-31G*
   H-He, Li-Ne : W. J. Hehre, R. Ditchfield and J.A. Pople, J. Chem. Phys. 56, 2257 (1972).
                 Note: He and Ne are unpublished basis sets taken from the Gaussian program.
                 Note: Li and B from J. D. Dill and J. A. Pople, J. Chem. Phys. 62, 2921 (1975).
   Na - Ar     : M. M. Francl, W. J. Pietro, W. J. Hehre, J. S. Binkley, M. S. Gordon, 
                 D. J. DeFrees and J. A. Pople, J. Chem. Phys. 77, 3654 (1982).
   K - Zn      : V. A. Rassolov, J. A. Pople, M. A. Ratner, and T. L. Windus, J. Chem. Phys. 109, 1223 (1998).

================================================================================
                                        WARNINGS
                       Please study these warnings very carefully!
================================================================================


WARNING: Geometry Optimization
  ===> : Switching off AutoStart
         For restart on a previous wavefunction, please use MOREAD

INFO   : the flag for use of LIBINT has been found!

================================================================================
                                       INPUT FILE
================================================================================
NAME = /Users/lailaal-madhagi/Desktop/Testing_XAS_Analysis_code/Acetonitrile//Results_dir_Acetonitrile_geom_element_C_2019-11-03_21-19-33//GTE1_Acetonitrile_geom_2019-11-03_21-20-24//opt.inp
|  1> ! B3LYP 6-31G* TIGHTSCF Grid3 FinalGrid5 Opt 
|  2> !NormalPrint 
|  3> %output 
|  4> Print[P_Basis] 2 
|  5> Print[P_MOS] 1 
|  6> end 
|  7> *xyzfile 0 1 /Users/lailaal-madhagi/Desktop/Testing_XAS_Analysis_code/Acetonitrile/Acetonitrile_geom.xyz                           ****END OF INPUT****
================================================================================

                       *****************************
                       * Geometry Optimization Run *
                       *****************************

Geometry optimization settings:
Update method            Update   .... BFGS
Choice of coordinates    CoordSys .... Z-matrix Internals
Initial Hessian          InHess   .... Almoef's Model

Convergence Tolerances:
Energy Change            TolE     ....  5.0000e-06 Eh
Max. Gradient            TolMAXG  ....  3.0000e-04 Eh/bohr
RMS Gradient             TolRMSG  ....  1.0000e-04 Eh/bohr
Max. Displacement        TolMAXD  ....  4.0000e-03 bohr
RMS Displacement         TolRMSD  ....  2.0000e-03 bohr

------------------------------------------------------------------------------
                        ORCA OPTIMIZATION COORDINATE SETUP
------------------------------------------------------------------------------

The optimization will be done in new redundant internal coordinates
Making redundant internal coordinates   ...  (new redundants) done
Evaluating the initial hessian          ...  (Almloef) done
Evaluating the coordinates              ...  done
Calculating the B-matrix                .... done
Calculating the G-matrix                .... done
Diagonalizing the G-matrix              .... done
The first mode is                       ....    1
The number of degrees of freedom        ....   12

    -----------------------------------------------------------------
                    Redundant Internal Coordinates


    -----------------------------------------------------------------
         Definition                    Initial Value    Approx d2E/dq
    -----------------------------------------------------------------
      1. B(C   1,C   0)                  1.4633         0.477284   
      2. B(H   2,C   0)                  1.1094         0.335295   
      3. B(H   3,C   0)                  1.1094         0.335341   
      4. B(H   4,C   0)                  1.1095         0.335267   
      5. B(N   5,C   1)                  1.1572         1.316303   
      6. A(C   1,C   0,H   2)          109.4957         0.333750   
      7. A(C   1,C   0,H   4)          109.5216         0.333746   
      8. A(C   1,C   0,H   3)          109.4669         0.333758   
      9. A(H   2,C   0,H   4)          109.4479         0.284419   
     10. A(H   3,C   0,H   4)          109.4478         0.284425   
     11. A(H   2,C   0,H   3)          109.4475         0.284429   
     12. L(C   0,C   1,N   5,H   3, 1) 179.9848         0.471475   
     13. L(C   0,C   1,N   5,H   3, 2) 180.0161         0.471475   
    -----------------------------------------------------------------

Number of atoms                         .... 6
Number of degrees of freedom            .... 13

         *************************************************************
         *                GEOMETRY OPTIMIZATION CYCLE   1            *
         *************************************************************
---------------------------------
CARTESIAN COORDINATES (ANGSTROEM)
---------------------------------
  C     -2.790410    0.499960    0.000010
  C     -1.327100    0.498830    0.000010
  H     -3.160680    0.482510    1.045680
  H     -3.160820   -0.396750   -0.538000
  H     -3.160440    1.414410   -0.507670
  N     -0.169940    0.497590   -0.000010

----------------------------
CARTESIAN COORDINATES (A.U.)
----------------------------
  NO LB      ZA    FRAG     MASS         X           Y           Z
   0 C     6.0000    0    12.011   -5.273111    0.944787    0.000019
   1 C     6.0000    0    12.011   -2.507856    0.942652    0.000019
   2 H     1.0000    0     1.008   -5.972820    0.911812    1.976049
   3 H     1.0000    0     1.008   -5.973084   -0.749749   -1.016673
   4 H     1.0000    0     1.008   -5.972366    2.672848   -0.959357
   5 N     7.0000    0    14.007   -0.321140    0.940309   -0.000019

--------------------------------
INTERNAL COORDINATES (ANGSTROEM)
--------------------------------
 C      0   0   0     0.000000000000     0.00000000     0.00000000
 C      1   0   0     1.463310436305     0.00000000     0.00000000
 H      1   2   0     1.109427836454   109.49571532     0.00000000
 H      1   2   3     1.109390441774   109.46687215   240.01676673
 H      1   2   3     1.109450307945   109.52158295   120.01727509
 N      2   1   3     1.157160664558   179.98281898    92.33253530

---------------------------
INTERNAL COORDINATES (A.U.)
---------------------------
 C      0   0   0     0.000000000000     0.00000000     0.00000000
 C      1   0   0     2.765255973526     0.00000000     0.00000000
 H      1   2   0     2.096514776248   109.49571532     0.00000000
 H      1   2   3     2.096444110543   109.46687215   240.01676673
 H      1   2   3     2.096557241211   109.52158295   120.01727509
 N      2   1   3     2.186716748961   179.98281898    92.33253530

---------------------
BASIS SET INFORMATION
---------------------
There are 3 groups of distinct atoms

 Group   1 Type C   : 10s4p1d contracted to 3s2p1d pattern {631/31/1}
 Group   2 Type H   : 4s contracted to 2s pattern {31}
 Group   3 Type N   : 10s4p1d contracted to 3s2p1d pattern {631/31/1}

Atom   0C    basis set group =>   1
Atom   1C    basis set group =>   1
Atom   2H    basis set group =>   2
Atom   3H    basis set group =>   2
Atom   4H    basis set group =>   2
Atom   5N    basis set group =>   3

-------------------------
BASIS SET IN INPUT FORMAT
-------------------------

 # Basis set for element : H 
 NewGTO H 
 S 3 
   1      18.7311370000      0.0334945995
   2       2.8253937000      0.2347269467
   3       0.6401217000      0.8137573184
 S 1 
   1       0.1612778000      1.0000000000
  end;

 # Basis set for element : C 
 NewGTO C 
 S 6 
   1    3047.5249000000      0.0018347002
   2     457.3695100000      0.0140373012
   3     103.9486900000      0.0688426061
   4      29.2101550000      0.2321844206
   5       9.2866630000      0.4679413416
   6       3.1639270000      0.3623120322
 S 3 
   1       7.8682724000     -0.1193324086
   2       1.8812885000     -0.1608542116
   3       0.5442493000      1.1434564826
 P 3 
   1       7.8682724000      0.0689990956
   2       1.8812885000      0.3164239798
   3       0.5442493000      0.7443082524
 S 1 
   1       0.1687144000      1.0000000000
 P 1 
   1       0.1687144000      1.0000000000
 D 1 
   1       0.8000000000      1.0000000000
  end;

 # Basis set for element : N 
 NewGTO N 
 S 6 
   1    4173.5110000000      0.0018347994
   2     627.4579000000      0.0139949958
   3     142.9021000000      0.0685869792
   4      40.2343300000      0.2322409295
   5      12.8202100000      0.4690698576
   6       4.3904370000      0.3604548906
 S 3 
   1      11.6263580000     -0.1149610229
   2       2.7162800000     -0.1691180337
   3       0.7722180000      1.1458522281
 P 3 
   1      11.6263580000      0.0675800232
   2       2.7162800000      0.3239071114
   3       0.7722180000      0.7408952549
 S 1 
   1       0.2120313000      1.0000000000
 P 1 
   1       0.2120313000      1.0000000000
 D 1 
   1       0.8000000000      1.0000000000
  end;

------------------------------------------------------------------------------
                           ORCA GTO INTEGRAL CALCULATION
------------------------------------------------------------------------------

                         BASIS SET STATISTICS AND STARTUP INFO

 # of primitive gaussian shells          ...   57
 # of primitive gaussian functions       ...   93
 # of contracted shells                  ...   24
 # of contracted basis functions         ...   48
 Highest angular momentum                ...    2
 Maximum contraction depth               ...    6
 Integral package used                   ... LIBINT
 Integral threshhold            Thresh   ...  2.500e-11
 Primitive cut-off              TCut     ...  2.500e-12


------------------------------ INTEGRAL EVALUATION ----------------------------


 * One electron integrals 
 Pre-screening matrix                    ... done
 Shell pair data                         ... done (   0.001 sec)

-------------------------------------------------------------------------------
                                 ORCA SCF
-------------------------------------------------------------------------------

------------
SCF SETTINGS
------------
Hamiltonian:
 Density Functional     Method          .... DFT(GTOs)
 Exchange Functional    Exchange        .... B88
   X-Alpha parameter    XAlpha          ....  0.666667
   Becke's b parameter  XBeta           ....  0.004200
 Correlation Functional Correlation     .... LYP
 LDA part of GGA corr.  LDAOpt          .... VWN-5
 Gradients option       PostSCFGGA      .... off
 Hybrid DFT is turned on
   Fraction HF Exchange ScalHFX         ....  0.200000
   Scaling of DF-GGA-X  ScalDFX         ....  0.720000
   Scaling of DF-GGA-C  ScalDFC         ....  0.810000
   Scaling of DF-LDA-C  ScalLDAC        ....  1.000000
   Perturbative correction              ....  0.000000
   Density functional embedding theory  .... OFF
   NL short-range parameter             ....  4.800000


General Settings:
 Integral files         IntName         .... /Users/lailaal-madhagi/Desktop/Testing_XAS_Analysis_code/Acetonitrile//Results_dir_Acetonitrile_geom_element_C_2019-11-03_21-19-33//GTE1_Acetonitrile_geom_2019-11-03_21-20-24//opt
 Hartree-Fock type      HFTyp           .... RHF
 Total Charge           Charge          ....    0
 Multiplicity           Mult            ....    1
 Number of Electrons    NEL             ....   22
 Basis Dimension        Dim             ....   48
 Nuclear Repulsion      ENuc            ....     58.1891461328 Eh

Convergence Acceleration:
 DIIS                   CNVDIIS         .... on
   Start iteration      DIISMaxIt       ....    12
   Startup error        DIISStart       ....  0.200000
   # of expansion vecs  DIISMaxEq       ....     5
   Bias factor          DIISBfac        ....   1.050
   Max. coefficient     DIISMaxC        ....  10.000
 Newton-Raphson         CNVNR           .... off
 SOSCF                  CNVSOSCF        .... on
   Start iteration      SOSCFMaxIt      ....   150
   Startup grad/error   SOSCFStart      ....  0.003300
 Level Shifting         CNVShift        .... on
   Level shift para.    LevelShift      ....    0.2500
   Turn off err/grad.   ShiftErr        ....    0.0010
 Zerner damping         CNVZerner       .... off
 Static damping         CNVDamp         .... on
   Fraction old density DampFac         ....    0.7000
   Max. Damping (<1)    DampMax         ....    0.9800
   Min. Damping (>=0)   DampMin         ....    0.0000
   Turn off err/grad.   DampErr         ....    0.1000
 Fernandez-Rico         CNVRico         .... off

SCF Procedure:
 Maximum # iterations   MaxIter         ....   125
 SCF integral mode      SCFMode         .... Direct
   Integral package                     .... LIBINT
 Reset frequency        DirectResetFreq ....    20
 Integral Threshold     Thresh          ....  2.500e-11 Eh
 Primitive CutOff       TCut            ....  2.500e-12 Eh

Convergence Tolerance:
 Convergence Check Mode ConvCheckMode   .... Total+1el-Energy
 Convergence forced     ConvForced      .... 0
 Energy Change          TolE            ....  1.000e-08 Eh
 1-El. energy change                    ....  1.000e-05 Eh
 Orbital Gradient       TolG            ....  1.000e-05
 Orbital Rotation angle TolX            ....  1.000e-05
 DIIS Error             TolErr          ....  5.000e-07


Diagonalization of the overlap matrix:
Smallest eigenvalue                        ... 2.268e-03
Time for diagonalization                   ...    0.000 sec
Threshold for overlap eigenvalues          ... 1.000e-08
Number of eigenvalues below threshold      ... 0
Time for construction of square roots      ...    0.001 sec
Total time needed                          ...    0.001 sec

-------------------
DFT GRID GENERATION
-------------------

General Integration Accuracy     IntAcc      ...  4.340
Radial Grid Type                 RadialGrid  ... Gauss-Chebyshev
Angular Grid (max. acc.)         AngularGrid ... Lebedev-194
Angular grid pruning method      GridPruning ... 3 (G Style)
Weight generation scheme         WeightScheme... Becke
Basis function cutoff            BFCut       ...    1.0000e-11
Integration weight cutoff        WCut        ...    1.0000e-14
Grids for H and He will be reduced by one unit

# of grid points (after initial pruning)     ...  14472 (   0.0 sec)
# of grid points (after weights+screening)   ...  14036 (   0.0 sec)
nearest neighbour list constructed           ...    0.0 sec
Grid point re-assignment to atoms done       ...    0.0 sec
Grid point division into batches done        ...    0.0 sec
Reduced shell lists constructed in    0.0 sec

Total number of grid points                  ...    14036
Total number of batches                      ...      222
Average number of points per batch           ...       63
Average number of grid points per atom       ...     2339
Average number of shells per batch           ...    19.48 (81.15%)
Average number of basis functions per batch  ...    39.92 (83.17%)
Average number of large shells per batch     ...    17.11 (87.87%)
Average number of large basis fcns per batch ...    35.03 (87.75%)
Maximum spatial batch extension              ...  18.22, 21.21, 21.21 au
Average spatial batch extension              ...   3.73,  3.76,  3.82 au

Time for grid setup =    0.070 sec

------------------------------
INITIAL GUESS: MODEL POTENTIAL
------------------------------
Loading Hartree-Fock densities                     ... done
Calculating cut-offs                               ... done
Setting up the integral package                    ... done
Initializing the effective Hamiltonian             ... done
Starting the Coulomb interaction                   ... done (   0.0 sec)
Reading the grid                                   ... done
Mapping shells                                     ... done
Starting the XC term evaluation                    ... done (   0.0 sec)
  promolecular density results
     # of electrons  =     21.998085788
     EX              =    -17.653804632
     EC              =     -0.714806370
     EX+EC           =    -18.368611002
Transforming the Hamiltonian                       ... done (   0.0 sec)
Diagonalizing the Hamiltonian                      ... done (   0.0 sec)
Back transforming the eigenvectors                 ... done (   0.0 sec)
Now organizing SCF variables                       ... done
                      ------------------
                      INITIAL GUESS DONE (   0.2 sec)
                      ------------------
--------------
SCF ITERATIONS
--------------
               ***  Starting incremental Fock matrix formation  ***

                         ----------------------------
                         !        ITERATION     0   !
                         ----------------------------
   Total Energy        :    -132.548102718965 Eh
   Energy Change       :    -132.548102718965 Eh
   MAX-DP              :       0.091151199656
   RMS-DP              :       0.006066665990
   Actual Damping      :       0.7000
   Actual Level Shift  :       0.2500 Eh
   Int. Num. El.       :    21.99975122 (UP=   10.99987561 DN=   10.99987561)
   Exchange            :   -14.52799257
   Correlation         :    -0.86437841


                         ----------------------------
                         !        ITERATION     1   !
                         ----------------------------
   Total Energy        :    -132.609040998454 Eh
   Energy Change       :      -0.060938279489 Eh
   MAX-DP              :       0.054385761117
   RMS-DP              :       0.003890429041
   Actual Damping      :       0.7000
   Actual Level Shift  :       0.2500 Eh
   Int. Num. El.       :    21.99972088 (UP=   10.99986044 DN=   10.99986044)
   Exchange            :   -14.40316368
   Correlation         :    -0.85947651

                               ***Turning on DIIS***

                         ----------------------------
                         !        ITERATION     2   !
                         ----------------------------
   Total Energy        :    -132.627925536346 Eh
   Energy Change       :      -0.018884537892 Eh
   MAX-DP              :       0.062463990007
   RMS-DP              :       0.005327028007
   Actual Damping      :       0.0000
   Actual Level Shift  :       0.2500 Eh
   Int. Num. El.       :    21.99970275 (UP=   10.99985137 DN=   10.99985137)
   Exchange            :   -14.32345007
   Correlation         :    -0.85604634
   DIIS-Error          :       0.038826298355


                         ----------------------------
                         !        ITERATION     3   !
                         ----------------------------
   Total Energy        :    -132.662915893856 Eh
   Energy Change       :      -0.034990357510 Eh
   MAX-DP              :       0.040526346954
   RMS-DP              :       0.003100546641
   Actual Damping      :       0.0000
   Actual Level Shift  :       0.2500 Eh
   Int. Num. El.       :    21.99967987 (UP=   10.99983994 DN=   10.99983994)
   Exchange            :   -14.21140680
   Correlation         :    -0.85059208
   DIIS-Error          :       0.052219844182
   DIIS coefficients:
      0.55811   0.44189


                         ----------------------------
                         !        ITERATION     4   !
                         ----------------------------
   Total Energy        :    -132.668517965901 Eh
   Energy Change       :      -0.005602072046 Eh
   MAX-DP              :       0.010778015973
   RMS-DP              :       0.000968652889
   Actual Damping      :       0.0000
   Actual Level Shift  :       0.2500 Eh
   Int. Num. El.       :    21.99969263 (UP=   10.99984631 DN=   10.99984631)
   Exchange            :   -14.26307820
   Correlation         :    -0.85290923
   DIIS-Error          :       0.032758681068
   DIIS coefficients:
      0.32895   0.19619   0.47486


                         ----------------------------
                         !        ITERATION     5   !
                         ----------------------------
   Total Energy        :    -132.669909674576 Eh
   Energy Change       :      -0.001391708674 Eh
   MAX-DP              :       0.003156218224
   RMS-DP              :       0.000268686284
   Actual Damping      :       0.0000
   Actual Level Shift  :       0.2500 Eh
   Int. Num. El.       :    21.99969330 (UP=   10.99984665 DN=   10.99984665)
   Exchange            :   -14.26944754
   Correlation         :    -0.85340872
   DIIS-Error          :       0.007467845282
   DIIS coefficients:
      0.05436   0.04604  -0.11469   1.01429

                      *** Initiating the SOSCF procedure ***
                           *** Shutting down DIIS ***
                      *** Re-Reading the Fockian *** 
                      *** Removing any level shift *** 

                         ----------------------------
                         !        ITERATION     6   !
                         ----------------------------
   Total Energy        :    -132.669970416686 Eh
   Energy Change       :      -0.000060742110 Eh
   MAX-DP              :       0.000734703981
   RMS-DP              :       0.000073323299
   Orbital gradient    :       0.000349894202
   Orbital Rotation    :       0.000349894202
   Actual Damping      :       0.0000
   Int. Num. El.       :    21.99969163 (UP=   10.99984581 DN=   10.99984581)
   Exchange            :   -14.27106453
   Correlation         :    -0.85350286

               *** Restarting incremental Fock matrix formation ***

                         ----------------------------
                         !        ITERATION     7   !
                         ----------------------------
   Total Energy        :    -132.669974060725 Eh
   Energy Change       :      -0.000003644040 Eh
   MAX-DP              :       0.000342355576
   RMS-DP              :       0.000034462238
   Orbital gradient    :       0.000113770073
   Orbital Rotation    :       0.000166973530
   Actual Damping      :       0.0000
   Int. Num. El.       :    21.99969125 (UP=   10.99984563 DN=   10.99984563)
   Exchange            :   -14.27111191
   Correlation         :    -0.85351765


                         ----------------------------
                         !        ITERATION     8   !
                         ----------------------------
   Total Energy        :    -132.669974088396 Eh
   Energy Change       :      -0.000000027671 Eh
   MAX-DP              :       0.000184807900
   RMS-DP              :       0.000014157884
   Orbital gradient    :       0.000137484465
   Orbital Rotation    :       0.000130191313
   Actual Damping      :       0.0000
   Int. Num. El.       :    21.99969085 (UP=   10.99984543 DN=   10.99984543)
   Exchange            :   -14.27100202
   Correlation         :    -0.85351205


                         ----------------------------
                         !        ITERATION     9   !
                         ----------------------------
   Total Energy        :    -132.669974246949 Eh
   Energy Change       :      -0.000000158553 Eh
   MAX-DP              :       0.000142843125
   RMS-DP              :       0.000012830201
   Orbital gradient    :       0.000065791862
   Orbital Rotation    :       0.000096672000
   Actual Damping      :       0.0000
   Int. Num. El.       :    21.99969087 (UP=   10.99984543 DN=   10.99984543)
   Exchange            :   -14.27111971
   Correlation         :    -0.85351740


                         ----------------------------
                         !        ITERATION    10   !
                         ----------------------------
   Total Energy        :    -132.669974209764 Eh
   Energy Change       :       0.000000037185 Eh
   MAX-DP              :       0.000102041502
   RMS-DP              :       0.000007360740
   Orbital gradient    :       0.000066333867
   Orbital Rotation    :       0.000047900804
   Actual Damping      :       0.0000
   Int. Num. El.       :    21.99969094 (UP=   10.99984547 DN=   10.99984547)
   Exchange            :   -14.27107267
   Correlation         :    -0.85351762

                  ***Gradient check signals convergence***
              ***Rediagonalizing the Fockian in SOSCF/NRSCF***

               *****************************************************
               *                     SUCCESS                       *
               *           SCF CONVERGED AFTER  11 CYCLES          *
               *****************************************************

Setting up the final grid:

General Integration Accuracy     IntAcc      ...  5.010
Radial Grid Type                 RadialGrid  ... Gauss-Chebyshev
Angular Grid (max. acc.)         AngularGrid ... Lebedev-434
Angular grid pruning method      GridPruning ... 3 (G Style)
Weight generation scheme         WeightScheme... Becke
Basis function cutoff            BFCut       ...    1.0000e-11
Integration weight cutoff        WCut        ...    1.0000e-14
Grids for H and He will be reduced by one unit

# of grid points (after initial pruning)     ...  52062 (   0.0 sec)
# of grid points (after weights+screening)   ...  50268 (   0.0 sec)
nearest neighbour list constructed           ...    0.0 sec
Grid point re-assignment to atoms done       ...    0.0 sec
Grid point division into batches done        ...    0.3 sec
Reduced shell lists constructed in    0.4 sec

Total number of grid points                  ...    50268
Total number of batches                      ...      788
Average number of points per batch           ...       63
Average number of grid points per atom       ...     8378
Average number of shells per batch           ...    18.36 (76.50%)
Average number of basis functions per batch  ...    37.58 (78.28%)
Average number of large shells per batch     ...    15.76 (85.81%)
Average number of large basis fcns per batch ...    31.97 (85.08%)
Maximum spatial batch extension              ...  19.43, 16.91, 16.03 au
Average spatial batch extension              ...   2.55,  2.58,  2.56 au

Final grid set up in    0.4 sec
Final integration                            ... done (   0.2 sec)
Change in XC energy                          ...    -0.000051956
Integrated number of electrons               ...    21.999998868
Previous integrated no of electrons          ...    21.999690904

----------------
TOTAL SCF ENERGY
----------------

Total Energy       :         -132.67002623 Eh           -3610.13495 eV

Components:
Nuclear Repulsion  :           58.18914613 Eh            1583.40717 eV
Electronic Energy  :         -190.85917237 Eh           -5193.54211 eV
One Electron Energy:         -293.09508393 Eh           -7975.52270 eV
Two Electron Energy:          102.23591157 Eh            2781.98059 eV

Virial components:
Potential Energy   :         -264.43643225 Eh           -7195.68114 eV
Kinetic Energy     :          131.76640601 Eh            3585.54619 eV
Virial Ratio       :            2.00685774


DFT components:
N(Alpha)           :       10.999999434082 electrons
N(Beta)            :       10.999999434082 electrons
N(Total)           :       21.999998868164 electrons
E(X)               :      -14.271127311149 Eh       
E(C)               :       -0.853512615139 Eh       
E(XC)              :      -15.124639926288 Eh       
DFET-embed. en.    :        0.000000000000 Eh       

---------------
SCF CONVERGENCE
---------------

  Last Energy change         ...   -6.7504e-08  Tolerance :   1.0000e-08
  Last MAX-Density change    ...    9.0798e-06  Tolerance :   1.0000e-07
  Last RMS-Density change    ...    8.8297e-07  Tolerance :   5.0000e-09
  Last Orbital Gradient      ...    2.2772e-06  Tolerance :   1.0000e-05
  Last Orbital Rotation      ...    2.7856e-06  Tolerance :   1.0000e-05

             **** THE GBW FILE WAS UPDATED (/Users/lailaal-madhagi/Desktop/Testing_XAS_Analysis_code/Acetonitrile//Results_dir_Acetonitrile_geom_element_C_2019-11-03_21-19-33//GTE1_Acetonitrile_geom_2019-11-03_21-20-24//opt.gbw) ****
             **** DENSITY FILE WAS UPDATED (/Users/lailaal-madhagi/Desktop/Testing_XAS_Analysis_code/Acetonitrile//Results_dir_Acetonitrile_geom_element_C_2019-11-03_21-19-33//GTE1_Acetonitrile_geom_2019-11-03_21-20-24//opt.scfp.tmp) ****
             **** ENERGY FILE WAS UPDATED (/Users/lailaal-madhagi/Desktop/Testing_XAS_Analysis_code/Acetonitrile//Results_dir_Acetonitrile_geom_element_C_2019-11-03_21-19-33//GTE1_Acetonitrile_geom_2019-11-03_21-20-24//opt.en.tmp) ****
----------------
ORBITAL ENERGIES
----------------

  NO   OCC          E(Eh)            E(eV) 
   0   2.0000     -14.327728      -389.8773 
   1   2.0000     -10.233275      -278.4616 
   2   2.0000     -10.222855      -278.1780 
   3   2.0000      -0.899394       -24.4737 
   4   2.0000      -0.770367       -20.9628 
   5   2.0000      -0.508442       -13.8354 
   6   2.0000      -0.459871       -12.5137 
   7   2.0000      -0.459838       -12.5128 
   8   2.0000      -0.353531        -9.6201 
   9   2.0000      -0.322935        -8.7875 
  10   2.0000      -0.322926        -8.7873 
  11   0.0000       0.040853         1.1117 
  12   0.0000       0.040892         1.1127 
  13   0.0000       0.083552         2.2736 
  14   0.0000       0.159916         4.3515 
  15   0.0000       0.159977         4.3532 
  16   0.0000       0.186257         5.0683 
  17   0.0000       0.290740         7.9114 
  18   0.0000       0.534019        14.5314 
  19   0.0000       0.534137        14.5346 
  20   0.0000       0.584367        15.9014 
  21   0.0000       0.631402        17.1813 
  22   0.0000       0.631570        17.1859 
  23   0.0000       0.686822        18.6894 
  24   0.0000       0.793458        21.5911 
  25   0.0000       0.807536        21.9742 
  26   0.0000       0.807574        21.9752 
  27   0.0000       0.849668        23.1206 
  28   0.0000       0.849768        23.1234 
  29   0.0000       0.877449        23.8766 
  30   0.0000       1.057710        28.7818 
  31   0.0000       1.391802        37.8729 
  32   0.0000       1.407923        38.3115 
  33   0.0000       1.408020        38.3142 
  34   0.0000       1.525427        41.5090 
  35   0.0000       1.525433        41.5091 
  36   0.0000       1.628157        44.3044 
  37   0.0000       1.899363        51.6843 
  38   0.0000       1.899459        51.6869 
  39   0.0000       1.965986        53.4972 
  40   0.0000       1.966059        53.4992 
  41   0.0000       2.150210        58.5102 
  42   0.0000       2.190986        59.6198 
  43   0.0000       2.191116        59.6233 
  44   0.0000       2.754854        74.9634 
  45   0.0000       2.754929        74.9654 
  46   0.0000       2.770085        75.3778 
  47   0.0000       3.234320        88.0103 
------------------
MOLECULAR ORBITALS
------------------
                      0         1         2         3         4         5   
                 -14.32773 -10.23327 -10.22285  -0.89939  -0.77037  -0.50844
                   2.00000   2.00000   2.00000   2.00000   2.00000   2.00000
                  --------  --------  --------  --------  --------  --------
  0C   1s        -0.000160 -0.995280 -0.008455  0.038647  0.187677  0.043573
  0C   2s        -0.000574 -0.037575 -0.002659 -0.076012 -0.363401 -0.087694
  0C   1pz        0.000000  0.000000  0.000000  0.000006  0.000017  0.000069
  0C   1px        0.001155 -0.000796 -0.001528 -0.034668 -0.046246  0.399225
  0C   1py       -0.000001  0.000001  0.000001  0.000039  0.000089 -0.000532
  0C   3s         0.017632  0.035742  0.017705 -0.001499 -0.357253 -0.092190
  0C   2pz        0.000000 -0.000000 -0.000000 -0.000028 -0.000049  0.000128
  0C   2px        0.006962  0.003478  0.008493  0.021479 -0.014139  0.174599
  0C   2py       -0.000004 -0.000006 -0.000005  0.000004  0.000037 -0.000231
  0C   1dz2      -0.000291  0.000129  0.000971  0.002065 -0.000598 -0.012916
  0C   1dxz       0.000000  0.000000  0.000000  0.000001  0.000002 -0.000004
  0C   1dyz      -0.000000  0.000000 -0.000000 -0.000002 -0.000003  0.000017
  0C   1dx2y2     0.000504 -0.000223 -0.001682 -0.003581  0.001025  0.022379
  0C   1dxy      -0.000000  0.000000  0.000002  0.000008  0.000008 -0.000019
  1C   1s         0.000398 -0.008470  0.994960  0.157511  0.041756 -0.113272
  1C   2s        -0.000022  0.001496  0.036622 -0.286035 -0.090356  0.240646
  1C   1pz        0.000000 -0.000000  0.000000  0.000011  0.000010  0.000003
  1C   1px       -0.002677 -0.000677  0.001024 -0.183421  0.233625 -0.265320
  1C   1py        0.000003  0.000001 -0.000002  0.000209 -0.000197  0.000176
  1C   3s         0.014630 -0.008457 -0.008274 -0.117392 -0.055256  0.228619
  1C   2pz       -0.000000  0.000000 -0.000000 -0.000014 -0.000012  0.000032
  1C   2px        0.029888  0.007995  0.023901  0.092395  0.002911 -0.039952
  1C   2py       -0.000029 -0.000007 -0.000022 -0.000083  0.000007  0.000009
  1C   1dz2       0.001149 -0.000841 -0.001814  0.011745  0.004704 -0.001312
  1C   1dxz       0.000000  0.000000 -0.000000 -0.000004 -0.000006  0.000006
  1C   1dyz       0.000000  0.000000 -0.000000 -0.000000 -0.000001  0.000001
  1C   1dx2y2    -0.001990  0.001456  0.003143 -0.020344 -0.008150  0.002277
  1C   1dxy       0.000004 -0.000002 -0.000006  0.000042  0.000008  0.000002
  2H   1s        -0.000303  0.000351 -0.000735 -0.018387 -0.112936 -0.119257
  2H   2s        -0.000316 -0.005558  0.000692  0.001173 -0.021777 -0.072893
  3H   1s        -0.000303  0.000351 -0.000735 -0.018397 -0.112987 -0.119170
  3H   2s        -0.000316 -0.005560  0.000692  0.001142 -0.021833 -0.072657
  4H   1s        -0.000304  0.000351 -0.000735 -0.018384 -0.112940 -0.119554
  4H   2s        -0.000316 -0.005557  0.000691  0.001131 -0.021841 -0.072887
  5N   1s         0.995472 -0.000005 -0.000440  0.174535 -0.062543  0.060445
  5N   2s         0.034477 -0.000485  0.000107 -0.350344  0.130402 -0.129978
  5N   1pz        0.000000 -0.000000 -0.000000 -0.000003  0.000002  0.000009
  5N   1px       -0.003742  0.000622  0.002724  0.196396 -0.057171 -0.025437
  5N   1py        0.000004 -0.000001 -0.000003 -0.000207  0.000072 -0.000018
  5N   3s        -0.043916 -0.003121 -0.022578 -0.360859  0.126234 -0.175018
  5N   2pz       -0.000000 -0.000000 -0.000000  0.000005  0.000006 -0.000006
  5N   2px        0.013669  0.000336  0.008979  0.065644 -0.010657 -0.018759
  5N   2py       -0.000016 -0.000001 -0.000011 -0.000075  0.000012  0.000004
  5N   1dz2      -0.000441  0.000146  0.000835  0.008625 -0.002809 -0.001162
  5N   1dxz      -0.000000  0.000000  0.000000 -0.000001 -0.000002  0.000001
  5N   1dyz       0.000000  0.000000 -0.000000  0.000000  0.000000  0.000000
  5N   1dx2y2     0.000764 -0.000253 -0.001447 -0.014939  0.004865  0.002012
  5N   1dxy      -0.000002  0.000001  0.000004  0.000032 -0.000013  0.000001
                      6         7         8         9        10        11   
                  -0.45987  -0.45984  -0.35353  -0.32294  -0.32293   0.04085
                   2.00000   2.00000   2.00000   2.00000   2.00000   0.00000
                  --------  --------  --------  --------  --------  --------
  0C   1s        -0.000001  0.000007  0.012510 -0.000003 -0.000008 -0.000131
  0C   2s        -0.000013 -0.000048 -0.018657  0.000036 -0.000052 -0.000058
  0C   1pz       -0.091127 -0.425487 -0.000012  0.072794 -0.122038  0.063751
  0C   1px       -0.000485  0.000188 -0.128251 -0.000111 -0.000075 -0.000106
  0C   1py       -0.425405  0.091108  0.000040 -0.122005 -0.072812 -0.061685
  0C   3s         0.000078  0.000351 -0.188169 -0.000075  0.000283  0.002721
  0C   2pz       -0.043048 -0.201192 -0.000029  0.041305 -0.069274  0.302334
  0C   2px       -0.000196  0.000288 -0.133936 -0.000112  0.000035  0.000372
  0C   2py       -0.201421  0.043151  0.000049 -0.069291 -0.041379 -0.293265
  0C   1dz2      -0.002741 -0.016963  0.001968  0.004342 -0.006504 -0.008915
  0C   1dxz       0.001208  0.005626  0.000001 -0.009166  0.015367  0.029388
  0C   1dyz       0.019584 -0.003167  0.000000  0.007515  0.005002 -0.009044
  0C   1dx2y2    -0.001610 -0.009771 -0.003408  0.002516 -0.003747 -0.005173
  0C   1dxy       0.005628 -0.001202  0.000003  0.015361  0.009168 -0.028517
  1C   1s         0.000100 -0.000036 -0.063356  0.000002  0.000006  0.000037
  1C   2s        -0.000202  0.000161  0.120910  0.000009 -0.000033 -0.000071
  1C   1pz       -0.036324 -0.169546  0.000017 -0.193636  0.324523  0.302626
  1C   1px        0.000024 -0.000067  0.257367  0.000345  0.000215 -0.000185
  1C   1py       -0.169522  0.036292 -0.000274  0.324542  0.193631 -0.293713
  1C   3s        -0.000250 -0.000011  0.061114 -0.000017 -0.000018 -0.000914
  1C   2pz       -0.015116 -0.070560  0.000016 -0.115748  0.193988  0.346808
  1C   2px        0.000065  0.000472 -0.167959  0.000152  0.000256  0.000379
  1C   2py       -0.070538  0.015105  0.000149  0.194021  0.115759 -0.336646
  1C   1dz2      -0.000177 -0.001089  0.003804  0.000388 -0.000581 -0.002715
  1C   1dxz       0.001796  0.008370  0.000002 -0.013913  0.023324 -0.027876
  1C   1dyz       0.001266 -0.000208  0.000000  0.000678  0.000416 -0.002709
  1C   1dx2y2    -0.000097 -0.000637 -0.006590  0.000272 -0.000302 -0.001511
  1C   1dxy       0.008362 -0.001787  0.000015  0.023322  0.013918  0.027046
  2H   1s        -0.048053 -0.244772  0.022009  0.061459 -0.099148 -0.109769
  2H   2s        -0.035060 -0.178354  0.023590  0.062877 -0.101450 -0.504923
  3H   1s         0.236073  0.080634  0.022031  0.055172  0.102787 -0.034392
  3H   2s         0.171933  0.058794  0.023542  0.056394  0.105032 -0.158174
  4H   1s        -0.187774  0.163997  0.022031 -0.116574 -0.003624  0.144144
  4H   2s        -0.136728  0.119510  0.023539 -0.119174 -0.003714  0.660478
  5N   1s        -0.000046  0.000024  0.109372 -0.000001 -0.000004 -0.000011
  5N   2s         0.000109 -0.000012 -0.248522 -0.000002  0.000014  0.000057
  5N   1pz       -0.019861 -0.092720  0.000030 -0.232094  0.389010 -0.304314
  5N   1px       -0.000053  0.000001 -0.501040  0.000412  0.000289  0.000243
  5N   1py       -0.092701  0.019850  0.000533  0.388998  0.232106  0.295367
  5N   3s         0.000074 -0.000428 -0.290427  0.000052 -0.000084 -0.000258
  5N   2pz       -0.008780 -0.040992  0.000018 -0.133078  0.223056 -0.361585
  5N   2px        0.000007  0.000111 -0.315869  0.000221  0.000193  0.000361
  5N   2py       -0.040981  0.008775  0.000348  0.223031  0.133081  0.350969
  5N   1dz2       0.000003  0.000009 -0.016061  0.000012 -0.000016 -0.000347
  5N   1dxz       0.002156  0.010063 -0.000002  0.016428 -0.027534 -0.004313
  5N   1dyz      -0.000013 -0.000009  0.000000  0.000004  0.000044 -0.000343
  5N   1dx2y2     0.000020 -0.000000  0.027818 -0.000051 -0.000048 -0.000182
  5N   1dxy       0.010060 -0.002154 -0.000060 -0.027533 -0.016427  0.004183
                     12        13        14        15        16        17   
                   0.04089   0.08355   0.15992   0.15998   0.18626   0.29074
                   0.00000   0.00000   0.00000   0.00000   0.00000   0.00000
                  --------  --------  --------  --------  --------  --------
  0C   1s        -0.000110  0.152585  0.000161 -0.000073 -0.055188  0.061217
  0C   2s        -0.000071 -0.233569  0.000322  0.000469  0.104782  0.218262
  0C   1pz        0.061806 -0.000044 -0.410575 -0.174498 -0.000968  0.000711
  0C   1px       -0.000205  0.080930 -0.000786  0.000822  0.421629  0.332426
  0C   1py        0.063549 -0.000070 -0.174410  0.410583 -0.001178 -0.000074
  0C   3s         0.002275 -2.032620 -0.006007 -0.000979  0.614226 -3.790513
  0C   2pz        0.293297 -0.000529 -1.207191 -0.512673 -0.003264  0.001924
  0C   2px        0.000362  0.457128 -0.007880  0.000417  1.462149 -2.385010
  0C   2py        0.302072  0.000055 -0.512881  1.207553 -0.003633  0.002007
  0C   1dz2      -0.007816  0.000987  0.009683  0.004746  0.019002 -0.009470
  0C   1dxz       0.028533  0.000064  0.013781  0.005861  0.000017  0.000051
  0C   1dyz       0.010269 -0.000004 -0.005465  0.011236 -0.000014  0.000020
  0C   1dx2y2    -0.004477 -0.001746  0.005692  0.002663 -0.032833  0.016244
  0C   1dxy       0.029398 -0.000001  0.005834 -0.013757  0.000088  0.000004
  1C   1s         0.000028 -0.023079 -0.000404  0.000134  0.127054 -0.032663
  1C   2s        -0.000109 -0.039278  0.000573 -0.000133 -0.143403  0.205958
  1C   1pz        0.293760  0.000673  0.203589  0.086518  0.000539 -0.000101
  1C   1px        0.000434 -0.035290 -0.000873  0.000009  0.257566 -0.187561
  1C   1py        0.302734  0.000013  0.086328 -0.203394  0.000262  0.000165
  1C   3s        -0.000377  0.802300  0.005727 -0.002122 -2.473669 -1.113348
  1C   2pz        0.336661  0.000608  0.534813  0.227282  0.001315 -0.000799
  1C   2px        0.001031  0.396801 -0.007567 -0.002152  0.374276 -5.029100
  1C   2py        0.346992 -0.000442  0.227117 -0.535029  0.001123  0.004662
  1C   1dz2      -0.002380  0.007203  0.007918  0.003810 -0.013272 -0.014287
  1C   1dxz      -0.027044 -0.000049 -0.000666 -0.000266 -0.000004 -0.000043
  1C   1dyz       0.003148  0.000002 -0.004434  0.009133 -0.000022  0.000006
  1C   1dx2y2    -0.001433 -0.012485  0.004556  0.002269  0.023040  0.024713
  1C   1dxy      -0.027862  0.000032 -0.000283  0.000638 -0.000051 -0.000037
  2H   1s        -0.103003  0.035086  0.040982  0.018311  0.068587 -0.034665
  2H   2s        -0.473661  1.057648  1.454062  0.647341  0.329599  0.153060
  3H   1s         0.146580  0.035366 -0.036834  0.026740  0.068213 -0.033767
  3H   2s         0.671991  1.056983 -1.289454  0.937053  0.321048  0.156449
  4H   1s        -0.043610  0.035387 -0.004926 -0.044992  0.068091 -0.033876
  4H   2s        -0.200394  1.056879 -0.168375 -1.583963  0.327285  0.155242
  5N   1s        -0.000000  0.027690  0.000032 -0.000089 -0.056919 -0.099442
  5N   2s         0.000026 -0.036611 -0.000506  0.000132  0.155408  0.030186
  5N   1pz       -0.295321 -0.000512 -0.179688 -0.076327 -0.000404  0.000164
  5N   1px       -0.000360  0.080299  0.000438 -0.000062 -0.210185 -0.014027
  5N   1py       -0.304353 -0.000020 -0.076263  0.179565 -0.000200  0.000034
  5N   3s        -0.000389 -0.661325  0.004403  0.002161  0.627725  4.571160
  5N   2pz       -0.350941 -0.000607 -0.311832 -0.132511 -0.000745  0.000419
  5N   2px       -0.000315  0.309372 -0.001102 -0.000647 -0.449928 -1.705530
  5N   2py       -0.361691 -0.000305 -0.132379  0.311842 -0.000331  0.002083
  5N   1dz2      -0.000302  0.005996  0.001212  0.000575 -0.009376 -0.023094
  5N   1dxz      -0.004189 -0.000018 -0.004795 -0.002036 -0.000019 -0.000001
  5N   1dyz       0.000402  0.000001 -0.000675  0.001402 -0.000003  0.000001
  5N   1dx2y2    -0.000182 -0.010385  0.000697  0.000373  0.016246  0.039995
  5N   1dxy      -0.004314  0.000024 -0.002031  0.004783 -0.000050 -0.000090
                     18        19        20        21        22        23   
                   0.53402   0.53414   0.58437   0.63140   0.63157   0.68682
                   0.00000   0.00000   0.00000   0.00000   0.00000   0.00000
                  --------  --------  --------  --------  --------  --------
  0C   1s        -0.000007  0.000006  0.030356  0.000006 -0.000000 -0.018049
  0C   2s        -0.000061 -0.000773 -0.204939 -0.000017 -0.000506  0.051210
  0C   1pz       -0.080583 -0.432384  0.000480 -0.433689 -0.531421  0.000171
  0C   1px        0.000432 -0.000209 -0.763678 -0.000640 -0.000455  0.206257
  0C   1py        0.433245 -0.081263  0.000156 -0.531332  0.433942 -0.000717
  0C   3s         0.000647 -0.000790 -1.334827 -0.001611 -0.000400  0.932786
  0C   2pz        0.174013  0.934940 -0.002302  1.172057  1.436246 -0.000135
  0C   2px        0.000041 -0.000805  0.476527 -0.000230  0.000304  0.170012
  0C   2py       -0.936936  0.175764  0.000422  1.435037 -1.172519  0.001240
  0C   1dz2      -0.015262 -0.063931  0.005774 -0.050567 -0.068748 -0.015272
  0C   1dxz       0.001438  0.007898 -0.000096  0.005147  0.006273  0.000031
  0C   1dyz      -0.073943  0.017738  0.000021  0.079223 -0.058384  0.000055
  0C   1dx2y2    -0.008830 -0.037070 -0.009564 -0.029295 -0.039801  0.026378
  0C   1dxy      -0.007832  0.001492  0.000002  0.006205 -0.005066 -0.000048
  1C   1s         0.000004 -0.000007 -0.067360 -0.000043 -0.000047  0.040406
  1C   2s         0.000042 -0.001083  0.018543 -0.000035 -0.000660 -0.858403
  1C   1pz       -0.147507 -0.788466 -0.000329  0.325557  0.398034  0.000034
  1C   1px        0.000737  0.000316 -0.065925  0.000846 -0.000264 -0.588342
  1C   1py        0.788036 -0.146928  0.000421  0.399140 -0.325502  0.000809
  1C   3s        -0.000894  0.000220 -2.514222  0.001467 -0.003265 -0.402741
  1C   2pz        0.109881  0.585976  0.001448 -0.763056 -0.933965 -0.000071
  1C   2px       -0.000179 -0.003364 -2.939601 -0.003155 -0.002386  1.302796
  1C   2py       -0.584774  0.108761  0.002132 -0.934601  0.762975 -0.001730
  1C   1dz2      -0.002372 -0.009912  0.084293 -0.009929 -0.013421 -0.014940
  1C   1dxz      -0.001700 -0.009022  0.000043  0.023161  0.028322 -0.000020
  1C   1dyz      -0.011499  0.002780  0.000007  0.015564 -0.011519  0.000015
  1C   1dx2y2    -0.001343 -0.005832 -0.145943 -0.005714 -0.008053  0.025877
  1C   1dxy       0.008959 -0.001648  0.000292  0.028441 -0.023179 -0.000005
  2H   1s        -0.064159 -0.315564  0.115352 -0.175520 -0.222346 -0.059878
  2H   2s        -0.058832 -0.288738  0.111589 -0.342842 -0.435092 -0.007419
  3H   1s        -0.241132  0.213662  0.114053  0.279623 -0.040293 -0.059564
  3H   2s        -0.221207  0.195246  0.111134  0.547739 -0.079977 -0.007227
  4H   1s         0.305688  0.101908  0.113854 -0.104171  0.262967 -0.059634
  4H   2s         0.279743  0.092532  0.111093 -0.205487  0.515054 -0.008377
  5N   1s        -0.000009 -0.000046 -0.077753  0.000015 -0.000111 -0.053496
  5N   2s        -0.000004  0.000014  0.182839  0.000013  0.000320  0.043564
  5N   1pz       -0.024006 -0.128482 -0.000239  0.215658  0.264274  0.000057
  5N   1px        0.000157  0.000177  0.427228  0.000313  0.000460  0.219751
  5N   1py        0.128094 -0.023928 -0.000214  0.264218 -0.215998 -0.000055
  5N   3s         0.000071  0.002670  3.268685  0.000765  0.003778 -0.133198
  5N   2pz        0.023099  0.124170 -0.000256 -0.014633 -0.018135 -0.000013
  5N   2px       -0.000339 -0.001077 -1.864864  0.000233 -0.002627 -1.184901
  5N   2py       -0.124142  0.023287  0.002123 -0.018182  0.015062  0.001125
  5N   1dz2      -0.000194 -0.000835 -0.050133 -0.001115 -0.001546  0.054161
  5N   1dxz       0.012403  0.066325  0.000006 -0.019295 -0.023572  0.000002
  5N   1dyz      -0.000941  0.000149  0.000001  0.001734 -0.001245  0.000002
  5N   1dx2y2    -0.000254 -0.000383  0.086836 -0.000637 -0.000728 -0.093808
  5N   1dxy      -0.066297  0.012366 -0.000196 -0.023681  0.019296  0.000185
                     24        25        26        27        28        29   
                   0.79346   0.80754   0.80757   0.84967   0.84977   0.87745
                   0.00000   0.00000   0.00000   0.00000   0.00000   0.00000
                  --------  --------  --------  --------  --------  --------
  0C   1s         0.066498  0.000220  0.000394 -0.000067 -0.000037  0.032907
  0C   2s        -0.104275 -0.000782 -0.000771  0.002034  0.000679 -0.963653
  0C   1pz       -0.001723 -0.489852  0.457826  0.394125  0.060762  0.000885
  0C   1px       -0.056241  0.000253 -0.000339 -0.001141 -0.000658  0.662883
  0C   1py       -0.004627  0.457655  0.488909  0.061481 -0.394287 -0.000620
  0C   3s         1.655779  0.006318  0.010836 -0.003038 -0.001004  1.593208
  0C   2pz        0.003549  0.953680 -0.891243 -0.212488 -0.032344 -0.001015
  0C   2px        1.433597  0.003829  0.009024  0.002392  0.001156 -1.221339
  0C   2py        0.008395 -0.891335 -0.952061 -0.033992  0.212796  0.001264
  0C   1dz2      -0.043329  0.059465 -0.050703 -0.129126 -0.026712  0.067402
  0C   1dxz      -0.000165 -0.081448  0.076211  0.075087  0.011586  0.000096
  0C   1dyz      -0.000531  0.058222  0.068804  0.030806 -0.149282 -0.000013
  0C   1dx2y2     0.075010  0.034796 -0.028621 -0.074452 -0.015424 -0.116994
  0C   1dxy      -0.000926  0.076136  0.081385  0.011694 -0.075210  0.000029
  1C   1s        -0.010915 -0.000023 -0.000085  0.000001  0.000051 -0.037549
  1C   2s         1.137322  0.003443  0.006973  0.000666  0.000199 -0.283943
  1C   1pz        0.000277  0.178156 -0.166840  0.355808  0.055104  0.000666
  1C   1px       -0.697067 -0.002643 -0.004459 -0.000209 -0.000367  0.425867
  1C   1py        0.002021 -0.166920 -0.178467  0.054956 -0.355735 -0.000540
  1C   3s        -2.078024 -0.006630 -0.013697 -0.001609 -0.000949  0.906589
  1C   2pz       -0.001537 -0.546499  0.511438 -0.996574 -0.154442 -0.001433
  1C   2px        2.724987  0.009554  0.017357  0.000944  0.001341 -0.706227
  1C   2py       -0.006997  0.511832  0.547027 -0.153731  0.996323  0.000759
  1C   1dz2      -0.008787 -0.010693  0.008975  0.001729  0.000296  0.049458
  1C   1dxz      -0.000053  0.004148 -0.003828 -0.124896 -0.019357 -0.000142
  1C   1dyz       0.000135 -0.010365 -0.012268 -0.000331  0.001996  0.000013
  1C   1dx2y2     0.015173 -0.006049  0.005228  0.000961  0.000487 -0.085623
  1C   1dxy       0.000029 -0.003776 -0.004013 -0.019301  0.124898  0.000263
  2H   1s         0.416355  0.425616 -0.381165 -0.615492 -0.106022  0.449982
  2H   2s         0.057936 -0.957877  0.866116  0.932101  0.160378 -0.977253
  3H   1s         0.412017  0.121255  0.561430  0.398707 -0.480658  0.450929
  3H   2s         0.069599 -0.270699 -1.260705 -0.603149  0.727826 -0.979082
  4H   1s         0.418576 -0.542966 -0.172578  0.215107  0.585650  0.451330
  4H   2s         0.053713  1.228623  0.395617 -0.324345 -0.885893 -0.980243
  5N   1s         0.014357  0.000038  0.000096 -0.000003 -0.000019  0.015537
  5N   2s        -0.146788 -0.000553 -0.001128  0.000092  0.000277 -0.059767
  5N   1pz       -0.001175 -0.473121  0.443079 -0.602118 -0.093271 -0.000851
  5N   1px       -0.168332 -0.000204 -0.000450 -0.000107  0.000428  0.371269
  5N   1py       -0.004072  0.443311  0.473973 -0.092874  0.601324 -0.000123
  5N   3s        -1.005371 -0.003184 -0.005608 -0.000385 -0.000207  0.126220
  5N   2pz        0.001855  0.698345 -0.653949  1.103052  0.170914  0.001524
  5N   2px        0.239807  0.000001  0.000442  0.000216 -0.000936 -0.206276
  5N   2py        0.005722 -0.654353 -0.699595  0.170157 -1.102093 -0.000163
  5N   1dz2       0.018685 -0.003107  0.002810  0.002447  0.000495 -0.035446
  5N   1dxz       0.000028  0.001575 -0.001485  0.021642  0.003367  0.000009
  5N   1dyz       0.000036 -0.003121 -0.003687 -0.000620  0.002825 -0.000001
  5N   1dx2y2    -0.032379 -0.002012  0.001374  0.001421  0.000243  0.061408
  5N   1dxy       0.000085 -0.001483 -0.001598  0.003328 -0.021647 -0.000142
                     30        31        32        33        34        35   
                   1.05771   1.39180   1.40792   1.40802   1.52543   1.52543
                   0.00000   0.00000   0.00000   0.00000   0.00000   0.00000
                  --------  --------  --------  --------  --------  --------
  0C   1s         0.015669 -0.133315  0.000440  0.000408  0.000018  0.000016
  0C   2s        -1.458495 -1.631503  0.005694  0.005389  0.000097  0.000245
  0C   1pz        0.000427 -0.000056 -0.122683  0.116324 -0.000102 -0.005292
  0C   1px       -0.307028  0.087241 -0.000212 -0.000183  0.000005 -0.000005
  0C   1py        0.000182 -0.000908 -0.116351 -0.122679 -0.005240  0.000076
  0C   3s         1.719322  6.163808 -0.021018 -0.019908  0.000447 -0.000732
  0C   2pz       -0.000753 -0.000006  0.087113 -0.082434  0.003871  0.240062
  0C   2px       -0.443417  1.729790 -0.005700 -0.005334  0.000289 -0.000138
  0C   2py       -0.000016 -0.000960  0.082667  0.086973  0.239949 -0.004064
  0C   1dz2       0.003208 -0.007344  0.185091 -0.194227 -0.001635  0.049036
  0C   1dxz       0.000024  0.000164  0.378334 -0.358926 -0.001713 -0.103598
  0C   1dyz      -0.000122 -0.001560 -0.224282 -0.213665 -0.056612 -0.001895
  0C   1dx2y2    -0.005596  0.012816  0.107233 -0.111716 -0.001020  0.028319
  0C   1dxy       0.000127  0.002379  0.358757  0.378523 -0.103651  0.001707
  1C   1s         0.042570  0.011978 -0.000062 -0.000064  0.000013  0.000000
  1C   2s        -0.693138  0.873371 -0.002736 -0.002474  0.000053 -0.000075
  1C   1pz        0.000321  0.000071  0.054012 -0.051205 -0.000247 -0.010276
  1C   1px       -0.398789  0.006859  0.000132  0.000125 -0.000073 -0.000007
  1C   1py        0.000581  0.000340  0.051218  0.054000 -0.010283  0.000092
  1C   3s         0.099032 -5.331643  0.016747  0.014802  0.001885  0.000662
  1C   2pz       -0.000505 -0.000152 -0.135590  0.128387 -0.000952 -0.066856
  1C   2px       -1.375659  1.898922 -0.006914 -0.007025  0.001913 -0.000019
  1C   2py        0.000880 -0.002299 -0.128584 -0.135399 -0.066840  0.001256
  1C   1dz2      -0.043853  0.114096  0.082676 -0.087354 -0.020773  0.612888
  1C   1dxz      -0.000008 -0.000151 -0.370551  0.351171  0.001195  0.113928
  1C   1dyz      -0.000038 -0.000772 -0.100204 -0.096242 -0.707711 -0.024020
  1C   1dx2y2     0.075995 -0.197395  0.047850 -0.050451 -0.011625  0.353878
  1C   1dxy      -0.000359 -0.001591 -0.351360 -0.370324  0.113994 -0.002565
  2H   1s         0.052250 -0.520206  0.101967 -0.096719  0.000139 -0.097239
  2H   2s        -0.670693 -0.381063 -0.104435  0.105109  0.000012 -0.125992
  3H   1s         0.052632 -0.520817 -0.133372 -0.036018  0.084285  0.048667
  3H   2s        -0.672222 -0.380651  0.144145  0.041103  0.109135  0.063181
  4H   1s         0.052897 -0.519572  0.036752  0.137713 -0.084281  0.048731
  4H   2s        -0.672046 -0.381783 -0.035589 -0.142200 -0.109074  0.063076
  5N   1s        -0.047933  0.013144 -0.000032 -0.000029  0.000009  0.000000
  5N   2s         0.211426 -0.928792  0.002487  0.001987  0.000764  0.000139
  5N   1pz       -0.000184  0.000021  0.130756 -0.124013 -0.000797 -0.047890
  5N   1px       -0.703472  0.189734 -0.000287 -0.000237 -0.000049 -0.000015
  5N   1py        0.000698  0.000435  0.123985  0.130777 -0.047905  0.000783
  5N   3s         1.127113  1.694052 -0.004280 -0.002832 -0.003198 -0.000406
  5N   2pz        0.000404  0.000108  0.067592 -0.063979  0.000473  0.033025
  5N   2px        0.028370 -1.058121  0.002995  0.002375  0.001140  0.000182
  5N   2py        0.000374  0.001467  0.064095  0.067469  0.033020 -0.000618
  5N   1dz2       0.071699 -0.020558  0.040108 -0.041930 -0.016943  0.500931
  5N   1dxz       0.000007  0.000084  0.224470 -0.212972 -0.001879 -0.071896
  5N   1dyz      -0.000012 -0.000358 -0.048774 -0.046037 -0.578413 -0.019460
  5N   1dx2y2    -0.124171  0.035719  0.023490 -0.023846 -0.009906  0.289215
  5N   1dxy       0.000340  0.001026  0.212847  0.224588 -0.071901  0.000493
                     36        37        38        39        40        41   
                   1.62816   1.89936   1.89946   1.96599   1.96606   2.15021
                   0.00000   0.00000   0.00000   0.00000   0.00000   0.00000
                  --------  --------  --------  --------  --------  --------
  0C   1s         0.080895 -0.000089 -0.000098 -0.000038  0.000030 -0.002639
  0C   2s         1.136646 -0.000753 -0.000923 -0.000307  0.000216 -0.229091
  0C   1pz        0.000012 -0.026558  0.026146 -0.023636 -0.028693 -0.000013
  0C   1px       -0.175422  0.000103  0.000153  0.000077 -0.000080 -0.054756
  0C   1py        0.000200  0.026137  0.026531  0.028706 -0.023652 -0.000050
  0C   3s        -7.812813  0.004696  0.004770  0.002146 -0.001689 -0.518255
  0C   2pz        0.000141  0.481713 -0.473783  0.024541  0.030135 -0.000118
  0C   2px       -2.717060  0.001565  0.001413  0.000622 -0.000532  0.199877
  0C   2py        0.001829 -0.474303 -0.481024 -0.029863  0.024906 -0.001171
  0C   1dz2       0.111137  0.316885 -0.281645 -0.026193 -0.028821 -0.495036
  0C   1dxz      -0.000004  0.349209 -0.343579  0.284447  0.345844  0.000212
  0C   1dyz       0.000051  0.325508  0.365378 -0.033447  0.030139  0.001381
  0C   1dx2y2    -0.192258  0.182471 -0.162912 -0.015692 -0.016253  0.857206
  0C   1dxy      -0.000322 -0.343920 -0.348952 -0.345400  0.285007 -0.000607
  1C   1s        -0.059217  0.000039  0.000039  0.000019 -0.000017 -0.009064
  1C   2s        -0.864196  0.000596  0.000449  0.000328 -0.000230 -0.552295
  1C   1pz        0.000056 -0.126413  0.124553 -0.086978 -0.105706 -0.000021
  1C   1px        0.087924  0.000081  0.000214  0.000007 -0.000035  0.581228
  1C   1py       -0.000080  0.124488  0.126489  0.105614 -0.087110 -0.000696
  1C   3s        -1.298879 -0.001858 -0.002273 -0.000415  0.000292 -1.512735
  1C   2pz       -0.000016 -0.352882  0.347160 -0.105028 -0.127950 -0.000088
  1C   2px       -9.079090  0.004132  0.003430  0.002122 -0.001784 -1.942502
  1C   2py        0.008848  0.347487  0.352521  0.127547 -0.105460  0.002211
  1C   1dz2       0.136552  0.158290 -0.141300 -0.345582 -0.378826 -0.100525
  1C   1dxz       0.000019  0.178563 -0.175298  0.038042  0.047271 -0.000014
  1C   1dyz      -0.000133  0.162552  0.183473 -0.437594  0.398800 -0.000545
  1C   1dx2y2    -0.236504  0.091015 -0.081988 -0.199644 -0.218617  0.174218
  1C   1dxy       0.000667 -0.175854 -0.178030 -0.046349  0.039085 -0.000596
  2H   1s         0.265398 -0.160923  0.152277  0.095226  0.112041  0.224280
  2H   2s         0.302187 -0.157078  0.149122 -0.019847 -0.023228 -0.047432
  3H   1s         0.265313 -0.052491 -0.215468  0.049058 -0.138407  0.223351
  3H   2s         0.302763 -0.051019 -0.210545 -0.010294  0.028842 -0.047752
  4H   1s         0.265394  0.212366  0.062147 -0.144856  0.026796  0.224988
  4H   2s         0.302331  0.207804  0.060859  0.029971 -0.005544 -0.047489
  5N   1s        -0.046533  0.000015  0.000011  0.000009 -0.000008 -0.014238
  5N   2s        -1.711302  0.000266  0.000053  0.000258 -0.000210 -0.894032
  5N   1pz       -0.000015 -0.114763  0.112922 -0.040084 -0.048773 -0.000029
  5N   1px       -0.259490  0.000213  0.000238  0.000059 -0.000060  0.288054
  5N   1py        0.000241  0.113011  0.114671  0.048673 -0.040195 -0.000285
  5N   3s         9.751744 -0.002554 -0.001602 -0.001662  0.001414  2.934319
  5N   2pz        0.000125  0.248561 -0.244612  0.103930  0.126499  0.000115
  5N   2px       -2.882514  0.000304 -0.000031  0.000311 -0.000260 -1.135438
  5N   2py        0.003332 -0.244768 -0.248399 -0.126206  0.104255  0.001267
  5N   1dz2       0.081390 -0.257078  0.229373  0.406798  0.445797 -0.041261
  5N   1dxz       0.000034 -0.387524  0.380969 -0.219535 -0.268140 -0.000118
  5N   1dyz      -0.000195 -0.263865 -0.297945  0.515264 -0.469040  0.000382
  5N   1dx2y2    -0.140969 -0.147563  0.133335  0.235449  0.256863  0.071389
  5N   1dxy       0.000384  0.381652  0.386917  0.266765 -0.221129 -0.000472
                     42        43        44        45        46        47   
                   2.19099   2.19112   2.75485   2.75493   2.77008   3.23432
                   0.00000   0.00000   0.00000   0.00000   0.00000   0.00000
                  --------  --------  --------  --------  --------  --------
  0C   1s        -0.000000  0.000001 -0.000055  0.000103 -0.034582 -0.065744
  0C   2s        -0.000230  0.000314  0.000024  0.000027 -0.021874  0.110915
  0C   1pz       -0.085404 -0.071228  0.054445  0.039837  0.000026 -0.000007
  0C   1px        0.000039  0.000027  0.000600 -0.001043  0.298078  0.496611
  0C   1py        0.071243 -0.085435  0.039866 -0.054425 -0.000477 -0.000348
  0C   3s        -0.000192 -0.000201  0.004424 -0.007756  2.370012  1.439418
  0C   2pz       -0.405325 -0.338461 -0.023031 -0.017093  0.000026  0.000048
  0C   2px       -0.000016 -0.000579  0.002081 -0.003512  1.019575  0.842054
  0C   2py        0.337991 -0.405657 -0.016807  0.023284 -0.000425 -0.000637
  0C   1dz2      -0.632713 -0.475370 -0.068973 -0.055184 -0.186645 -0.343300
  0C   1dxz       0.352814  0.294415  0.392262  0.287241  0.000207  0.000008
  0C   1dyz      -0.549325  0.730501  0.064034 -0.079559 -0.000520 -0.000026
  0C   1dx2y2    -0.364764 -0.275517 -0.038543 -0.033967  0.323221  0.594665
  0C   1dxy      -0.294146  0.352873  0.287155 -0.392315 -0.002413 -0.000818
  1C   1s        -0.000006  0.000013  0.000256 -0.000441  0.122924  0.053973
  1C   2s        -0.000473  0.000574  0.002647 -0.004530  1.312322 -0.878580
  1C   1pz       -0.107892 -0.089688  0.201863  0.147743  0.000081  0.000021
  1C   1px        0.000486 -0.000693  0.002089 -0.003649  0.993762 -0.775856
  1C   1py        0.090053 -0.107618  0.147784 -0.201801 -0.002058  0.000856
  1C   3s        -0.000332  0.001057  0.003462 -0.006025  1.675748 -2.238576
  1C   2pz        0.125785  0.105246  0.169325  0.124063  0.000078 -0.000017
  1C   2px       -0.001198  0.000864  0.007552 -0.012809  3.724790  0.719488
  1C   2py       -0.104913  0.126167  0.123945 -0.169434 -0.004513 -0.000506
  1C   1dz2       0.212416  0.159975  0.011551  0.008586  0.129734  0.788335
  1C   1dxz      -0.124771 -0.104378  0.884881  0.647807  0.000504  0.000033
  1C   1dyz       0.184682 -0.245219 -0.011439  0.012371  0.000086  0.000005
  1C   1dx2y2     0.123017  0.091679  0.007226  0.004473 -0.224716 -1.365459
  1C   1dxy       0.104012 -0.125083  0.647833 -0.884855 -0.004243  0.002484
  2H   1s         0.565426  0.455548  0.116808  0.088708 -0.012779  0.013877
  2H   2s        -0.046776 -0.037425 -0.055619 -0.042057 -0.034422  0.011785
  3H   1s         0.112075 -0.717898 -0.134925  0.056874 -0.012157  0.013981
  3H   2s        -0.009411  0.059267  0.064297 -0.026980 -0.034736  0.011715
  4H   1s        -0.677060  0.261583  0.018281 -0.145789 -0.013460  0.013882
  4H   2s         0.055783 -0.021569 -0.008730  0.069312 -0.034117  0.011820
  5N   1s        -0.000007  0.000008  0.000168 -0.000290  0.082774 -0.026437
  5N   2s        -0.000499  0.000848  0.002304 -0.003888  1.044637  0.709108
  5N   1pz        0.024173  0.020190 -0.159988 -0.117112 -0.000087  0.000018
  5N   1px        0.000172 -0.000388  0.000017 -0.000151  0.147255 -0.989369
  5N   1py       -0.020171  0.024217 -0.117131  0.159968  0.000714  0.001152
  5N   3s         0.001453 -0.001747 -0.011396  0.019533 -5.611655  0.867381
  5N   2pz        0.003787  0.002856 -0.278672 -0.204050 -0.000223  0.000017
  5N   2px       -0.000592  0.000881  0.004888 -0.008488  2.486566 -0.648025
  5N   2py       -0.003173  0.003458 -0.204020  0.278721 -0.001355  0.000661
  5N   1dz2      -0.136668 -0.102601 -0.002604 -0.005321  0.610968 -0.446929
  5N   1dxz      -0.200669 -0.166438  0.768412  0.562505  0.000472 -0.000033
  5N   1dyz      -0.118459  0.157877  0.002739 -0.005042 -0.000029 -0.000001
  5N   1dx2y2    -0.078452 -0.059916 -0.003133  0.000292 -1.058234  0.774108
  5N   1dxy       0.167527 -0.199764  0.562571 -0.768350 -0.001680 -0.001866



                    ********************************
                    * MULLIKEN POPULATION ANALYSIS *
                    ********************************

-----------------------
MULLIKEN ATOMIC CHARGES
-----------------------
   0 C :   -0.519588
   1 C :    0.213062
   2 H :    0.205954
   3 H :    0.206129
   4 H :    0.206090
   5 N :   -0.311647
Sum of atomic charges:   -0.0000000

--------------------------------
MULLIKEN REDUCED ORBITAL CHARGES
--------------------------------
  0 C s       :     3.308341  s :     3.308341
      pz      :     1.112892  p :     3.176494
      px      :     0.950413
      py      :     1.113189
      dz2     :     0.007521  d :     0.034753
      dxz     :     0.005537
      dyz     :     0.006404
      dx2y2   :     0.009755
      dxy     :     0.005536
  1 C s       :     3.050912  s :     3.050912
      pz      :     0.928075  p :     2.693526
      px      :     0.837344
      py      :     0.928108
      dz2     :     0.003238  d :     0.042500
      dxz     :     0.014787
      dyz     :     0.000025
      dx2y2   :     0.009664
      dxy     :     0.014786
  2 H s       :     0.794046  s :     0.794046
  3 H s       :     0.793871  s :     0.793871
  4 H s       :     0.793910  s :     0.793910
  5 N s       :     3.738042  s :     3.738042
      pz      :     1.067660  p :     3.533277
      px      :     1.398017
      py      :     1.067601
      dz2     :     0.003236  d :     0.040327
      dxz     :     0.013693
      dyz     :     0.000000
      dx2y2   :     0.009707
      dxy     :     0.013692

------------------------
MULLIKEN OVERLAP CHARGES
------------------------
B(  0-C ,  1-C ) :   0.6191 B(  0-C ,  2-H ) :   0.7320 B(  0-C ,  3-H ) :   0.7326 
B(  0-C ,  4-H ) :   0.7326 B(  0-C ,  5-N ) :  -0.1679 B(  1-C ,  2-H ) :  -0.0503 
B(  1-C ,  3-H ) :  -0.0507 B(  1-C ,  4-H ) :  -0.0505 B(  1-C ,  5-N ) :   1.9694 



                     *******************************
                     * LOEWDIN POPULATION ANALYSIS *
                     *******************************

----------------------
LOEWDIN ATOMIC CHARGES
----------------------
   0 C :   -0.373143
   1 C :   -0.018447
   2 H :    0.166528
   3 H :    0.166580
   4 H :    0.166550
   5 N :   -0.108068

-------------------------------
LOEWDIN REDUCED ORBITAL CHARGES
-------------------------------
  0 C s       :     2.969804  s :     2.969804
      pz      :     1.142998  p :     3.333439
      px      :     1.047367
      py      :     1.143074
      dz2     :     0.014130  d :     0.069901
      dxz     :     0.012097
      dyz     :     0.010810
      dx2y2   :     0.020768
      dxy     :     0.012096
  1 C s       :     2.938907  s :     2.938907
      pz      :     0.915329  p :     2.978752
      px      :     1.148047
      py      :     0.915377
      dz2     :     0.009490  d :     0.100788
      dxz     :     0.031431
      dyz     :     0.000033
      dx2y2   :     0.028404
      dxy     :     0.031431
  2 H s       :     0.833472  s :     0.833472
  3 H s       :     0.833420  s :     0.833420
  4 H s       :     0.833450  s :     0.833450
  5 N s       :     3.429873  s :     3.429873
      pz      :     1.067719  p :     3.606933
      px      :     1.471539
      py      :     1.067675
      dz2     :     0.007695  d :     0.071262
      dxz     :     0.020240
      dyz     :     0.000000
      dx2y2   :     0.023086
      dxy     :     0.020241

---------------------------------
LOEWDIN BOND ORDERS (THRESH 0.05)
---------------------------------
B(  0-C ,  1-C ) :   1.1555 B(  0-C ,  2-H ) :   0.9182 B(  0-C ,  3-H ) :   0.9182 
B(  0-C ,  4-H ) :   0.9182 B(  0-C ,  5-N ) :   0.1104 B(  1-C ,  5-N ) :   3.2204 


------------------------------------------
LOEWDIN REDUCED ORBITAL POPULATIONS PER MO
-------------------------------------------
THRESHOLD FOR PRINTING IS 0.1%
                      0         1         2         3         4         5   
                 -14.32773 -10.23327 -10.22285  -0.89939  -0.77037  -0.50844
                   2.00000   2.00000   2.00000   2.00000   2.00000   2.00000
                  --------  --------  --------  --------  --------  --------
 0 C  s               0.0      99.6       0.0       3.1      43.0       2.5
 0 C  px              0.0       0.0       0.2       2.0       0.4      46.3
 0 C  dz2             0.0       0.0       0.0       0.0       0.0       0.3
 0 C  dx2y2           0.0       0.0       0.0       0.0       0.0       0.8
 1 C  s               0.0       0.0      98.9      30.4       3.4      12.2
 1 C  px              0.2       0.2       0.0      10.6      22.8      14.2
 1 C  dz2             0.0       0.0       0.0       0.4       0.0       0.0
 1 C  dx2y2           0.1       0.0       0.0       1.2       0.1       0.0
 2 H  s               0.0       0.1       0.0       0.5       8.7       5.7
 3 H  s               0.0       0.1       0.0       0.5       8.7       5.7
 4 H  s               0.0       0.1       0.0       0.5       8.7       5.8
 5 N  s              99.5       0.0       0.1      41.1       3.5       3.8
 5 N  px              0.0       0.0       0.4       9.3       0.7       2.7
 5 N  dz2             0.0       0.0       0.1       0.1       0.0       0.0
 5 N  dx2y2           0.0       0.0       0.3       0.4       0.0       0.0

                      6         7         8         9        10        11   
                  -0.45987  -0.45984  -0.35353  -0.32294  -0.32293   0.04085
                   2.00000   2.00000   2.00000   2.00000   2.00000   0.00000
                  --------  --------  --------  --------  --------  --------
 0 C  s               0.0       0.0       0.3       0.0       0.0       0.0
 0 C  pz              2.3      50.7       0.0       1.1       3.1       1.7
 0 C  px              0.0       0.0       3.5       0.0       0.0       0.0
 0 C  py             50.7       2.3       0.0       3.1       1.1       1.6
 0 C  dz2             0.0       0.3       0.0       0.0       0.1       0.3
 0 C  dxz             0.0       0.1       0.0       0.1       0.4       1.1
 0 C  dyz             0.4       0.0       0.0       0.1       0.0       0.3
 0 C  dx2y2           0.0       0.1       0.0       0.0       0.0       0.1
 0 C  dxy             0.1       0.0       0.0       0.4       0.1       1.0
 1 C  s               0.0       0.0       2.0       0.0       0.0       0.0
 1 C  pz              0.5      10.1       0.0       9.3      26.0      18.4
 1 C  px              0.0       0.0       9.4       0.0       0.0       0.0
 1 C  py             10.1       0.5       0.0      26.0       9.2      17.4
 1 C  dxz             0.0       0.1       0.0       0.4       1.1       1.7
 1 C  dxy             0.1       0.0       0.0       1.1       0.4       1.6
 2 H  s               0.8      21.4       0.1       1.2       3.2       6.2
 3 H  s              19.9       2.3       0.1       1.0       3.5       0.6
 4 H  s              12.6       9.6       0.1       4.4       0.0      10.7
 5 N  s               0.0       0.0      23.5       0.0       0.0       0.0
 5 N  pz              0.1       2.3       0.0      13.4      37.6      18.4
 5 N  px              0.0       0.0      60.4       0.0       0.0       0.0
 5 N  py              2.3       0.1       0.0      37.6      13.4      17.3
 5 N  dz2             0.0       0.0       0.2       0.0       0.0       0.0
 5 N  dxz             0.0       0.1       0.0       0.2       0.6       0.8
 5 N  dx2y2           0.0       0.0       0.5       0.0       0.0       0.0
 5 N  dxy             0.1       0.0       0.0       0.6       0.2       0.8

                     12        13        14        15        16        17   
                   0.04089   0.08355   0.15992   0.15998   0.18626   0.29074
                   0.00000   0.00000   0.00000   0.00000   0.00000   0.00000
                  --------  --------  --------  --------  --------  --------
 0 C  s               0.0      32.8       0.0       0.0       1.6       4.1
 0 C  pz              1.6       0.0      26.6       4.8       0.0       0.0
 0 C  px              0.0       3.2       0.0       0.0      33.2      43.3
 0 C  py              1.7       0.0       4.8      26.6       0.0       0.0
 0 C  dz2             0.2       0.0       1.0       0.2       2.1       1.0
 0 C  dxz             1.0       0.0       0.0       0.0       0.0       0.0
 0 C  dyz             0.4       0.0       0.3       1.3       0.0       0.0
 0 C  dx2y2           0.1       0.1       0.3       0.1       6.2       3.1
 0 C  dxy             1.1       0.0       0.0       0.0       0.0       0.0
 1 C  s               0.0       2.4       0.0       0.0      27.7      16.9
 1 C  pz             17.4       0.0       9.2       1.7       0.0       0.0
 1 C  px              0.0       1.1       0.0       0.0       7.4      12.6
 1 C  py             18.4       0.0       1.6       9.1       0.0       0.0
 1 C  dz2             0.0       0.5       0.1       0.0       2.6       0.9
 1 C  dxz             1.6       0.0       0.0       0.0       0.0       0.0
 1 C  dx2y2           0.0       1.6       0.0       0.0       7.9       2.7
 1 C  dxy             1.7       0.0       0.0       0.0       0.0       0.0
 2 H  s               5.5      19.0      26.9       5.3       1.3       1.1
 3 H  s              11.0      19.0      21.2      11.2       1.2       1.1
 4 H  s               1.0      19.0       0.4      31.9       1.2       1.1
 5 N  s               0.0       0.8       0.0       0.0       3.7      10.6
 5 N  pz             17.3       0.0       5.8       1.0       0.0       0.0
 5 N  px              0.0       0.5       0.0       0.0       3.4       1.4
 5 N  py             18.4       0.0       1.0       5.8       0.0       0.0
 5 N  dz2             0.0       0.0       0.0       0.0       0.1       0.0
 5 N  dxz             0.8       0.0       0.7       0.1       0.0       0.0
 5 N  dx2y2           0.0       0.0       0.0       0.0       0.4       0.0
 5 N  dxy             0.8       0.0       0.1       0.7       0.0       0.0

                     18        19        20        21        22        23   
                   0.53402   0.53414   0.58437   0.63140   0.63157   0.68682
                   0.00000   0.00000   0.00000   0.00000   0.00000   0.00000
                  --------  --------  --------  --------  --------  --------
 0 C  s               0.0       0.0       2.4       0.0       0.0       0.7
 0 C  pz              1.0      28.3       0.0      19.5      29.2       0.0
 0 C  px              0.0       0.0      33.7       0.0       0.0       2.1
 0 C  py             28.4       1.0       0.0      29.2      19.5       0.0
 0 C  dz2             0.1       2.2       0.2       1.3       2.5       0.0
 0 C  dxz             0.0       0.4       0.0       0.0       0.0       0.0
 0 C  dyz             2.9       0.2       0.0       3.3       1.8       0.0
 0 C  dx2y2           0.0       0.7       0.4       0.4       0.8       0.1
 0 C  dxy             0.4       0.0       0.0       0.0       0.0       0.0
 1 C  s               0.0       0.0       7.2       0.0       0.0      14.3
 1 C  pz              1.8      51.5       0.0      11.8      17.6       0.0
 1 C  px              0.0       0.0      14.3       0.0       0.0      17.6
 1 C  py             51.4       1.8       0.0      17.7      11.8       0.0
 1 C  dz2             0.0       0.0       0.7       0.0       0.0       0.1
 1 C  dxz             0.0       0.3       0.0       0.0       0.0       0.0
 1 C  dx2y2           0.0       0.0       2.0       0.0       0.0       0.4
 1 C  dxy             0.3       0.0       0.0       0.0       0.0       0.0
 2 H  s               0.2       4.7       0.5       0.6       1.0       0.1
 3 H  s               2.7       2.1       0.5       1.5       0.0       0.1
 4 H  s               4.4       0.5       0.5       0.2       1.4       0.1
[...]
 0 C  pz              2.5       0.0      30.8       0.3       0.0       0.0
 0 C  px              0.0       2.7       0.0       0.0      33.3      43.6
 0 C  py              0.4       0.0       0.3      30.8       0.0       0.0
 0 C  dz2             0.4       0.0       1.2       0.0       2.1       1.1
 0 C  dxz             1.9       0.0       0.0       0.0       0.0       0.0
 0 C  dyz             0.1       0.0       0.0       1.6       0.0       0.0
 0 C  dx2y2           0.1       0.0       0.4       0.0       6.3       3.1
 0 C  dxy             0.3       0.0       0.0       0.0       0.0       0.0
 1 C  s               0.0       2.6       0.0       0.0      27.6      16.8
 1 C  pz             31.1       0.0       9.9       0.1       0.0       0.0
 1 C  px              0.0       1.1       0.0       0.0       7.3      12.6
 1 C  py              5.4       0.0       0.1       9.9       0.0       0.0
 1 C  dz2             0.0       0.6       0.1       0.0       2.6       0.9
 1 C  dxz             2.8       0.0       0.0       0.0       0.0       0.0
 1 C  dyz             0.0       0.0       0.0       0.1       0.0       0.0
 1 C  dx2y2           0.0       1.8       0.0       0.0       7.8       2.7
 1 C  dxy             0.5       0.0       0.0       0.0       0.0       0.0
 2 H  s               9.3      19.0      32.8       0.4       1.4       1.1
 3 H  s               7.1      19.0      11.9      21.5       1.3       1.1
 4 H  s               0.1      19.0       5.3      28.1       1.3       1.1
 5 N  s               0.0       0.8       0.0       0.0       3.6      10.6
 5 N  pz             30.9       0.0       6.2       0.1       0.0       0.0
 5 N  px              0.0       0.6       0.0       0.0       3.5       1.4
 5 N  py              5.3       0.0       0.1       6.2       0.0       0.0
 5 N  dz2             0.0       0.0       0.0       0.0       0.1       0.0
 5 N  dxz             1.4       0.0       0.8       0.0       0.0       0.0
 5 N  dx2y2           0.0       0.0       0.0       0.0       0.4       0.0
 5 N  dxy             0.2       0.0       0.0       0.8       0.0       0.0

                     18        19        20        21        22        23   
                   0.53154   0.53164   0.58551   0.63109   0.63111   0.68628
                   0.00000   0.00000   0.00000   0.00000   0.00000   0.00000
                  --------  --------  --------  --------  --------  --------
 0 C  s               0.0       0.0       2.5       0.0       0.0       0.7
 0 C  pz              0.8      29.9       0.0      27.9      18.1       0.0
 0 C  px              0.0       0.0      33.4       0.0       0.0       2.1
 0 C  py             30.0       0.8       0.0      18.1      27.8       0.0
 0 C  dz2             0.1       2.3       0.2       2.1       1.7       0.0
 0 C  dxz             0.0       0.4       0.0       0.0       0.0       0.0
 0 C  dyz             3.1       0.1       0.0       2.2       2.8       0.0
 0 C  dx2y2           0.0       0.8       0.5       0.7       0.6       0.1
 0 C  dxy             0.4       0.0       0.0       0.0       0.0       0.0
 1 C  s               0.0       0.0       7.1       0.0       0.0      14.2
 1 C  pz              1.4      50.2       0.0      18.9      12.3       0.0
 1 C  px              0.0       0.0      14.6       0.0       0.0      18.3
 1 C  py             50.2       1.4       0.0      12.3      18.9       0.0
 1 C  dz2             0.0       0.0       0.7       0.0       0.0       0.1
 1 C  dxz             0.0       0.3       0.0       0.0       0.0       0.0
 1 C  dx2y2           0.0       0.0       2.0       0.0       0.0       0.4
 1 C  dxy             0.3       0.0       0.0       0.0       0.0       0.0
 2 H  s               0.2       5.0       0.4       1.0       0.7       0.0
 3 H  s               3.0       2.2       0.4       1.5       0.2       0.0
 4 H  s               4.5       0.6       0.4       0.0       1.7       0.0
 5 N  s               0.0       0.0      11.5       0.0       0.0       0.6
 5 N  pz              0.1       4.0       0.0       9.1       5.9       0.0
 5 N  px              0.0       0.0      26.5       0.0       0.0      42.7
 5 N  py              4.0       0.1       0.0       5.9       9.1       0.0
 5 N  dz2             0.0       0.0       0.0       0.0       0.0       5.2
 5 N  dxz             0.0       1.7       0.0       0.0       0.0       0.0
 5 N  dx2y2           0.0       0.0       0.0       0.0       0.0      15.6
 5 N  dxy             1.7       0.0       0.0       0.0       0.0       0.0

                     24        25        26        27        28        29   
                   0.79821   0.81195   0.81197   0.85276   0.85286   0.88968
                   0.00000   0.00000   0.00000   0.00000   0.00000   0.00000
                  --------  --------  --------  --------  --------  --------
 0 C  s               3.0       0.0       0.0       0.0       0.0      12.9
 0 C  pz              0.0       0.0      16.4       8.2       0.0       0.0
 0 C  px              1.9       0.0       0.0       0.0       0.0      20.7
 0 C  py              0.0      16.4       0.0       0.0       8.2       0.0
 0 C  dz2             0.1       0.0       0.7       4.8       0.0       1.0
 0 C  dxz             0.0       0.0       3.7       1.6       0.0       0.0
 0 C  dyz             0.0       1.0       0.0       0.0       6.4       0.0
 0 C  dx2y2           0.3       0.0       0.2       1.6       0.0       2.9
 0 C  dxy             0.0       3.7       0.0       0.0       1.6       0.0
 1 C  s              29.5       0.0       0.0       0.0       0.0       1.9
 1 C  pz              0.0       0.0       5.4      12.9       0.0       0.0
 1 C  px             31.7       0.0       0.0       0.0       0.0       4.8
 1 C  py              0.0       5.4       0.0       0.0      12.9       0.0
 1 C  dz2             0.3       0.0       0.1       0.0       0.0       0.9
 1 C  dxz             0.0       0.0       0.0       1.2       0.0       0.0
 1 C  dyz             0.0       0.1       0.0       0.0       0.0       0.0
 1 C  dx2y2           0.9       0.0       0.0       0.0       0.0       2.6
 1 C  dxy             0.0       0.0       0.0       0.0       1.2       0.0
 2 H  s               9.2       0.0      18.7      23.1       0.0      14.0
 3 H  s               9.1      14.1       4.6       5.6      17.5      14.0
 4 H  s               9.2      13.9       4.8       6.0      17.2      14.0
 5 N  s               1.2       0.0       0.0       0.0       0.0       0.2
 5 N  pz              0.0       0.0      44.9      33.9       0.0       0.0
 5 N  px              2.8       0.0       0.0       0.0       0.0       8.5
 5 N  py              0.0      45.0       0.0       0.0      33.8       0.0
 5 N  dz2             0.2       0.0       0.0       0.0       0.0       0.4
 5 N  dxz             0.0       0.0       0.3       1.2       0.0       0.0
 5 N  dx2y2           0.6       0.0       0.0       0.0       0.0       1.2
 5 N  dxy             0.0       0.3       0.0       0.0       1.2       0.0

                     30        31        32        33        34        35   
                   1.05564   1.39199   1.40766   1.40767   1.52635   1.52636
                   0.00000   0.00000   0.00000   0.00000   0.00000   0.00000
                  --------  --------  --------  --------  --------  --------
 0 C  s              33.8      39.0       0.0       0.0       0.0       0.0
 0 C  pz              0.0       0.0       0.9       0.1       0.0       0.4
 0 C  px              2.7       0.0       0.0       0.0       0.0       0.0
 0 C  py              0.0       0.0       0.1       0.9       0.4       0.0
 0 C  dz2             0.0       0.3       8.2       1.0       0.0       0.1
 0 C  dxz             0.0       0.0      27.1       2.4       0.0       1.0
 0 C  dyz             0.0       0.0       1.3      10.9       0.1       0.0
 0 C  dx2y2           0.1       0.9       2.7       0.3       0.0       0.0
 0 C  dxy             0.0       0.0       2.4      27.1       1.1       0.0
 1 C  s               7.5      25.1       0.0       0.0       0.0       0.0
 1 C  pz              0.0       0.0       0.5       0.0       0.0       0.0
 1 C  px             18.2       2.3       0.0       0.0       0.0       0.0
 1 C  py              0.0       0.0       0.0       0.5       0.0       0.0
 1 C  dz2             0.6       0.3       1.6       0.2       0.0      41.9
 1 C  dxz             0.0       0.0      30.7       2.7       0.0       1.6
 1 C  dyz             0.0       0.0       0.3       2.1      55.8       0.0
 1 C  dx2y2           1.9       0.8       0.5       0.1       0.0      14.0
 1 C  dxy             0.0       0.0       2.7      30.7       1.6       0.0
 2 H  s               0.9       4.1       0.7       0.1       0.0       0.3
 3 H  s               0.9       4.1       0.4       0.3       0.2       0.1
 4 H  s               0.9       4.1       0.0       0.7       0.2       0.1
 5 N  s               4.3      16.8       0.0       0.0       0.0       0.0
 5 N  pz              0.0       0.0       1.7       0.1       0.0       0.1
 5 N  px             20.9       1.4       0.0       0.0       0.0       0.0
 5 N  py              0.0       0.0       0.1       1.7       0.1       0.0
 5 N  dz2             1.8       0.2       0.4       0.1       0.0      29.6
 5 N  dxz             0.0       0.0      16.0       1.4       0.0       0.9
 5 N  dyz             0.0       0.0       0.1       0.6      39.5       0.0
 5 N  dx2y2           5.5       0.6       0.1       0.0       0.0       9.9
 5 N  dxy             0.0       0.0       1.4      16.0       0.8       0.0

                     36        37        38        39        40        41   
                   1.62844   1.89358   1.89363   1.96589   1.96597   2.15000
                   0.00000   0.00000   0.00000   0.00000   0.00000   0.00000
                  --------  --------  --------  --------  --------  --------
 0 C  s              18.8       0.0       0.0       0.0       0.0       0.5
 0 C  pz              0.0       1.6       1.1       0.0       0.0       0.0
 0 C  px              0.3       0.0       0.0       0.0       0.0       2.7
 0 C  py              0.0       1.1       1.6       0.0       0.0       0.0
 0 C  dz2             0.7       7.2       6.2       0.0       0.0      15.9
 0 C  dxz             0.0      12.0       8.4       4.7       9.4       0.0
 0 C  dyz             0.0       8.3       9.6       0.0       0.0       0.0
 0 C  dx2y2           2.0       2.4       2.1       0.0       0.0      47.6
 0 C  dxy             0.0       8.4      12.0       9.4       4.7       0.0
 1 C  s               0.0       0.0       0.0       0.0       0.0       3.0
 1 C  pz              0.0       1.9       1.3       0.3       0.6       0.0
 1 C  px             10.7       0.0       0.0       0.0       0.0       8.9
 1 C  py              0.0       1.3       1.9       0.6       0.3       0.0
 1 C  dz2             1.8       1.8       1.5       8.8      14.1       1.6
 1 C  dxz             0.0       4.9       3.5       0.3       0.5       0.0
 1 C  dyz             0.0       2.1       2.4      18.8      11.7       0.0
 1 C  dx2y2           5.5       0.6       0.5       2.9       4.7       4.8
 1 C  dxy             0.0       3.5       5.0       0.5       0.3       0.0
 2 H  s               0.3       0.5       0.4       0.2       0.3       1.1
 3 H  s               0.3       0.8       0.1       0.1       0.4       1.1
 4 H  s               0.3       0.0       0.8       0.5       0.0       1.1
 5 N  s              45.5       0.0       0.0       0.0       0.0       9.2
 5 N  pz              0.0       0.9       0.7       0.1       0.2       0.0
 5 N  px              1.4       0.0       0.0       0.0       0.0       2.4
 5 N  py              0.0       0.7       0.9       0.2       0.1       0.0
 5 N  dz2             3.1       5.5       4.8      12.5      20.2       0.0
 5 N  dxz             0.0      15.3      10.8       3.0       5.9       0.0
 5 N  dyz             0.0       6.4       7.3      27.0      16.7       0.0
 5 N  dx2y2           9.2       1.9       1.6       4.2       6.7       0.1
 5 N  dxy             0.0      10.8      15.4       5.9       3.0       0.0

                     42        43        44        45        46        47   
                   2.20723   2.20726   2.75554   2.75557   2.76598   3.22802
                   0.00000   0.00000   0.00000   0.00000   0.00000   0.00000
                  --------  --------  --------  --------  --------  --------
 0 C  s               0.0       0.0       0.0       0.0       0.6       2.1
 0 C  pz              2.4       0.5       0.1       0.0       0.0       0.0
 0 C  px              0.0       0.0       0.0       0.0       1.1       3.1
 0 C  py              0.5       2.4       0.0       0.1       0.0       0.0
 0 C  dz2            29.9       8.0       0.5       0.0       1.4       2.1
 0 C  dxz            11.7       2.4      12.1       0.2       0.0       0.0
 0 C  dyz            10.6      39.9       0.0       0.6       0.0       0.0
 0 C  dx2y2          10.0       2.7       0.2       0.0       4.0       6.3
 0 C  dxy             2.4      11.7       0.2      12.1       0.0       0.0
 1 C  s               0.0       0.0       0.0       0.0       6.5      11.3
 1 C  pz              0.4       0.1       1.3       0.0       0.0       0.0
 1 C  px              0.0       0.0       0.0       0.0       8.8       3.5
 1 C  py              0.1       0.4       0.0       1.3       0.0       0.0
 1 C  dz2             3.8       1.0       0.0       0.0       2.5      11.7
 1 C  dxz             1.1       0.2      47.2       0.7       0.0       0.0
 1 C  dyz             1.3       5.0       0.0       0.0       0.0       0.0
 1 C  dx2y2           1.3       0.3       0.0       0.0       7.4      35.0
 1 C  dxy             0.2       1.1       0.7      47.2       0.0       0.0
 2 H  s               9.0       2.0       0.5       0.0       0.0       0.0
 3 H  s               7.4       3.5       0.1       0.4       0.0       0.0
 4 H  s               0.1      10.9       0.2       0.3       0.0       0.0
 5 N  s               0.0       0.0       0.0       0.0      16.9       7.0
 5 N  pz              0.1       0.0       2.0       0.0       0.0       0.0
 5 N  px              0.0       0.0       0.0       0.0       5.3       9.3
 5 N  py              0.0       0.1       0.0       2.0       0.0       0.0
 5 N  dz2             1.5       0.4       0.0       0.0      11.4       2.1
 5 N  dxz             4.3       0.9      34.3       0.5       0.0       0.0
 5 N  dyz             0.5       1.9       0.0       0.0       0.0       0.0
 5 N  dx2y2           0.5       0.1       0.0       0.0      34.2       6.4
 5 N  dxy             0.9       4.3       0.5      34.3       0.0       0.0



                      *****************************
                      * MAYER POPULATION ANALYSIS *
                      *****************************

  NA   - Mulliken gross atomic population
  ZA   - Total nuclear charge
  QA   - Mulliken gross atomic charge
  VA   - Mayer's total valence
  BVA  - Mayer's bonded valence
  FA   - Mayer's free valence

  ATOM       NA         ZA         QA         VA         BVA        FA
  0 C      6.5222     6.0000    -0.5222     3.7966     3.7966    -0.0000
  1 C      5.7874     6.0000     0.2126     4.0463     4.0463    -0.0000
  2 H      0.7925     1.0000     0.2075     0.9170     0.9170    -0.0000
  3 H      0.7924     1.0000     0.2076     0.9170     0.9170    -0.0000
  4 H      0.7924     1.0000     0.2076     0.9170     0.9170    -0.0000
  5 N      7.3132     7.0000    -0.3132     3.0616     3.0616    -0.0000

  Mayer bond orders larger than 0.1
B(  0-C ,  1-C ) :   1.0423 B(  0-C ,  2-H ) :   0.9216 B(  0-C ,  3-H ) :   0.9216 
B(  0-C ,  4-H ) :   0.9217 B(  1-C ,  5-N ) :   3.0150 

-------
TIMINGS
-------

Total SCF time: 0 days 0 hours 0 min 1 sec 

Total time                  ....       1.892 sec
Sum of individual times     ....       1.667 sec  ( 88.1%)

Fock matrix formation       ....       1.177 sec  ( 62.2%)
  XC integration            ....       0.335 sec  ( 28.5% of F)
    Basis function eval.    ....       0.128 sec  ( 38.3% of XC)
    Density eval.           ....       0.072 sec  ( 21.5% of XC)
    XC-Functional eval.     ....       0.053 sec  ( 15.7% of XC)
    XC-Potential eval.      ....       0.057 sec  ( 17.0% of XC)
Diagonalization             ....       0.000 sec  (  0.0%)
Density matrix formation    ....       0.000 sec  (  0.0%)
Population analysis         ....       0.008 sec  (  0.4%)
Initial guess               ....       0.001 sec  (  0.0%)
Orbital Transformation      ....       0.000 sec  (  0.0%)
Orbital Orthonormalization  ....       0.000 sec  (  0.0%)
DIIS solution               ....       0.000 sec  (  0.0%)
SOSCF solution              ....       0.001 sec  (  0.1%)
Grid generation             ....       0.480 sec  ( 25.4%)

-------------------------   --------------------
FINAL SINGLE POINT ENERGY      -132.670538753983
-------------------------   --------------------

                                *** OPTIMIZATION RUN DONE ***

                            ***************************************
                            *     ORCA property calculations      *
                            ***************************************

                                    ---------------------
                                    Active property flags
                                    ---------------------
   (+) Dipole Moment


------------------------------------------------------------------------------
                       ORCA ELECTRIC PROPERTIES CALCULATION
------------------------------------------------------------------------------

Dipole Moment Calculation                       ... on
Quadrupole Moment Calculation                   ... off
Polarizability Calculation                      ... off
GBWName                                         ... /Users/lailaal-madhagi/Desktop/Testing_XAS_Analysis_code/Acetonitrile//Results_dir_Acetonitrile_geom_element_C_2019-11-03_21-19-33//GTE1_Acetonitrile_geom_2019-11-03_21-20-24//opt.gbw
Electron density file                           ... /Users/lailaal-madhagi/Desktop/Testing_XAS_Analysis_code/Acetonitrile//Results_dir_Acetonitrile_geom_element_C_2019-11-03_21-19-33//GTE1_Acetonitrile_geom_2019-11-03_21-20-24//opt.scfp.tmp
The origin for moment calculation is the CENTER OF MASS  = (-2.817608,  0.942705  0.000028)

-------------
DIPOLE MOMENT
-------------
                                X             Y             Z
Electronic contribution:      3.20806      -0.00218      -0.00021
Nuclear contribution   :     -4.70635       0.00331      -0.00007
                        -----------------------------------------
Total Dipole Moment    :     -1.49829       0.00112      -0.00027
                        -----------------------------------------
Magnitude (a.u.)       :      1.49829
Magnitude (Debye)      :      3.80835



--------------------
Rotational spectrum 
--------------------
 
Rotational constants in cm-1:     5.287630     0.305162     0.305161 
Rotational constants in MHz : 158519.156897  9148.524315  9148.502382 

 Dipole components along the rotational axes: 
x,y,z [a.u.] :    -1.498292    -0.000249    -0.000031 
x,y,z [Debye]:    -3.808355    -0.000632    -0.000079 

 

Timings for individual modules:

Sum of individual times         ...       23.864 sec (=   0.398 min)
GTO integral calculation        ...        2.428 sec (=   0.040 min)  10.2 %
SCF iterations                  ...       14.928 sec (=   0.249 min)  62.6 %
SCF Gradient evaluation         ...        5.338 sec (=   0.089 min)  22.4 %
Geometry relaxation             ...        1.170 sec (=   0.019 min)   4.9 %
                             ****ORCA TERMINATED NORMALLY****
TOTAL RUN TIME: 0 days 0 hours 0 minutes 24 seconds 549 msec
