
                                 *****************
                                 * O   R   C   A *
                                 *****************

           --- An Ab Initio, DFT and Semiempirical electronic structure package ---

                  #######################################################
                  #                        -***-                        #
                  #          Department of theory and spectroscopy      #
                  #               Directorship: Frank Neese             #
                  #        Max Planck Institute fuer Kohlenforschung    #
                  #                Kaiser Wilhelm Platz 1               #
                  #                 D-45470 Muelheim/Ruhr               #
                  #                      Germany                        #
                  #                                                     #
                  #                  All rights reserved                #
                  #                        -***-                        #
                  #######################################################


                         Program Version 4.1.0  - RELEASE  -


 With contributions from (in alphabetic order):
   Daniel Aravena         : Magnetic Properties
   Michael Atanasov       : Ab Initio Ligand Field Theory
   Alexander A. Auer      : GIAO ZORA
   Ute Becker             : Parallelization
   Giovanni Bistoni       : ED, Open-shell LED
   Martin Brehm           : Molecular dynamics
   Dmytro Bykov           : SCF Hessian
   Vijay G. Chilkuri      : MRCI spin determinant printing
   Dipayan Datta          : RHF DLPNO-CCSD density
   Achintya Kumar Dutta   : EOM-CC, STEOM-CC
   Dmitry Ganyushin       : Spin-Orbit,Spin-Spin,Magnetic field MRCI
   Miquel Garcia          : C-PCM Hessian
   Yang Guo               : DLPNO-NEVPT2, CIM, IAO-localization
   Andreas Hansen         : Spin unrestricted coupled pair/coupled cluster methods
   Benjamin Helmich-Paris : CASSCF linear response (MC-RPA)
   Lee Huntington         : MR-EOM, pCC
   Robert Izsak           : Overlap fitted RIJCOSX, COSX-SCS-MP3, EOM
   Christian Kollmar      : KDIIS, OOCD, Brueckner-CCSD(T), CCSD density
   Simone Kossmann        : Meta GGA functionals, TD-DFT gradient, OOMP2, MP2 Hessian
   Martin Krupicka        : AUTO-CI
   Lucas Lang             : DCDCAS
   Dagmar Lenk            : GEPOL surface, SMD
   Dimitrios Liakos       : Extrapolation schemes; parallel MDCI
   Dimitrios Manganas     : ROCIS; embedding schemes
   Dimitrios Pantazis     : SARC Basis sets
   Taras Petrenko         : DFT Hessian,TD-DFT gradient, ASA, ECA, R-Raman, ABS, FL, XAS/XES, NRVS
   Peter Pinski           : DLPNO-MP2, DLPNO-MP2 Gradient
   Christoph Reimann      : Effective Core Potentials
   Marius Retegan         : Local ZFS, SOC
   Christoph Riplinger    : Optimizer, TS searches, QM/MM, DLPNO-CCSD(T), (RO)-DLPNO pert. Triples
   Tobias Risthaus        : Range-separated hybrids, TD-DFT gradient, RPA, STAB
   Michael Roemelt        : Restricted open shell CIS
   Masaaki Saitow         : Open-shell DLPNO
   Barbara Sandhoefer     : DKH picture change effects
   Avijit Sen             : IP-ROCIS
   Kantharuban Sivalingam : CASSCF convergence, NEVPT2, FIC-MRCI
   Bernardo de Souza      : ESD, SOC TD-DFT
   Georgi Stoychev        : AutoAux, RI-MP2 NMR
   Willem Van den Heuvel  : Paramagnetic NMR
   Boris Wezisla          : Elementary symmetry handling
   Frank Wennmohs         : Technical directorship


 We gratefully acknowledge several colleagues who have allowed us to
 interface, adapt or use parts of their codes:
   Stefan Grimme, W. Hujo, H. Kruse,             : VdW corrections, initial TS optimization,
                  C. Bannwarth                     DFT functionals, gCP, sTDA/sTD-DF
   Ed Valeev                                     : LibInt (2-el integral package), F12 methods
   Garnet Chan, S. Sharma, J. Yang, R. Olivares  : DMRG
   Ulf Ekstrom                                   : XCFun DFT Library
   Mihaly Kallay                                 : mrcc  (arbitrary order and MRCC methods)
   Andreas Klamt, Michael Diedenhofen            : otool_cosmo (COSMO solvation model)
   Jiri Pittner, Ondrej Demel                    : Mk-CCSD
   Frank Weinhold                                : gennbo (NPA and NBO analysis)
   Christopher J. Cramer and Donald G. Truhlar   : smd solvation model
   Lars Goerigk                                  : TD-DFT with DH, B97 family of functionals
   V. Asgeirsson, H. Jonsson                     : NEB implementation
   FAccTs GmbH                                   : IRC, NEB, NEB-TS, Multilevel


 Your calculation uses the libint2 library for the computation of 2-el integrals
 For citations please refer to: http://libint.valeyev.net

 This ORCA versions uses:
   CBLAS   interface :  Fast vector & matrix operations
   LAPACKE interface :  Fast linear algebra routines
   SCALAPACK package :  Parallel linear algebra routines




***************************************
The coordinates will be read from file: /Users/lailaal-madhagi/Desktop/Testing_XAS_Analysis_code/Acetaldehyde//Results_dir_Acetaldehyde_geom_element_C_2019-11-03_18-34-06//GTE1_Acetaldehyde_geom_2019-11-03_18-34-39//opt.xyz
***************************************


----- Orbital basis set information -----
Your calculation utilizes the basis: 6-31G*
   H-He, Li-Ne : W. J. Hehre, R. Ditchfield and J.A. Pople, J. Chem. Phys. 56, 2257 (1972).
                 Note: He and Ne are unpublished basis sets taken from the Gaussian program.
                 Note: Li and B from J. D. Dill and J. A. Pople, J. Chem. Phys. 62, 2921 (1975).
   Na - Ar     : M. M. Francl, W. J. Pietro, W. J. Hehre, J. S. Binkley, M. S. Gordon, 
                 D. J. DeFrees and J. A. Pople, J. Chem. Phys. 77, 3654 (1982).
   K - Zn      : V. A. Rassolov, J. A. Pople, M. A. Ratner, and T. L. Windus, J. Chem. Phys. 109, 1223 (1998).

================================================================================
                                        WARNINGS
                       Please study these warnings very carefully!
================================================================================

INFO   : Checking CIS options ...

WARNING: CIS/ROCIS methods need fully converged wavefunctions
  ===> : Setting SCFConvForced true
         You can overwrite this default with %scf ConvForced false 


INFO   : the flag for use of LIBINT has been found!

================================================================================
                                       INPUT FILE
================================================================================
NAME = /Users/lailaal-madhagi/Desktop/Testing_XAS_Analysis_code/Acetaldehyde//Results_dir_Acetaldehyde_geom_element_C_2019-11-03_18-34-06//GTE1_Acetaldehyde_geom_2019-11-03_18-34-39//TDDFT_C-edge.inp
|  1> #This is C K-edge calculation 
|  2> ! B3LYP 6-31G* TIGHTSCF Grid3 FinalGrid5 
|  3> !NormalPrint 
|  4> %output 
|  5> Print[P_Basis] 2 
|  6> Print[P_MOS] 1 
|  7> end 
|  8> 
|  9> %tddft 
| 10> orbwin[0]=1,2,-1,-1 
| 11> nroots=20 
| 12> maxdim=200 
| 13> end 
| 14> *xyzfile 0 1 /Users/lailaal-madhagi/Desktop/Testing_XAS_Analysis_code/Acetaldehyde//Results_dir_Acetaldehyde_geom_element_C_2019-11-03_18-34-06//GTE1_Acetaldehyde_geom_2019-11-03_18-34-39//opt.xyz                           ****END OF INPUT****
================================================================================

                       ****************************
                       * Single Point Calculation *
                       ****************************

---------------------------------
CARTESIAN COORDINATES (ANGSTROEM)
---------------------------------
  C     -3.777471   -0.109363    0.005595
  C     -2.298433    0.224446   -0.003916
  H     -4.274081    0.454277    0.804525
  H     -3.955988   -1.178696    0.151877
  H     -4.229633    0.207753   -0.941816
  O     -1.866475    1.345882   -0.151532
  H     -1.602669   -0.634009    0.135268

----------------------------
CARTESIAN COORDINATES (A.U.)
----------------------------
  NO LB      ZA    FRAG     MASS         X           Y           Z
   0 C     6.0000    0    12.011   -7.138385   -0.206667    0.010573
   1 C     6.0000    0    12.011   -4.343408    0.424142   -0.007400
   2 H     1.0000    0     1.008   -8.076843    0.858460    1.520332
   3 H     1.0000    0     1.008   -7.475734   -2.227413    0.287006
   4 H     1.0000    0     1.008   -7.992848    0.392597   -1.779775
   5 O     8.0000    0    15.999   -3.527127    2.543348   -0.286355
   6 H     1.0000    0     1.008   -3.028606   -1.198104    0.255619

--------------------------------
INTERNAL COORDINATES (ANGSTROEM)
--------------------------------
 C      0   0   0     0.000000000000     0.00000000     0.00000000
 C      1   0   0     1.516269445497     0.00000000     0.00000000
 H      1   2   0     1.096632402026   109.45997774     0.00000000
 H      1   2   3     1.093955920648   112.03751894   238.54348083
 H      1   2   3     1.096632291200   109.45788951   117.10270201
 O      2   1   3     1.210782886947   123.55035042   301.43268901
 H      2   1   3     1.113734722705   116.03357153   121.43183251

---------------------------
INTERNAL COORDINATES (A.U.)
---------------------------
 C      0   0   0     0.000000000000     0.00000000     0.00000000
 C      1   0   0     2.865333997223     0.00000000     0.00000000
 H      1   2   0     2.072334909414   109.45997774     0.00000000
 H      1   2   3     2.067277092606   112.03751894   238.54348083
 H      1   2   3     2.072334699983   109.45788951   117.10270201
 O      2   1   3     2.288048063969   123.55035042   301.43268901
 H      2   1   3     2.104653611752   116.03357153   121.43183251

---------------------
BASIS SET INFORMATION
---------------------
There are 3 groups of distinct atoms

 Group   1 Type C   : 10s4p1d contracted to 3s2p1d pattern {631/31/1}
 Group   2 Type H   : 4s contracted to 2s pattern {31}
 Group   3 Type O   : 10s4p1d contracted to 3s2p1d pattern {631/31/1}

Atom   0C    basis set group =>   1
Atom   1C    basis set group =>   1
Atom   2H    basis set group =>   2
Atom   3H    basis set group =>   2
Atom   4H    basis set group =>   2
Atom   5O    basis set group =>   3
Atom   6H    basis set group =>   2

-------------------------
BASIS SET IN INPUT FORMAT
-------------------------

 # Basis set for element : H 
 NewGTO H 
 S 3 
   1      18.7311370000      0.0334945995
   2       2.8253937000      0.2347269467
   3       0.6401217000      0.8137573184
 S 1 
   1       0.1612778000      1.0000000000
  end;

 # Basis set for element : C 
 NewGTO C 
 S 6 
   1    3047.5249000000      0.0018347002
   2     457.3695100000      0.0140373012
   3     103.9486900000      0.0688426061
   4      29.2101550000      0.2321844206
   5       9.2866630000      0.4679413416
   6       3.1639270000      0.3623120322
 S 3 
   1       7.8682724000     -0.1193324086
   2       1.8812885000     -0.1608542116
   3       0.5442493000      1.1434564826
 P 3 
   1       7.8682724000      0.0689990956
   2       1.8812885000      0.3164239798
   3       0.5442493000      0.7443082524
 S 1 
   1       0.1687144000      1.0000000000
 P 1 
   1       0.1687144000      1.0000000000
 D 1 
   1       0.8000000000      1.0000000000
  end;

 # Basis set for element : O 
 NewGTO O 
 S 6 
   1    5484.6717000000      0.0018310998
   2     825.2349500000      0.0139500985
   3     188.0469600000      0.0684450927
   4      52.9645000000      0.2327142753
   5      16.8975700000      0.4701929501
   6       5.7996353000      0.3585208619
 S 3 
   1      15.5396160000     -0.1107775038
   2       3.5999336000     -0.1480263051
   3       1.0137618000      1.1307670390
 P 3 
   1      15.5396160000      0.0708742995
   2       3.5999336000      0.3397527978
   3       1.0137618000      0.7271585953
 S 1 
   1       0.2700058000      1.0000000000
 P 1 
   1       0.2700058000      1.0000000000
 D 1 
   1       0.8000000000      1.0000000000
  end;

------------------------------------------------------------------------------
                           ORCA GTO INTEGRAL CALCULATION
------------------------------------------------------------------------------

                         BASIS SET STATISTICS AND STARTUP INFO

 # of primitive gaussian shells          ...   61
 # of primitive gaussian functions       ...   97
 # of contracted shells                  ...   26
 # of contracted basis functions         ...   50
 Highest angular momentum                ...    2
 Maximum contraction depth               ...    6
 Integral package used                   ... LIBINT
 Integral threshhold            Thresh   ...  2.500e-11
 Primitive cut-off              TCut     ...  2.500e-12


------------------------------ INTEGRAL EVALUATION ----------------------------


 * One electron integrals 
 Pre-screening matrix                    ... done
 Shell pair data                         ... done (   0.000 sec)

-------------------------------------------------------------------------------
                                 ORCA SCF
-------------------------------------------------------------------------------

------------
SCF SETTINGS
------------
Hamiltonian:
 Density Functional     Method          .... DFT(GTOs)
 Exchange Functional    Exchange        .... B88
   X-Alpha parameter    XAlpha          ....  0.666667
   Becke's b parameter  XBeta           ....  0.004200
 Correlation Functional Correlation     .... LYP
 LDA part of GGA corr.  LDAOpt          .... VWN-5
 Gradients option       PostSCFGGA      .... off
 Hybrid DFT is turned on
   Fraction HF Exchange ScalHFX         ....  0.200000
   Scaling of DF-GGA-X  ScalDFX         ....  0.720000
   Scaling of DF-GGA-C  ScalDFC         ....  0.810000
   Scaling of DF-LDA-C  ScalLDAC        ....  1.000000
   Perturbative correction              ....  0.000000
   Density functional embedding theory  .... OFF
   NL short-range parameter             ....  4.800000


General Settings:
 Integral files         IntName         .... /Users/lailaal-madhagi/Desktop/Testing_XAS_Analysis_code/Acetaldehyde//Results_dir_Acetaldehyde_geom_element_C_2019-11-03_18-34-06//GTE1_Acetaldehyde_geom_2019-11-03_18-34-39//TDDFT_C-edge
 Hartree-Fock type      HFTyp           .... RHF
 Total Charge           Charge          ....    0
 Multiplicity           Mult            ....    1
 Number of Electrons    NEL             ....   24
 Basis Dimension        Dim             ....   50
 Nuclear Repulsion      ENuc            ....     69.4148219507 Eh

Convergence Acceleration:
 DIIS                   CNVDIIS         .... on
   Start iteration      DIISMaxIt       ....    12
   Startup error        DIISStart       ....  0.200000
   # of expansion vecs  DIISMaxEq       ....     5
   Bias factor          DIISBfac        ....   1.050
   Max. coefficient     DIISMaxC        ....  10.000
 Newton-Raphson         CNVNR           .... off
 SOSCF                  CNVSOSCF        .... on
   Start iteration      SOSCFMaxIt      ....   150
   Startup grad/error   SOSCFStart      ....  0.003300
 Level Shifting         CNVShift        .... on
   Level shift para.    LevelShift      ....    0.2500
   Turn off err/grad.   ShiftErr        ....    0.0010
 Zerner damping         CNVZerner       .... off
 Static damping         CNVDamp         .... on
   Fraction old density DampFac         ....    0.7000
   Max. Damping (<1)    DampMax         ....    0.9800
   Min. Damping (>=0)   DampMin         ....    0.0000
   Turn off err/grad.   DampErr         ....    0.1000
 Fernandez-Rico         CNVRico         .... off

SCF Procedure:
 Maximum # iterations   MaxIter         ....   125
 SCF integral mode      SCFMode         .... Direct
   Integral package                     .... LIBINT
 Reset frequency        DirectResetFreq ....    20
 Integral Threshold     Thresh          ....  2.500e-11 Eh
 Primitive CutOff       TCut            ....  2.500e-12 Eh

Convergence Tolerance:
 Convergence Check Mode ConvCheckMode   .... Total+1el-Energy
 Convergence forced     ConvForced      .... 1
 Energy Change          TolE            ....  1.000e-08 Eh
 1-El. energy change                    ....  1.000e-05 Eh
 Orbital Gradient       TolG            ....  1.000e-05
 Orbital Rotation angle TolX            ....  1.000e-05
 DIIS Error             TolErr          ....  5.000e-07


Diagonalization of the overlap matrix:
Smallest eigenvalue                        ... 8.104e-03
Time for diagonalization                   ...    0.001 sec
Threshold for overlap eigenvalues          ... 1.000e-08
Number of eigenvalues below threshold      ... 0
Time for construction of square roots      ...    0.002 sec
Total time needed                          ...    0.003 sec

-------------------
DFT GRID GENERATION
-------------------

General Integration Accuracy     IntAcc      ...  4.340
Radial Grid Type                 RadialGrid  ... Gauss-Chebyshev
Angular Grid (max. acc.)         AngularGrid ... Lebedev-194
Angular grid pruning method      GridPruning ... 3 (G Style)
Weight generation scheme         WeightScheme... Becke
Basis function cutoff            BFCut       ...    1.0000e-11
Integration weight cutoff        WCut        ...    1.0000e-14
Grids for H and He will be reduced by one unit

# of grid points (after initial pruning)     ...  16026 (   0.0 sec)
# of grid points (after weights+screening)   ...  15467 (   0.0 sec)
nearest neighbour list constructed           ...    0.0 sec
Grid point re-assignment to atoms done       ...    0.0 sec
Grid point division into batches done        ...    0.0 sec
Reduced shell lists constructed in    0.1 sec

Total number of grid points                  ...    15467
Total number of batches                      ...      246
Average number of points per batch           ...       62
Average number of grid points per atom       ...     2210
Average number of shells per batch           ...    21.29 (81.87%)
Average number of basis functions per batch  ...    41.91 (83.82%)
Average number of large shells per batch     ...    18.76 (88.11%)
Average number of large basis fcns per batch ...    37.17 (88.69%)
Maximum spatial batch extension              ...  19.47, 21.21, 21.23 au
Average spatial batch extension              ...   3.74,  3.62,  3.76 au

Time for grid setup =    0.072 sec

------------------------------
INITIAL GUESS: MODEL POTENTIAL
------------------------------
Loading Hartree-Fock densities                     ... done
Calculating cut-offs                               ... done
Setting up the integral package                    ... done
Initializing the effective Hamiltonian             ... done
Starting the Coulomb interaction                   ... done (   0.0 sec)
Reading the grid                                   ... done
Mapping shells                                     ... done
Starting the XC term evaluation                    ... done (   0.0 sec)
  promolecular density results
     # of electrons  =     23.998321646
     EX              =    -19.621337025
     EC              =     -0.791864702
     EX+EC           =    -20.413201727
Transforming the Hamiltonian                       ... done (   0.0 sec)
Diagonalizing the Hamiltonian                      ... done (   0.0 sec)
Back transforming the eigenvectors                 ... done (   0.0 sec)
Now organizing SCF variables                       ... done
                      ------------------
                      INITIAL GUESS DONE (   0.2 sec)
                      ------------------
--------------
SCF ITERATIONS
--------------
               ***  Starting incremental Fock matrix formation  ***

                         ----------------------------
                         !        ITERATION     0   !
                         ----------------------------
   Total Energy        :    -153.609380351756 Eh
   Energy Change       :    -153.609380351756 Eh
   MAX-DP              :       0.099241363792
   RMS-DP              :       0.005796157987
   Actual Damping      :       0.7000
   Actual Level Shift  :       0.2500 Eh
   Int. Num. El.       :    24.00013026 (UP=   12.00006513 DN=   12.00006513)
   Exchange            :   -16.19587538
   Correlation         :    -0.95441822


                         ----------------------------
                         !        ITERATION     1   !
                         ----------------------------
   Total Energy        :    -153.672055144758 Eh
   Energy Change       :      -0.062674793002 Eh
   MAX-DP              :       0.058725318259
   RMS-DP              :       0.003700580288
   Actual Damping      :       0.7000
   Actual Level Shift  :       0.2500 Eh
   Int. Num. El.       :    24.00015610 (UP=   12.00007805 DN=   12.00007805)
   Exchange            :   -16.02775754
   Correlation         :    -0.94855236

                               ***Turning on DIIS***

                         ----------------------------
                         !        ITERATION     2   !
                         ----------------------------
   Total Energy        :    -153.692692235573 Eh
   Energy Change       :      -0.020637090815 Eh
   MAX-DP              :       0.065920372268
   RMS-DP              :       0.005177954014
   Actual Damping      :       0.0000
   Actual Level Shift  :       0.2500 Eh
   Int. Num. El.       :    24.00017026 (UP=   12.00008513 DN=   12.00008513)
   Exchange            :   -15.92965876
   Correlation         :    -0.94473908
   DIIS-Error          :       0.040072149496


                         ----------------------------
                         !        ITERATION     3   !
                         ----------------------------
   Total Energy        :    -153.729194964804 Eh
   Energy Change       :      -0.036502729231 Eh
   MAX-DP              :       0.038300449308
   RMS-DP              :       0.002660819692
   Actual Damping      :       0.0000
   Actual Level Shift  :       0.2500 Eh
   Int. Num. El.       :    24.00018517 (UP=   12.00009258 DN=   12.00009258)
   Exchange            :   -15.81394251
   Correlation         :    -0.93943543
   DIIS-Error          :       0.049949398258
   DIIS coefficients:
      0.60984   0.39016


                         ----------------------------
                         !        ITERATION     4   !
                         ----------------------------
   Total Energy        :    -153.735947747357 Eh
   Energy Change       :      -0.006752782553 Eh
   MAX-DP              :       0.010472865530
   RMS-DP              :       0.000849722148
   Actual Damping      :       0.0000
   Actual Level Shift  :       0.2500 Eh
   Int. Num. El.       :    24.00017632 (UP=   12.00008816 DN=   12.00008816)
   Exchange            :   -15.87508368
   Correlation         :    -0.94193418
   DIIS-Error          :       0.018882869120
   DIIS coefficients:
      0.33038   0.13163   0.53800

                      *** Initiating the SOSCF procedure ***
                           *** Shutting down DIIS ***
                      *** Re-Reading the Fockian *** 
                      *** Removing any level shift *** 

                         ----------------------------
                         !        ITERATION     5   !
                         ----------------------------
   Total Energy        :    -153.736804039020 Eh
   Energy Change       :      -0.000856291663 Eh
   MAX-DP              :       0.004048386027
   RMS-DP              :       0.000234053737
   Orbital gradient    :       0.000815164201
   Orbital Rotation    :       0.000815164201
   Actual Damping      :       0.0000
   Int. Num. El.       :    24.00017532 (UP=   12.00008766 DN=   12.00008766)
   Exchange            :   -15.87914373
   Correlation         :    -0.94242670

               *** Restarting incremental Fock matrix formation ***

                         ----------------------------
                         !        ITERATION     6   !
                         ----------------------------
   Total Energy        :    -153.736823239971 Eh
   Energy Change       :      -0.000019200951 Eh
   MAX-DP              :       0.001686677666
   RMS-DP              :       0.000127653295
   Orbital gradient    :       0.000361808182
   Orbital Rotation    :       0.000855497060
   Actual Damping      :       0.0000
   Int. Num. El.       :    24.00017521 (UP=   12.00008761 DN=   12.00008761)
   Exchange            :   -15.88205957
   Correlation         :    -0.94255503


                         ----------------------------
                         !        ITERATION     7   !
                         ----------------------------
   Total Energy        :    -153.736822656352 Eh
   Energy Change       :       0.000000583619 Eh
   MAX-DP              :       0.000859715024
   RMS-DP              :       0.000061587399
   Orbital gradient    :       0.000644954467
   Orbital Rotation    :       0.000706851794
   Actual Damping      :       0.0000
   Int. Num. El.       :    24.00017573 (UP=   12.00008787 DN=   12.00008787)
   Exchange            :   -15.88148827
   Correlation         :    -0.94255903


                         ----------------------------
                         !        ITERATION     8   !
                         ----------------------------
   Total Energy        :    -153.736825197112 Eh
   Energy Change       :      -0.000002540760 Eh
   MAX-DP              :       0.000427841058
   RMS-DP              :       0.000036470915
   Orbital gradient    :       0.000131485622
   Orbital Rotation    :       0.000213628741
   Actual Damping      :       0.0000
   Int. Num. El.       :    24.00017579 (UP=   12.00008789 DN=   12.00008789)
   Exchange            :   -15.88210390
   Correlation         :    -0.94256927


                         ----------------------------
                         !        ITERATION     9   !
                         ----------------------------
   Total Energy        :    -153.736825179827 Eh
   Energy Change       :       0.000000017284 Eh
   MAX-DP              :       0.000228930726
   RMS-DP              :       0.000013734264
   Orbital gradient    :       0.000107405798
   Orbital Rotation    :       0.000084087983
   Actual Damping      :       0.0000
   Int. Num. El.       :    24.00017572 (UP=   12.00008786 DN=   12.00008786)
   Exchange            :   -15.88181340
   Correlation         :    -0.94255598


                         ----------------------------
                         !        ITERATION    10   !
                         ----------------------------
   Total Energy        :    -153.736825400394 Eh
   Energy Change       :      -0.000000220566 Eh
   MAX-DP              :       0.000039665741
   RMS-DP              :       0.000002576274
   Orbital gradient    :       0.000007663844
   Orbital Rotation    :       0.000016050224
   Actual Damping      :       0.0000
   Int. Num. El.       :    24.00017573 (UP=   12.00008787 DN=   12.00008787)
   Exchange            :   -15.88194542
   Correlation         :    -0.94256303


                         ----------------------------
                         !        ITERATION    11   !
                         ----------------------------
   Total Energy        :    -153.736825401058 Eh
   Energy Change       :      -0.000000000665 Eh
   MAX-DP              :       0.000005212484
   RMS-DP              :       0.000000481447
   Orbital gradient    :       0.000004288463
   Orbital Rotation    :       0.000003044615
   Actual Damping      :       0.0000
   Int. Num. El.       :    24.00017574 (UP=   12.00008787 DN=   12.00008787)
   Exchange            :   -15.88193149
   Correlation         :    -0.94256230

                  ***Gradient check signals convergence***
              ***Rediagonalizing the Fockian in SOSCF/NRSCF***

               *****************************************************
               *                     SUCCESS                       *
               *           SCF CONVERGED AFTER  12 CYCLES          *
               *****************************************************

Setting up the final grid:

General Integration Accuracy     IntAcc      ...  5.010
Radial Grid Type                 RadialGrid  ... Gauss-Chebyshev
Angular Grid (max. acc.)         AngularGrid ... Lebedev-434
Angular grid pruning method      GridPruning ... 3 (G Style)
Weight generation scheme         WeightScheme... Becke
Basis function cutoff            BFCut       ...    1.0000e-11
Integration weight cutoff        WCut        ...    1.0000e-14
Grids for H and He will be reduced by one unit

# of grid points (after initial pruning)     ...  59006 (   0.0 sec)
# of grid points (after weights+screening)   ...  56582 (   0.0 sec)
nearest neighbour list constructed           ...    0.0 sec
Grid point re-assignment to atoms done       ...    0.0 sec
Grid point division into batches done        ...    0.3 sec
Reduced shell lists constructed in    0.5 sec

Total number of grid points                  ...    56582
Total number of batches                      ...      888
Average number of points per batch           ...       63
Average number of grid points per atom       ...     8083
Average number of shells per batch           ...    20.03 (77.03%)
Average number of basis functions per batch  ...    39.40 (78.80%)
Average number of large shells per batch     ...    17.32 (86.50%)
Average number of large basis fcns per batch ...    34.20 (86.79%)
Maximum spatial batch extension              ...  18.09, 18.53, 21.43 au
Average spatial batch extension              ...   2.53,  2.44,  2.50 au

Final grid set up in    0.5 sec
Final integration                            ... done (   0.3 sec)
Change in XC energy                          ...    -0.000039371
Integrated number of electrons               ...    24.000000986
Previous integrated no of electrons          ...    24.000175738

----------------
TOTAL SCF ENERGY
----------------

Total Energy       :         -153.73686477 Eh           -4183.39277 eV

Components:
Nuclear Repulsion  :           69.41482195 Eh            1888.87333 eV
Electronic Energy  :         -223.15168672 Eh           -6072.26610 eV
One Electron Energy:         -345.60238934 Eh           -9404.31912 eV
Two Electron Energy:          122.45070262 Eh            3332.05302 eV

Virial components:
Potential Energy   :         -306.55551331 Eh           -8341.79961 eV
Kinetic Energy     :          152.81864854 Eh            4158.40684 eV
Virial Ratio       :            2.00600854


DFT components:
N(Alpha)           :       12.000000493039 electrons
N(Beta)            :       12.000000493039 electrons
N(Total)           :       24.000000986078 electrons
E(X)               :      -15.881981232085 Eh       
E(C)               :       -0.942562831162 Eh       
E(XC)              :      -16.824544063247 Eh       
DFET-embed. en.    :        0.000000000000 Eh       

---------------
SCF CONVERGENCE
---------------

  Last Energy change         ...   -2.3945e-10  Tolerance :   1.0000e-08
  Last MAX-Density change    ...    7.2030e-06  Tolerance :   1.0000e-07
  Last RMS-Density change    ...    3.8922e-07  Tolerance :   5.0000e-09
  Last Orbital Gradient      ...    7.9176e-07  Tolerance :   1.0000e-05
  Last Orbital Rotation      ...    2.5276e-06  Tolerance :   1.0000e-05

             **** THE GBW FILE WAS UPDATED (/Users/lailaal-madhagi/Desktop/Testing_XAS_Analysis_code/Acetaldehyde//Results_dir_Acetaldehyde_geom_element_C_2019-11-03_18-34-06//GTE1_Acetaldehyde_geom_2019-11-03_18-34-39//TDDFT_C-edge.gbw) ****
             **** DENSITY FILE WAS UPDATED (/Users/lailaal-madhagi/Desktop/Testing_XAS_Analysis_code/Acetaldehyde//Results_dir_Acetaldehyde_geom_element_C_2019-11-03_18-34-06//GTE1_Acetaldehyde_geom_2019-11-03_18-34-39//TDDFT_C-edge.scfp.tmp) ****
             **** ENERGY FILE WAS UPDATED (/Users/lailaal-madhagi/Desktop/Testing_XAS_Analysis_code/Acetaldehyde//Results_dir_Acetaldehyde_geom_element_C_2019-11-03_18-34-06//GTE1_Acetaldehyde_geom_2019-11-03_18-34-39//TDDFT_C-edge.en.tmp) ****
----------------
ORBITAL ENERGIES
----------------

  NO   OCC          E(Eh)            E(eV) 
   0   2.0000     -19.142495      -520.8938 
   1   2.0000     -10.272718      -279.5349 
   2   2.0000     -10.185555      -277.1630 
   3   2.0000      -1.042239       -28.3608 
   4   2.0000      -0.746882       -20.3237 
   5   2.0000      -0.578257       -15.7352 
   6   2.0000      -0.472040       -12.8449 
   7   2.0000      -0.440485       -11.9862 
   8   2.0000      -0.429749       -11.6941 
   9   2.0000      -0.395253       -10.7554 
  10   2.0000      -0.358038        -9.7427 
  11   2.0000      -0.251109        -6.8330 
  12   0.0000      -0.023791        -0.6474 
  13   0.0000       0.112325         3.0565 
  14   0.0000       0.120518         3.2795 
  15   0.0000       0.172162         4.6848 
  16   0.0000       0.176089         4.7916 
  17   0.0000       0.258400         7.0314 
  18   0.0000       0.272117         7.4047 
  19   0.0000       0.525885        14.3101 
  20   0.0000       0.538467        14.6524 
  21   0.0000       0.576888        15.6979 
  22   0.0000       0.606856        16.5134 
  23   0.0000       0.671688        18.2775 
  24   0.0000       0.722649        19.6643 
  25   0.0000       0.790017        21.4975 
  26   0.0000       0.854071        23.2405 
  27   0.0000       0.856946        23.3187 
  28   0.0000       0.872828        23.7509 
  29   0.0000       0.938902        25.5488 
  30   0.0000       0.944447        25.6997 
  31   0.0000       0.995413        27.0866 
  32   0.0000       1.087681        29.5973 
  33   0.0000       1.235168        33.6106 
  34   0.0000       1.397244        38.0209 
  35   0.0000       1.518276        41.3144 
  36   0.0000       1.582692        43.0672 
  37   0.0000       1.710415        46.5427 
  38   0.0000       1.800016        48.9809 
  39   0.0000       1.801945        49.0334 
  40   0.0000       1.846032        50.2331 
  41   0.0000       2.039049        55.4854 
  42   0.0000       2.135506        58.1101 
  43   0.0000       2.207768        60.0764 
  44   0.0000       2.231848        60.7317 
  45   0.0000       2.334860        63.5348 
  46   0.0000       2.535278        68.9884 
  47   0.0000       2.601374        70.7870 
  48   0.0000       2.850439        77.5644 
  49   0.0000       2.947636        80.2093 
------------------
MOLECULAR ORBITALS
------------------
                      0         1         2         3         4         5   
                 -19.14249 -10.27272 -10.18555  -1.04224  -0.74688  -0.57826
                   2.00000   2.00000   2.00000   2.00000   2.00000   2.00000
                  --------  --------  --------  --------  --------  --------
  0C   1s        -0.000015 -0.000873  0.995262  0.017887  0.182102 -0.068714
  0C   2s         0.000227  0.000885  0.037332 -0.033713 -0.350076  0.134230
  0C   1pz       -0.000020  0.000009 -0.000009  0.001112 -0.000467 -0.007785
  0C   1px        0.000279  0.000972  0.000202 -0.023060 -0.037392 -0.172206
  0C   1py        0.000196  0.000114  0.000098 -0.011995 -0.003141  0.023912
  0C   3s         0.000467 -0.004967 -0.032550 -0.018749 -0.317047  0.165358
  0C   2pz       -0.000217 -0.000198  0.000057  0.001426 -0.000652 -0.002391
  0C   2px        0.000036 -0.003442 -0.001372 -0.000411 -0.002423 -0.053432
  0C   2py        0.001539  0.000784 -0.000650 -0.010263  0.003162  0.007034
  0C   1dz2       0.000095 -0.000560 -0.000035  0.002102 -0.000070  0.008270
  0C   1dxz      -0.000065 -0.000022  0.000000  0.000325 -0.000143 -0.000312
  0C   1dyz       0.000040  0.000009 -0.000004 -0.000024  0.000008  0.000397
  0C   1dx2y2     0.000036  0.000940  0.000026 -0.003154  0.000051 -0.011142
  0C   1dxy       0.000437  0.000502  0.000015 -0.003520  0.001069 -0.002391
  1C   1s        -0.000226 -0.995146 -0.000830  0.117356  0.078435  0.135467
  1C   2s        -0.000005 -0.035693 -0.001227 -0.224226 -0.158554 -0.285763
  1C   1pz       -0.000035  0.000282  0.000011  0.022833 -0.012219 -0.030441
  1C   1px       -0.000090 -0.000595  0.000554 -0.062830  0.141259 -0.101221
  1C   1py        0.000229 -0.002097  0.000024 -0.172782  0.111835  0.196770
  1C   3s        -0.009043  0.015895  0.007335 -0.083851 -0.118800 -0.267659
  1C   2pz        0.000974  0.000710  0.000014 -0.003020 -0.003579 -0.013457
  1C   2px       -0.000882 -0.002897 -0.004042 -0.000356  0.026199 -0.019769
  1C   2py       -0.007041 -0.005545 -0.000828  0.021407  0.030333  0.092198
  1C   1dz2      -0.000250  0.001143  0.000453  0.014902  0.005043  0.004738
  1C   1dxz      -0.000096  0.000128  0.000029  0.002009 -0.001073 -0.002123
  1C   1dyz      -0.000138  0.000399 -0.000029  0.006013 -0.000628  0.001443
  1C   1dx2y2    -0.000641  0.000984 -0.000896  0.018700 -0.013754 -0.000698
  1C   1dxy       0.000646 -0.001094 -0.000505 -0.015637  0.003516  0.013329
  2H   1s        -0.000121  0.000346 -0.000522 -0.006631 -0.112067  0.097243
  2H   2s         0.000037 -0.001002  0.005792  0.001168 -0.023369  0.046827
  3H   1s         0.000244  0.000475 -0.000585 -0.005359 -0.114500  0.057825
  3H   2s         0.000069  0.000035  0.005603 -0.000606 -0.023976  0.022999
  4H   1s        -0.000121  0.000346 -0.000522 -0.006637 -0.112094  0.097259
  4H   2s         0.000036 -0.001002  0.005792  0.001161 -0.023533  0.046852
  5O   1s        -0.995112  0.000049 -0.000013  0.194350 -0.053781 -0.069200
  5O   2s        -0.029412 -0.000452 -0.000389 -0.428597  0.124342  0.162698
  5O   1pz       -0.000279  0.000130 -0.000007 -0.019874  0.000927 -0.019759
  5O   1px        0.000845 -0.000442  0.000139  0.059740  0.024337 -0.024282
  5O   1py        0.002123 -0.000998  0.000073  0.151265 -0.002150  0.135348
  5O   3s         0.019293  0.005868  0.000465 -0.375228  0.124950  0.195415
  5O   2pz        0.000676  0.000581  0.000053 -0.005731 -0.000726 -0.010774
  5O   2px       -0.002374 -0.001305  0.000165  0.019121  0.011957 -0.007262
  5O   2py       -0.005204 -0.004341 -0.000344  0.043885  0.007218  0.074716
  5O   1dz2      -0.000075 -0.001064 -0.000243  0.002952  0.001731  0.004848
  5O   1dxz      -0.000025 -0.000127  0.000025  0.001156  0.000304 -0.000009
  5O   1dyz      -0.000023 -0.000420 -0.000074  0.001696  0.000277  0.002691
  5O   1dx2y2    -0.000064 -0.001249 -0.000068  0.008046 -0.000575  0.010158
  5O   1dxy       0.000189  0.001015 -0.000114 -0.007696 -0.002803  0.000321
  6H   1s         0.000247  0.001000 -0.000388 -0.028022 -0.051450 -0.212760
  6H   2s        -0.001188 -0.005071  0.000362  0.011171 -0.011572 -0.101846
                      6         7         8         9        10        11   
                  -0.47204  -0.44048  -0.42975  -0.39525  -0.35804  -0.25111
                   2.00000   2.00000   2.00000   2.00000   2.00000   2.00000
                  --------  --------  --------  --------  --------  --------
  0C   1s        -0.017329 -0.000005  0.004555  0.001623 -0.000011 -0.036974
  0C   2s         0.031988 -0.000069 -0.009226 -0.003723 -0.000054  0.070880
  0C   1pz        0.030152  0.378069  0.018419 -0.053130  0.233916 -0.001874
  0C   1px       -0.172062 -0.009545  0.277485 -0.080441 -0.005974  0.226293
  0C   1py       -0.244270  0.053486 -0.081266  0.361647  0.033087  0.053871
  0C   3s         0.044181  0.000166 -0.014042  0.004150  0.000323  0.278420
  0C   2pz        0.014885  0.177150  0.008715 -0.023661  0.142645  0.005662
  0C   2px       -0.065588 -0.004372  0.139636 -0.031683 -0.003533  0.176234
  0C   2py       -0.116228  0.024779 -0.036704  0.161407  0.020083 -0.007928
  0C   1dz2      -0.001737 -0.004343 -0.010739  0.014883 -0.002722 -0.000762
  0C   1dxz       0.000575 -0.008592 -0.000087  0.001659 -0.017502 -0.000188
  0C   1dyz      -0.002469  0.015796 -0.001776  0.005400  0.007734  0.000855
  0C   1dx2y2    -0.013140 -0.002056  0.005394  0.014320 -0.000674  0.006743
  0C   1dxy      -0.005825 -0.001632  0.004975 -0.013912 -0.002679  0.002742
  1C   1s         0.044798  0.000003  0.008124  0.004788  0.000006 -0.001421
  1C   2s        -0.104637  0.000017 -0.026481 -0.019299 -0.000024  0.016683
  1C   1pz        0.035356  0.231696  0.021592  0.031439 -0.269855 -0.010076
  1C   1px        0.259250 -0.006004 -0.299899  0.049970  0.006848 -0.141257
  1C   1py       -0.203015  0.032703 -0.207443 -0.213171 -0.038108  0.045919
  1C   3s        -0.066797 -0.000138  0.010325  0.041937 -0.000058 -0.024534
  1C   2pz        0.007874  0.117162  0.001415  0.004801 -0.172893 -0.002778
  1C   2px        0.091013 -0.003080 -0.089033  0.046836  0.004619  0.065595
  1C   2py       -0.039571  0.016696 -0.026377 -0.025852 -0.024470  0.031392
  1C   1dz2      -0.001545 -0.002533  0.002282  0.000942  0.005334  0.000928
  1C   1dxz      -0.000220 -0.006223  0.000689  0.002869 -0.016112 -0.004772
  1C   1dyz      -0.000164  0.009012  0.000994  0.001459 -0.024212  0.005660
  1C   1dx2y2     0.001136 -0.001141  0.003867  0.011910  0.003889  0.030458
  1C   1dxy       0.002291 -0.001127 -0.004905 -0.018461 -0.001637  0.038786
  2H   1s         0.003549  0.190500 -0.101986  0.123191  0.140048 -0.021554
  2H   2s         0.003590  0.146111 -0.069170  0.107971  0.111066 -0.055945
  3H   1s         0.173561 -0.000098  0.016315 -0.239558 -0.000054 -0.038101
  3H   2s         0.120301 -0.000217  0.021109 -0.209991 -0.000139 -0.107500
  4H   1s         0.003493 -0.190524 -0.101873  0.123250 -0.140019 -0.021526
  4H   2s         0.003620 -0.145996 -0.069114  0.108049 -0.111040 -0.055837
  5O   1s        -0.051478 -0.000019 -0.062476 -0.026029  0.000001 -0.000545
  5O   2s         0.117783  0.000036  0.135370  0.056464  0.000010  0.006188
  5O   1pz       -0.009961  0.212789 -0.058773 -0.026355 -0.465798  0.042312
  5O   1px        0.280346 -0.005451 -0.011272  0.175252  0.011875  0.537855
  5O   1py        0.121005  0.030229  0.412806  0.217792 -0.065917 -0.202083
  5O   3s         0.187855  0.000080  0.269865  0.101421 -0.000050 -0.026178
  5O   2pz       -0.004838  0.122711 -0.030897 -0.015395 -0.297347  0.029475
  5O   2px        0.153404 -0.003141 -0.014779  0.099683  0.007541  0.387595
  5O   2py        0.061965  0.017411  0.215417  0.126882 -0.042045 -0.138501
  5O   1dz2       0.006544  0.003232  0.008626  0.005163 -0.006086  0.000785
  5O   1dxz       0.002188 -0.006622  0.000174  0.001486  0.009946  0.001555
  5O   1dyz       0.000458 -0.014104  0.004636  0.001417  0.026112 -0.001925
  5O   1dx2y2    -0.004770  0.002200  0.017301  0.003020 -0.004010 -0.012237
  5O   1dxy      -0.018387 -0.000563 -0.000901 -0.011597  0.000721 -0.013409
  6H   1s         0.122658 -0.000006 -0.020439  0.120952 -0.000041 -0.178701
  6H   2s         0.107662  0.000060 -0.002155  0.112459 -0.000091 -0.276936
                     12        13        14        15        16        17   
                  -0.02379   0.11233   0.12052   0.17216   0.17609   0.25840
                   0.00000   0.00000   0.00000   0.00000   0.00000   0.00000
                  --------  --------  --------  --------  --------  --------
  0C   1s        -0.000002  0.105074 -0.102395  0.000326  0.042865  0.063256
  0C   2s        -0.000106 -0.116021  0.117552 -0.000030 -0.049638 -0.016253
  0C   1pz       -0.005470 -0.016465 -0.028914 -0.429011 -0.043217 -0.004272
  0C   1px        0.000164  0.192101 -0.041369  0.009979 -0.154820 -0.146773
  0C   1py       -0.000741  0.152089  0.197111 -0.058734  0.299998  0.003578
  0C   3s         0.000245 -1.812289  1.652639 -0.005362 -0.618005 -1.543845
  0C   2pz        0.158109 -0.028246 -0.088200 -1.363307 -0.165190  0.009277
  0C   2px       -0.003782  0.583053 -0.042519  0.030333 -0.690317 -1.564991
  0C   2py        0.022145  0.305971  0.612882 -0.185794  1.104083 -0.350089
  0C   1dz2       0.002479  0.000799 -0.007699 -0.003732 -0.016352 -0.014904
  0C   1dxz       0.031924 -0.000642 -0.000970 -0.000478 -0.000418  0.001516
  0C   1dyz      -0.004206 -0.001665 -0.003374  0.014477 -0.003234  0.001670
  0C   1dx2y2    -0.000189 -0.013246 -0.011453 -0.002044  0.004843  0.037305
  0C   1dxy       0.004635  0.001872  0.007285 -0.000395  0.009146  0.000668
  1C   1s         0.000016  0.048853  0.079038 -0.000616 -0.092006 -0.029876
  1C   2s         0.000150 -0.120710 -0.071639  0.001092  0.157093  0.078234
  1C   1pz        0.496301 -0.024033 -0.028506  0.128164  0.019226 -0.010741
  1C   1px       -0.012595 -0.090212 -0.080252 -0.003193  0.009569 -0.464422
  1C   1py        0.070143  0.152710  0.187342  0.017150 -0.138846 -0.008230
  1C   3s        -0.000761 -0.606628 -1.358410  0.009507  1.386282  0.373334
  1C   2pz        0.526334 -0.060276 -0.052598  0.400091  0.076089  0.069102
  1C   2px       -0.013530 -0.239035 -0.012688 -0.009987  0.060433 -1.899214
  1C   2py        0.074661  0.383193  0.370466  0.053685 -0.545327 -0.829620
  1C   1dz2       0.006968  0.001911 -0.010041 -0.000001  0.004107 -0.000440
  1C   1dxz      -0.007219  0.000026  0.002470  0.012894  0.003156 -0.001054
  1C   1dyz      -0.029148  0.000753 -0.001174  0.002439  0.002167 -0.001319
  1C   1dx2y2     0.004382  0.001981  0.011462 -0.000579  0.012087 -0.009382
  1C   1dxy      -0.000261 -0.000484 -0.012285  0.001630 -0.022159  0.005821
  2H   1s        -0.098606  0.016147 -0.045900  0.074851 -0.057126 -0.021814
  2H   2s        -0.332329  0.760515 -1.049407  1.490222 -0.679553 -0.066391
  3H   1s        -0.000012  0.059809  0.052422  0.000625  0.085555 -0.126623
  3H   2s        -0.000064  1.333074  0.212672  0.009932  1.581108 -0.182633
  4H   1s         0.098569  0.016079 -0.046066 -0.075422 -0.056482 -0.021896
  4H   2s         0.332485  0.760777 -1.050430 -1.497498 -0.660969 -0.066774
  5O   1s        -0.000007  0.007639 -0.004557  0.000138  0.017846 -0.050837
  5O   2s        -0.000001 -0.021304  0.006024 -0.000427 -0.062947  0.076346
  5O   1pz       -0.411565  0.009248  0.005576 -0.126291 -0.011709  0.018365
  5O   1px        0.010488  0.091148  0.022399  0.003687  0.064553  0.107862
  5O   1py       -0.058224 -0.048732 -0.035406 -0.017181  0.099639 -0.110643
  5O   3s         0.000137 -0.088039  0.079163 -0.000814 -0.040135  1.016949
  5O   2pz       -0.432109  0.008199  0.014290 -0.150467 -0.015163  0.075336
  5O   2px        0.011023  0.134507  0.038732  0.004093  0.023708  0.193582
  5O   2py       -0.061235 -0.033512 -0.094572 -0.020315  0.118205 -0.497813
  5O   1dz2       0.000297  0.000060 -0.007915  0.000287 -0.000073 -0.007467
  5O   1dxz       0.000960  0.000697  0.000016 -0.001755 -0.000183 -0.003023
  5O   1dyz      -0.001041  0.000580 -0.001456 -0.001425  0.000041 -0.003328
  5O   1dx2y2     0.000119  0.004637  0.003090  0.000250  0.000122 -0.014075
  5O   1dxy       0.000160 -0.004089  0.002956 -0.000213  0.001414  0.021159
  6H   1s         0.000070  0.007450  0.099988 -0.000152 -0.029371  0.003880
  6H   2s         0.000328  0.865664  1.177088 -0.007105 -1.135242  0.747848
                     18        19        20        21        22        23   
                   0.27212   0.52589   0.53847   0.57689   0.60686   0.67169
                   0.00000   0.00000   0.00000   0.00000   0.00000   0.00000
                  --------  --------  --------  --------  --------  --------
  0C   1s        -0.035355 -0.000074 -0.018930  0.016724  0.000031 -0.018500
  0C   2s         0.036638  0.001790  0.229408 -0.115090 -0.001466  0.161535
  0C   1pz       -0.015478  0.349227  0.045536  0.089146 -0.686291 -0.015712
  0C   1px        0.133106 -0.003685  0.909402 -0.341776  0.017534  0.211755
  0C   1py        0.132435  0.047370 -0.161836 -0.665484 -0.100956  0.149300
  0C   3s         0.286928 -0.000486  0.055568 -0.170338  0.002500 -1.194307
  0C   2pz       -0.116120 -0.631847 -0.100584 -0.209318  1.763331  0.068841
  0C   2px        0.635937  0.009920 -1.123523  0.353026 -0.045373 -0.973980
  0C   2py        0.934579 -0.083449  0.508688  1.476788  0.260163 -0.662504
  0C   1dz2       0.014119 -0.015111 -0.054430 -0.070488  0.022808  0.046866
  0C   1dxz       0.005009 -0.021693 -0.000588 -0.001640  0.048769 -0.008048
  0C   1dyz       0.000965  0.055240 -0.012961 -0.026548 -0.085430  0.001621
  0C   1dx2y2    -0.010105 -0.007406  0.001597 -0.069161  0.010576 -0.075583
  0C   1dxy      -0.041781 -0.004466  0.022189  0.019934  0.009348  0.028260
  1C   1s         0.070266  0.000284  0.046806 -0.013924  0.000031 -0.041827
  1C   2s        -0.035564  0.000260  0.202664  0.135677  0.000192  0.157456
  1C   1pz        0.035072  0.887840  0.011595  0.014527  0.497295 -0.068941
  1C   1px        0.277857 -0.023692 -0.033811  0.014312 -0.013197  0.792414
  1C   1py       -0.198704  0.125274 -0.133044 -0.122849  0.069983  0.634653
  1C   3s        -1.951342  0.000160 -0.147951 -0.970771 -0.004793  1.004921
  1C   2pz        0.275062 -0.847588  0.030799  0.073121 -1.142109 -0.033602
  1C   2px        0.170163  0.025116  0.232806 -0.413332  0.029656 -1.935932
  1C   2py       -1.912771 -0.123752 -0.122731 -0.543705 -0.167344 -0.116839
  1C   1dz2      -0.012712 -0.005567 -0.101121  0.015686 -0.004098  0.033370
  1C   1dxz       0.000881 -0.000837  0.004621  0.006918 -0.029006  0.010624
  1C   1dyz      -0.003527  0.019758 -0.014252 -0.000828  0.010530  0.020566
  1C   1dx2y2    -0.001904 -0.002453  0.075093 -0.021991 -0.000765  0.097323
  1C   1dxy      -0.002577 -0.000509  0.013071 -0.056970 -0.004792 -0.068557
  2H   1s         0.085311  0.244138 -0.174214 -0.118890 -0.334139 -0.078958
  2H   2s        -0.129451  0.143116 -0.118822 -0.065419 -0.350027  0.033983
  3H   1s        -0.037567  0.000961  0.120948  0.463002  0.003066 -0.020355
  3H   2s         0.711085  0.001891  0.102722  0.360720  0.002469 -0.485889
  4H   1s         0.085330 -0.245884 -0.172870 -0.122558  0.331282 -0.079423
  4H   2s        -0.130208 -0.144574 -0.118605 -0.069032  0.347327  0.034439
  5O   1s        -0.090321 -0.000148 -0.019137 -0.011646 -0.000122  0.038954
  5O   2s         0.118068  0.000483  0.075178 -0.061931 -0.000196 -0.139890
  5O   1pz        0.016676  0.032706  0.001808  0.012950  0.113396 -0.025342
  5O   1px       -0.104493 -0.001305 -0.060307  0.300836 -0.001256  0.228683
  5O   1py       -0.136728  0.004440 -0.026441 -0.042008  0.015812  0.220149
  5O   3s         1.886825  0.001835  0.132754  0.740646  0.005107  0.003330
  5O   2pz        0.088425  0.069836  0.008140  0.040029  0.131524 -0.030809
  5O   2px       -0.469115 -0.003143 -0.149338 -0.125662 -0.005009  0.296385
  5O   2py       -0.709899  0.009182 -0.089757 -0.310920  0.016577  0.272424
  5O   1dz2      -0.025382  0.013449 -0.012803 -0.024106  0.004279 -0.047903
  5O   1dxz      -0.002102 -0.016854  0.002945 -0.001875 -0.034239 -0.006816
  5O   1dyz      -0.010243 -0.057094 -0.002049 -0.003355 -0.024094 -0.025982
  5O   1dx2y2    -0.030287  0.008776  0.007673  0.012762  0.004468 -0.105037
  5O   1dxy       0.017499 -0.000902 -0.014223  0.024514 -0.004035  0.044654
  6H   1s         0.058090  0.001083  0.256291  0.244255  0.001877  0.139226
  6H   2s        -0.834271 -0.002941 -0.153875 -0.032813 -0.002932  0.486233
                     24        25        26        27        28        29   
                   0.72265   0.79002   0.85407   0.85695   0.87283   0.93890
                   0.00000   0.00000   0.00000   0.00000   0.00000   0.00000
                  --------  --------  --------  --------  --------  --------
  0C   1s        -0.025643 -0.027743  0.000026  0.030218 -0.015696  0.045777
  0C   2s         0.132438 -0.057539 -0.001532 -0.014030 -0.071942 -0.788157
  0C   1pz       -0.027246  0.094321 -0.814730  0.002220 -0.064998 -0.034953
  0C   1px        0.007990  0.173196  0.020947  0.050931 -0.067632  0.258181
  0C   1py        0.193026 -0.635852 -0.114764  0.004296  0.456637  0.296265
  0C   3s        -1.026059  0.093698  0.004261  0.160308  0.260901  1.098149
  0C   2pz        0.117890 -0.264741  1.225160  0.059474  0.055898 -0.007204
  0C   2px       -0.890655 -0.784552 -0.030509  0.315168 -0.008955 -0.761562
  0C   2py       -0.991289  1.730919  0.172744 -0.377688 -0.413245 -0.090229
  0C   1dz2       0.030612 -0.014056 -0.035960 -0.001950 -0.106867 -0.075027
  0C   1dxz       0.000878  0.017477 -0.164492  0.000883 -0.004074  0.010673
  0C   1dyz       0.002981 -0.001687  0.113822  0.005586 -0.037862 -0.037913
  0C   1dx2y2    -0.028585  0.033554 -0.012275  0.043798 -0.086382 -0.120526
  0C   1dxy      -0.021259 -0.112498 -0.026260  0.004852  0.048686 -0.072417
  1C   1s         0.035195 -0.028847 -0.000118 -0.041607 -0.026836  0.001533
  1C   2s        -0.683563 -0.533103  0.002165  1.336413 -0.593631 -0.130123
  1C   1pz        0.111507 -0.023457 -0.048555  0.086670  0.010064 -0.012870
  1C   1px        0.521409  0.176170  0.001683  0.279496 -0.044078  0.080116
  1C   1py       -0.688901  0.192948 -0.008105 -0.556758 -0.080483  0.104352
  1C   3s         1.440795  1.018598 -0.007139 -2.882740 -0.100705  1.081378
  1C   2pz       -0.267199  0.194639  0.053227 -0.198499  0.114395  0.046927
  1C   2px       -1.939750  0.111045 -0.001651 -0.715937  0.131624 -0.292168
  1C   2py        1.531800 -1.351439  0.008721  1.267070 -0.782034 -0.384278
  1C   1dz2      -0.040417  0.095082  0.004154  0.050598  0.098897  0.011031
  1C   1dxz      -0.012959 -0.021645  0.105770 -0.007231  0.007889 -0.015380
  1C   1dyz      -0.016854  0.030261  0.003549  0.023801  0.037597 -0.010205
  1C   1dx2y2    -0.064000  0.022127 -0.002920  0.068340  0.102227 -0.105419
  1C   1dxy       0.093137  0.126196  0.014890  0.045004 -0.069789  0.086016
  2H   1s        -0.191377 -0.095297  0.705336  0.242120 -0.390369  0.169830
  2H   2s         0.012440 -0.683323 -1.405428  0.023062  0.435308 -0.475782
  3H   1s        -0.165741 -0.361726  0.000671  0.113581  0.475929  0.852472
  3H   2s        -0.431653  1.131352 -0.001466 -0.198126 -0.951822 -1.155106
  4H   1s        -0.191729 -0.094743 -0.705147  0.245375 -0.389098  0.170010
  4H   2s         0.013092 -0.684248  1.404499  0.017228  0.431925 -0.476378
  5O   1s        -0.005999  0.010281 -0.000070 -0.005499 -0.054342  0.023029
  5O   2s         0.061320 -0.146268  0.000217  0.035234  0.226272 -0.133210
  5O   1pz        0.054034 -0.014390  0.076764 -0.032603 -0.067796  0.043174
  5O   1px        0.056135 -0.039615 -0.002026  0.004129  0.076729 -0.226292
  5O   1py       -0.371900  0.091378  0.011994  0.234643  0.491000 -0.350073
  5O   3s        -0.690077  0.512486  0.001390  0.134442  0.584847 -0.031239
  5O   2pz       -0.007030 -0.001957 -0.121699  0.058222  0.134514 -0.081144
  5O   2px        0.256059 -0.130363  0.002664  0.034629 -0.427626  0.349448
  5O   2py        0.097172 -0.006769 -0.019387 -0.407662 -1.025881  0.641646
  5O   1dz2       0.082396 -0.004399  0.003045 -0.036087 -0.009223  0.019857
  5O   1dxz       0.012909  0.002504  0.014344  0.002352 -0.001259  0.000507
  5O   1dyz       0.023079 -0.004436 -0.010133 -0.019812 -0.006793  0.005228
  5O   1dx2y2     0.037809 -0.019868  0.000938 -0.071247 -0.032404  0.003240
  5O   1dxy      -0.110768 -0.019681  0.002274 -0.018266  0.006237 -0.009290
  6H   1s        -0.069491 -0.795738 -0.001809 -0.576575 -0.306532 -0.336981
  6H   2s         1.218649 -0.164743  0.003863  2.120259 -0.190746  0.054341
                     30        31        32        33        34        35   
                   0.94445   0.99541   1.08768   1.23517   1.39724   1.51828
                   0.00000   0.00000   0.00000   0.00000   0.00000   0.00000
                  --------  --------  --------  --------  --------  --------
  0C   1s        -0.036209 -0.000003  0.000972 -0.110267  0.000037  0.000003
  0C   2s         1.009745 -0.001068 -0.109789 -2.089023  0.000601  0.000203
  0C   1pz       -0.036269  0.130797 -0.027053 -0.007373  0.124856  0.014784
  0C   1px       -0.383444 -0.003011  0.012876 -0.099355 -0.003115 -0.000332
  0C   1py        0.185756  0.018443  0.193894  0.039371  0.017607  0.002108
  0C   3s        -1.642355  0.001802  1.311930  6.215272 -0.001898 -0.000455
  0C   2pz        0.006374 -0.539201  0.027904  0.002662  0.045579  0.116676
  0C   2px        0.831136  0.012518  0.602707  1.130270 -0.001635 -0.003054
  0C   2py        0.107230 -0.075620 -0.089992  0.172596  0.006624  0.016335
  0C   1dz2      -0.150343  0.001611 -0.039890 -0.048191  0.085554 -0.021638
  0C   1dxz       0.007137  0.032743  0.003108 -0.001084 -0.425109 -0.075755
  0C   1dyz      -0.033004 -0.000528 -0.002653 -0.005234 -0.419990  0.072775
  0C   1dx2y2     0.030849 -0.000835  0.050656  0.041502  0.071004 -0.008624
  0C   1dxy       0.002738  0.004553 -0.000639  0.029379 -0.049166 -0.012739
  1C   1s         0.021361 -0.000002  0.007231  0.038733 -0.000019  0.000001
  1C   2s         0.678419 -0.001337  0.164168  0.643899 -0.000177 -0.000052
  1C   1pz       -0.011170 -0.109666 -0.022886  0.008722  0.019049 -0.190036
  1C   1px       -0.032107  0.002851 -0.281144  0.028929 -0.000471  0.004840
  1C   1py        0.072969 -0.015109  0.110519 -0.055590  0.002711 -0.026832
  1C   3s        -0.796086  0.002780 -0.556088 -3.420568  0.000932  0.000517
  1C   2pz        0.044313  0.671979  0.121200  0.026047  0.005252  0.112283
  1C   2px        0.500418 -0.017033  1.924606  1.669788 -0.000745 -0.002899
  1C   2py       -0.221842  0.093703 -0.508638  0.117857  0.000438  0.016150
  1C   1dz2      -0.068082 -0.003679 -0.007358 -0.111819  0.033733 -0.169042
  1C   1dxz      -0.008345  0.037349 -0.013983  0.018601  0.606562 -0.069167
  1C   1dyz      -0.016213  0.021863  0.016078 -0.030630 -0.025544  0.663673
  1C   1dx2y2    -0.009026 -0.004182  0.102366 -0.001767 -0.011498 -0.094085
  1C   1dxy       0.079036  0.004751  0.119503 -0.094896  0.086588 -0.027358
  2H   1s        -0.552937 -0.036105  0.010916 -0.489455 -0.139140 -0.064695
  2H   2s         1.066135  0.317162  0.086082 -0.608110  0.093032 -0.082454
  3H   1s         0.051869  0.000253  0.042831 -0.463540  0.000250 -0.000002
  3H   2s         0.335163 -0.000566 -0.228942 -0.788455  0.000302  0.000022
  4H   1s        -0.553235  0.036179  0.010724 -0.489094  0.139414  0.064750
  4H   2s         1.066795 -0.319077  0.086286 -0.610226 -0.092821  0.082597
  5O   1s         0.020475  0.000004 -0.001317  0.005596  0.000004 -0.000002
  5O   2s        -0.108950 -0.000040  0.026369 -0.185816 -0.000101  0.000180
  5O   1pz        0.032281  0.927736  0.060776  0.000568 -0.054612 -0.118931
  5O   1px       -0.234548 -0.023565  0.771098 -0.019527  0.001384  0.003062
  5O   1py       -0.267232  0.131106 -0.291340 -0.008583 -0.007708 -0.016820
  5O   3s         0.109705  0.000038 -0.017582  0.586470  0.000198 -0.000523
  5O   2pz       -0.076556 -1.282450 -0.115925  0.007583 -0.023808 -0.113550
  5O   2px        0.197727  0.032561 -1.460512 -0.253224  0.000704  0.002937
  5O   2py        0.572711 -0.181134  0.556835 -0.098750 -0.003427 -0.015911
  5O   1dz2      -0.028604  0.009268 -0.014975 -0.168608  0.056176  0.077707
  5O   1dxz       0.001816 -0.002721  0.010528  0.010725  0.159331 -0.352720
  5O   1dyz      -0.011569 -0.037337 -0.017977 -0.035658 -0.195641 -0.373745
  5O   1dx2y2    -0.028876  0.005491 -0.083200  0.048380  0.024241  0.062689
  5O   1dxy      -0.008917  0.000610 -0.084122 -0.013274  0.027808 -0.039988
  6H   1s        -0.245019 -0.000090 -0.164948  0.035230 -0.000079  0.000081
  6H   2s         0.082960 -0.001216 -0.698333 -0.050246 -0.000007 -0.000001
                     36        37        38        39        40        41   
                   1.58269   1.71041   1.80002   1.80195   1.84603   2.03905
                   0.00000   0.00000   0.00000   0.00000   0.00000   0.00000
                  --------  --------  --------  --------  --------  --------
  0C   1s        -0.014830 -0.048790 -0.002408 -0.000005 -0.043501  0.010305
  0C   2s        -0.237010 -0.251644  0.521770  0.000441 -0.119105 -0.126083
  0C   1pz        0.013015 -0.013147 -0.008309  0.056140  0.009847  0.011530
  0C   1px       -0.017358  0.122709  0.216286 -0.001207  0.164459 -0.050543
  0C   1py       -0.095230  0.115269  0.097108  0.008083 -0.039679 -0.090466
  0C   3s         0.714160  1.686798 -0.613007 -0.000399  1.411996  0.073503
  0C   2pz       -0.017469  0.052235  0.037140 -0.313511 -0.100124  0.025530
  0C   2px        0.091248  0.484398 -0.189385  0.007780  0.281765  0.231886
  0C   2py        0.140972 -0.282911 -0.295005 -0.044852  0.757583 -0.140520
  0C   1dz2       0.225242 -0.146503  0.028384  0.065187  0.365297 -0.498494
  0C   1dxz      -0.042534  0.089031  0.014071 -0.372615 -0.093087 -0.012264
  0C   1dyz       0.059037 -0.058386 -0.028893 -0.328736  0.057039 -0.101079
  0C   1dx2y2    -0.021386 -0.043898 -0.225966  0.056360 -0.325318  0.113225
  0C   1dxy       0.224826 -0.589974 -0.144780 -0.044366  0.483339  0.265332
  1C   1s         0.018537  0.017203 -0.023598 -0.000027  0.020728 -0.009165
  1C   2s         0.073394  0.516127  0.055533 -0.000006  0.394843 -0.309847
  1C   1pz       -0.006841 -0.001724  0.013304  0.057666  0.016441  0.006499
  1C   1px        0.051310 -0.025294  0.051730 -0.001413 -0.229589  0.270317
  1C   1py        0.057436  0.008548 -0.085720  0.008121 -0.157718  0.002399
  1C   3s         1.673224 -1.179075  0.645529  0.001061 -2.171343  0.689376
  1C   2pz       -0.170842 -0.130690  0.020485  0.204286  0.242936 -0.002685
  1C   2px        0.678522  0.778274  0.526989 -0.004576  1.015816  0.238707
  1C   2py        1.330135  1.063358 -0.050492  0.029112 -1.533841  0.063118
  1C   1dz2       0.039049  0.230579 -0.148311  0.021673  0.314614 -0.560998
  1C   1dxz      -0.022818 -0.042073  0.048955 -0.104114  0.029704  0.059934
  1C   1dyz      -0.012472  0.012713 -0.090013 -0.106250  0.064789 -0.137662
  1C   1dx2y2    -0.175590 -0.341203 -0.303156  0.017538 -0.037942  0.061763
  1C   1dxy       0.118419  0.163226 -0.351402 -0.012277 -0.316624 -0.234050
  2H   1s        -0.083637 -0.201294  0.009215  0.040686 -0.208248  0.271737
  2H   2s        -0.186003 -0.015541  0.189021  0.102987 -0.094923 -0.042784
  3H   1s        -0.054336 -0.172955 -0.104163 -0.000116 -0.155143 -0.186354
  3H   2s         0.151792 -0.214356 -0.025002 -0.000233  0.182290  0.000657
  4H   1s        -0.083584 -0.201326  0.009173 -0.040680 -0.208219  0.271695
  4H   2s        -0.185951 -0.015617  0.189318 -0.102582 -0.095231 -0.042910
  5O   1s        -0.039461  0.010290  0.003359  0.000007 -0.010266  0.001419
  5O   2s         1.586532  0.143581  0.062094  0.000172 -0.526761  0.160325
  5O   1pz        0.021914 -0.014970  0.012385  0.057943  0.029999  0.001273
  5O   1px       -0.055790  0.140475  0.254785 -0.001201  0.034245  0.066931
  5O   1py       -0.165208  0.131017 -0.042129  0.008187 -0.205940  0.003199
  5O   3s        -3.483237 -0.831861 -0.351455 -0.000836  2.133268 -0.556601
  5O   2pz       -0.155976 -0.023151 -0.038941 -0.094649  0.046428 -0.033494
  5O   2px        0.425334 -0.091685 -0.328710  0.002128 -0.558125 -0.058929
  5O   2py        1.179648  0.147723  0.216678 -0.013026 -0.428819  0.225795
  5O   1dz2      -0.072290  0.402854 -0.386822 -0.138768  0.404299  0.423394
  5O   1dxz      -0.017817 -0.066343 -0.004489 -0.720433 -0.041100 -0.075714
  5O   1dyz      -0.033384  0.095144 -0.018770  0.422902  0.091644  0.103651
  5O   1dx2y2    -0.129364 -0.099433  0.498584 -0.042438 -0.092686 -0.086541
  5O   1dxy       0.126131  0.323675  0.248562 -0.113049  0.144325  0.384313
  6H   1s        -0.075127  0.297424 -0.548688 -0.000559 -0.287311 -0.442089
  6H   2s         0.062396  0.284085 -0.093493 -0.000121 -0.437831 -0.073715
                     42        43        44        45        46        47   
                   2.13551   2.20777   2.23185   2.33486   2.53528   2.60137
                   0.00000   0.00000   0.00000   0.00000   0.00000   0.00000
                  --------  --------  --------  --------  --------  --------
  0C   1s         0.000006  0.014527 -0.000021  0.029140  0.046516 -0.000016
  0C   2s         0.000204  0.139571 -0.000065  0.249744  0.078080  0.000002
  0C   1pz        0.064925  0.016962  0.103524 -0.003896  0.005189  0.005818
  0C   1px       -0.001626 -0.038095 -0.002508 -0.075761 -0.266081 -0.000046
  0C   1py        0.009178 -0.125816  0.014720  0.014247 -0.084697  0.000843
  0C   3s        -0.000382 -0.760800  0.000889 -1.203933 -1.396616  0.000488
  0C   2pz        0.638916  0.101343  0.213177 -0.022456  0.000146  0.133402
  0C   2px       -0.016173 -0.375680 -0.004794 -0.673158 -0.825761 -0.003067
  0C   2py        0.090752 -0.782186  0.031043  0.039754 -0.148788  0.018809
  0C   1dz2      -0.177957 -0.476134 -0.154686  0.467318  0.487947 -0.058831
  0C   1dxz       0.090871 -0.001178 -0.844926 -0.021868  0.066795 -0.338366
  0C   1dyz       0.730390 -0.240465  0.468624  0.084076  0.068675  0.173690
  0C   1dx2y2    -0.106965 -0.852939 -0.045200 -0.222030 -0.245954 -0.016520
  0C   1dxy      -0.006454  0.003271 -0.131893 -0.037102 -0.671682 -0.052259
  1C   1s         0.000011 -0.019915  0.000063 -0.077565 -0.034042  0.000011
  1C   2s         0.000103  0.011224  0.000043 -0.252943 -0.030457  0.000025
  1C   1pz        0.016358  0.004888  0.144527 -0.013376  0.005575 -0.221383
  1C   1px       -0.000273 -0.244997 -0.003299 -0.187961 -0.231352  0.005695
  1C   1py        0.002289 -0.077328  0.020486  0.061037 -0.081832 -0.031374
  1C   3s        -0.000452  0.870058 -0.001330  1.326890  1.535300 -0.000695
  1C   2pz       -0.348723 -0.117807  0.107685 -0.025229 -0.032702 -0.289009
  1C   2px        0.008949 -0.647806 -0.001791 -0.589512 -1.008247  0.007736
  1C   2py       -0.049561  0.716241  0.014293  0.072423  0.048871 -0.040721
  1C   1dz2       0.068315  0.002704 -0.076153 -0.719395 -0.354644  0.192267
  1C   1dxz       0.688184  0.012446 -0.271451 -0.022221  0.100475 -0.422038
  1C   1dyz      -0.148958 -0.003545  0.257269 -0.243397  0.002298 -0.843966
  1C   1dx2y2     0.004381 -0.014321 -0.030026 -0.495603  0.719810  0.132043
  1C   1dxy       0.101398 -0.090937 -0.045368  0.297655 -0.470959 -0.037185
  2H   1s        -0.387557  0.274572 -0.537430 -0.104986 -0.159888 -0.187271
  2H   2s        -0.100884  0.014174  0.118940  0.017661  0.036402  0.044390
  3H   1s         0.000359 -0.742815  0.000776  0.177466  0.194411 -0.000136
  3H   2s         0.000302 -0.003827  0.000150  0.064106 -0.061528  0.000045
  4H   1s         0.387357  0.276138  0.537001 -0.104257 -0.159775  0.187416
  4H   2s         0.100971  0.013934 -0.118941  0.017601  0.036496 -0.044372
  5O   1s        -0.000001 -0.003208 -0.000017  0.033428 -0.017370  0.000004
  5O   2s        -0.000080  0.223081  0.000034 -0.479230  0.479055 -0.000172
  5O   1pz       -0.040922  0.003326  0.050295 -0.062995  0.036097  0.011637
  5O   1px        0.001076 -0.072337 -0.001271  0.141714 -0.152936 -0.000242
  5O   1py       -0.005819 -0.036161  0.006862  0.471133 -0.282638  0.001745
  5O   3s         0.000349 -0.688049  0.000777 -0.050965 -0.543248  0.000183
  5O   2pz        0.116078 -0.004295 -0.195413  0.039487 -0.024579  0.447517
  5O   2px       -0.003104  0.347092  0.004493  0.162442  0.353193 -0.011561
  5O   2py        0.016367  0.091372 -0.027578 -0.250744  0.238415  0.063165
  5O   1dz2      -0.045426 -0.115352 -0.054695  0.034012  0.171736  0.207238
  5O   1dxz      -0.378766  0.047408  0.364594  0.012753 -0.002178 -0.305084
  5O   1dyz       0.113668 -0.081605  0.284711 -0.046854  0.019186 -0.883869
  5O   1dx2y2    -0.006724 -0.304600 -0.049585 -0.355060 -0.150022  0.135148
  5O   1dxy      -0.056458 -0.349631  0.044574 -0.162353 -0.066352 -0.019687
  6H   1s        -0.000066  0.104923 -0.000090 -0.127474 -0.286249  0.000149
  6H   2s         0.000046  0.298414 -0.000412  0.061877  0.285819 -0.000024
                     48        49   
                   2.85044   2.94764
                   0.00000   0.00000
                  --------  --------
  0C   1s         0.031859 -0.008861
  0C   2s        -0.079909  0.067356
  0C   1pz       -0.005397 -0.002471
  0C   1px       -0.260318  0.093384
  0C   1py       -0.008764  0.034379
  0C   3s        -0.287231  0.065161
  0C   2pz       -0.001437 -0.006296
  0C   2px       -0.273595  0.103670
  0C   2py       -0.039632  0.062918
  0C   1dz2       0.181160 -0.042610
  0C   1dxz      -0.031128  0.010822
  0C   1dyz      -0.035550  0.016909
  0C   1dx2y2    -0.572323  0.196554
  0C   1dxy       0.061169 -0.028060
  1C   1s        -0.041549 -0.031287
  1C   2s        -0.310367 -1.334787
  1C   1pz        0.042433  0.156781
  1C   1px       -0.174373 -0.448765
  1C   1py       -0.331424 -1.189133
  1C   3s         0.225343 -1.693598
  1C   2pz        0.077119  0.111443
  1C   2px        0.027167 -0.237922
  1C   2py       -0.539875 -0.830719
  1C   1dz2      -0.099718  0.425587
  1C   1dxz      -0.090968  0.071686
  1C   1dyz       0.107598  0.132577
  1C   1dx2y2     0.769571  0.289386
  1C   1dxy       0.809815 -0.590476
  2H   1s        -0.004016  0.002227
  2H   2s        -0.002261  0.053570
  3H   1s        -0.175605  0.081369
  3H   2s         0.030109 -0.071641
  4H   1s        -0.004016  0.002199
  4H   2s        -0.002304  0.053552
  5O   1s        -0.009245 -0.061400
  5O   2s        -0.289454 -0.688576
  5O   1pz       -0.004483  0.037308
  5O   1px       -0.039589 -0.091433
  5O   1py        0.024624 -0.280213
  5O   3s         0.863382  3.093112
  5O   2pz        0.027296  0.223520
  5O   2px       -0.531710 -0.596488
  5O   2py       -0.289133 -1.687828
  5O   1dz2      -0.166464 -0.686739
  5O   1dxz      -0.096730 -0.093881
  5O   1dyz       0.027278 -0.297575
  5O   1dx2y2     0.331330 -1.001835
  5O   1dxy       0.794394  0.704610
  6H   1s         0.268247 -0.020567
  6H   2s        -0.396623  0.016251



                    ********************************
                    * MULLIKEN POPULATION ANALYSIS *
                    ********************************

-----------------------
MULLIKEN ATOMIC CHARGES
-----------------------
   0 C :   -0.514522
   1 C :    0.228761
   2 H :    0.188843
   3 H :    0.154963
   4 H :    0.188739
   5 O :   -0.353130
   6 H :    0.106347
Sum of atomic charges:   -0.0000000

--------------------------------
MULLIKEN REDUCED ORBITAL CHARGES
--------------------------------
  0 C s       :     3.312441  s :     3.312441
      pz      :     1.103554  p :     3.170856
      px      :     0.991092
      py      :     1.076210
      dz2     :     0.006631  d :     0.031224
      dxz     :     0.005834
      dyz     :     0.004824
      dx2y2   :     0.009392
      dxy     :     0.004543
  1 C s       :     3.163901  s :     3.163901
      pz      :     0.734179  p :     2.522624
      px      :     0.919773
      py      :     0.868672
      dz2     :     0.005211  d :     0.084714
      dxz     :     0.005556
      dyz     :     0.011351
      dx2y2   :     0.027293
      dxy     :     0.035302
  2 H s       :     0.811157  s :     0.811157
  3 H s       :     0.845037  s :     0.845037
  4 H s       :     0.811261  s :     0.811261
  5 O s       :     3.858494  s :     3.858494
      pz      :     1.289681  p :     4.466717
      px      :     1.767884
      py      :     1.409152
      dz2     :     0.002556  d :     0.027919
      dxz     :     0.001559
      dyz     :     0.009461
      dx2y2   :     0.007117
      dxy     :     0.007227
  6 H s       :     0.893653  s :     0.893653

------------------------
MULLIKEN OVERLAP CHARGES
------------------------
B(  0-C ,  1-C ) :   0.6117 B(  0-C ,  2-H ) :   0.7211 B(  0-C ,  3-H ) :   0.6652 
B(  0-C ,  4-H ) :   0.7212 B(  0-C ,  5-O ) :  -0.1509 B(  0-C ,  6-H ) :  -0.2374 
B(  1-C ,  5-O ) :   1.2088 B(  1-C ,  6-H ) :   0.7016 B(  5-O ,  6-H ) :  -0.1144 



                     *******************************
                     * LOEWDIN POPULATION ANALYSIS *
                     *******************************

----------------------
LOEWDIN ATOMIC CHARGES
----------------------
   0 C :   -0.409449
   1 C :    0.059147
   2 H :    0.156775
   3 H :    0.134833
   4 H :    0.156767
   5 O :   -0.187318
   6 H :    0.089245

-------------------------------
LOEWDIN REDUCED ORBITAL CHARGES
-------------------------------
  0 C s       :     2.994247  s :     2.994247
      pz      :     1.142852  p :     3.352857
      px      :     1.083562
      py      :     1.126444
      dz2     :     0.013169  d :     0.062344
      dxz     :     0.011690
      dyz     :     0.008120
      dx2y2   :     0.020146
      dxy     :     0.009220
  1 C s       :     2.946947  s :     2.946947
      pz      :     0.739142  p :     2.799471
      px      :     1.037350
      py      :     1.022978
      dz2     :     0.011580  d :     0.194436
      dxz     :     0.011263
      dyz     :     0.021447
      dx2y2   :     0.068962
      dxy     :     0.081184
  2 H s       :     0.843225  s :     0.843225
  3 H s       :     0.865167  s :     0.865167
  4 H s       :     0.843233  s :     0.843233
  5 O s       :     3.565859  s :     3.565859
      pz      :     1.278619  p :     4.564399
      px      :     1.765698
      py      :     1.520082
      dz2     :     0.006631  d :     0.057061
      dxz     :     0.002140
      dyz     :     0.012974
      dx2y2   :     0.017870
      dxy     :     0.017445
  6 H s       :     0.910755  s :     0.910755

---------------------------------
LOEWDIN BOND ORDERS (THRESH 0.05)
---------------------------------
B(  0-C ,  1-C ) :   1.1136 B(  0-C ,  2-H ) :   0.9268 B(  0-C ,  3-H ) :   0.9412 
B(  0-C ,  4-H ) :   0.9268 B(  0-C ,  5-O ) :   0.1101 B(  1-C ,  5-O ) :   2.3575 
B(  1-C ,  6-H ) :   0.8901 B(  5-O ,  6-H ) :   0.0735 

------------------------------------------
LOEWDIN REDUCED ORBITAL POPULATIONS PER MO
-------------------------------------------
THRESHOLD FOR PRINTING IS 0.1%
                      0         1         2         3         4         5   
                 -19.14249 -10.27272 -10.18555  -1.04224  -0.74688  -0.57826
                   2.00000   2.00000   2.00000   2.00000   2.00000   2.00000
                  --------  --------  --------  --------  --------  --------
 0 C  s               0.0       0.0      99.6       0.9      42.1       4.9
 0 C  px              0.0       0.1       0.0       1.3       0.5      12.7
 0 C  py              0.0       0.0       0.0       0.2       0.0       0.2
 0 C  dz2             0.0       0.0       0.0       0.0       0.0       0.1
 0 C  dx2y2           0.0       0.0       0.0       0.0       0.0       0.2
 1 C  s               0.0      99.1       0.0      19.2       8.7      18.1
 1 C  pz              0.0       0.0       0.0       0.2       0.1       0.3
 1 C  px              0.0       0.0       0.1       1.6      10.0       3.9
 1 C  py              0.1       0.0       0.0      12.2       5.2      14.6
 1 C  dz2             0.0       0.0       0.0       0.5       0.0       0.0
 1 C  dx2y2           0.0       0.0       0.0       0.7       0.4       0.0
 1 C  dxy             0.0       0.0       0.0       0.6       0.0       0.2
 2 H  s               0.0       0.0       0.1       0.1       8.7       4.2
 3 H  s               0.0       0.0       0.1       0.1       9.1       1.6
 4 H  s               0.0       0.0       0.1       0.1       8.7       4.2
 5 O  s              99.8       0.1       0.0      54.5       3.3       6.0
 5 O  pz              0.0       0.0       0.0       0.1       0.0       0.2
 5 O  px              0.0       0.0       0.0       0.8       0.4       0.1
 5 O  py              0.0       0.3       0.0       5.0       0.6       8.5
 5 O  dx2y2           0.0       0.1       0.0       0.1       0.0       0.2
 5 O  dxy             0.0       0.1       0.0       0.1       0.0       0.0
 6 H  s               0.0       0.1       0.0       1.4       2.0      19.4

                      6         7         8         9        10        11   
                  -0.47204  -0.44048  -0.42975  -0.39525  -0.35804  -0.25111
                   2.00000   2.00000   2.00000   2.00000   2.00000   2.00000
                  --------  --------  --------  --------  --------  --------
 0 C  s               0.5       0.0       0.0       0.0       0.0       1.6
 0 C  pz              0.3      42.4       0.1       0.7      13.6       0.0
 0 C  px              7.6       0.0      21.1       1.4       0.0       9.3
 0 C  py             18.5       0.8       1.9      34.0       0.3       0.3
 0 C  dz2             0.0       0.0       0.2       0.3       0.0       0.0
 0 C  dxz             0.0       0.1       0.0       0.0       0.5       0.0
 0 C  dyz             0.0       0.3       0.0       0.0       0.1       0.0
 0 C  dx2y2           0.3       0.0       0.1       0.3       0.0       0.0
 0 C  dxy             0.1       0.0       0.0       0.3       0.0       0.0
 1 C  s               1.2       0.0       0.4       0.5       0.0       0.0
 1 C  pz              0.2      17.4       0.1       0.1      18.5       0.0
 1 C  px             16.9       0.0      15.2       1.4       0.0       2.7
 1 C  py              6.7       0.3       5.1       6.0       0.4       0.5
 1 C  dxz             0.0       0.1       0.0       0.0       0.4       0.0
 1 C  dyz             0.0       0.1       0.0       0.0       0.8       0.1
 1 C  dx2y2           0.0       0.0       0.0       0.2       0.0       2.1
 1 C  dxy             0.0       0.0       0.0       0.5       0.0       2.7
 2 H  s               0.0      13.2       3.7       5.4       6.5       0.3
 3 H  s              12.0       0.0       0.1      19.6       0.0       0.7
 4 H  s               0.0      13.2       3.7       5.4       6.5       0.3
 5 O  s               4.7       0.0       8.1       1.8       0.0       0.0
 5 O  pz              0.0      11.4       0.8       0.1      50.9       0.4
 5 O  px             20.4       0.0       0.1       6.6       0.0      59.8
 5 O  py              3.9       0.2      38.6       9.5       1.0       8.5
 5 O  dyz             0.0       0.2       0.0       0.0       0.4       0.0
 5 O  dx2y2           0.0       0.0       0.4       0.0       0.0       0.0
 5 O  dxy             0.5       0.0       0.0       0.1       0.0       0.0
 6 H  s               6.0       0.0       0.1       5.6       0.0      10.9

                     12        13        14        15        16        17   
                  -0.02379   0.11233   0.12052   0.17216   0.17609   0.25840
                   0.00000   0.00000   0.00000   0.00000   0.00000   0.00000
                  --------  --------  --------  --------  --------  --------
 0 C  s               0.0      18.4      13.8       0.0       1.6       4.3
 0 C  pz              0.4       0.0       0.2      33.1       0.4       0.0
 0 C  px              0.0       8.0       0.6       0.0       6.7      23.8
 0 C  py              0.0       4.1       8.0       0.6      16.4       2.7
 0 C  dz2             0.0       0.0       0.2       0.1       2.1       1.3
 0 C  dxz             1.6       0.0       0.0       0.4       0.0       0.0
 0 C  dyz             0.1       0.0       0.1       1.7       0.1       0.0
 0 C  dx2y2           0.0       1.2       0.9       0.0       0.0       5.1
 0 C  dxy             0.0       0.0       0.2       0.0       0.3       0.2
 1 C  s               0.0       4.6       8.1       0.0      11.0       2.2
 1 C  pz             52.7       0.1       0.1       4.0       0.1       0.2
 1 C  px              0.0       0.9       1.2       0.0       0.1      27.9
 1 C  py              1.1       3.6       5.4       0.1       3.5      11.7
 1 C  dz2             0.1       0.0       1.2       0.0       0.6       0.0
 1 C  dxz             0.2       0.0       0.0       0.7       0.0       0.0
 1 C  dyz             1.8       0.0       0.0       0.0       0.0       0.1
 1 C  dx2y2           0.0       0.0       0.5       0.0       0.0       4.0
[...]
Sum of individual times     ....       5.172 sec  ( 95.0%)

Fock matrix formation       ....       4.396 sec  ( 80.7%)
  XC integration            ....       1.029 sec  ( 23.4% of F)
    Basis function eval.    ....       0.381 sec  ( 37.0% of XC)
    Density eval.           ....       0.248 sec  ( 24.1% of XC)
    XC-Functional eval.     ....       0.149 sec  ( 14.5% of XC)
    XC-Potential eval.      ....       0.184 sec  ( 17.9% of XC)
Diagonalization             ....       0.003 sec  (  0.0%)
Density matrix formation    ....       0.000 sec  (  0.0%)
Population analysis         ....       0.008 sec  (  0.2%)
Initial guess               ....       0.145 sec  (  2.7%)
Orbital Transformation      ....       0.000 sec  (  0.0%)
Orbital Orthonormalization  ....       0.000 sec  (  0.0%)
DIIS solution               ....       0.002 sec  (  0.0%)
SOSCF solution              ....       0.002 sec  (  0.0%)
Grid generation             ....       0.616 sec  ( 11.3%)
------------------------------------------------------------------------------
                        ORCA TD-DFT/TDA CALCULATION
------------------------------------------------------------------------------

Input orbitals are from        ... /Users/lailaal-madhagi/Desktop/Testing_XAS_Analysis_code/Acetaldehyde//Results_dir_Acetaldehyde_geom_element_C_2019-11-03_18-34-06//GTE1_Acetaldehyde_geom_2019-11-03_18-34-39//TDDFT_C-edge.gbw
CI-vector output               ... /Users/lailaal-madhagi/Desktop/Testing_XAS_Analysis_code/Acetaldehyde//Results_dir_Acetaldehyde_geom_element_C_2019-11-03_18-34-06//GTE1_Acetaldehyde_geom_2019-11-03_18-34-39//TDDFT_C-edge.cis
Tamm-Dancoff approximation     ... operative
CIS-Integral strategy          ... AO-integrals
Integral handling              ... AO integral Direct
Max. core memory used          ... 512 MB
Reference state                ... RHF
Generation of triplets         ... off
Follow IRoot                   ... off
Number of operators            ... 1
Orbital ranges used for CIS calculation:
 Operator 0:  Orbitals   1...  2  to  12... 49
XAS localization array:
 Operator 0:  Orbitals  -1... -1
-------------------
XC-INTEGRATION GRID
-------------------

General Integration Accuracy     IntAcc      ...  3.670
Radial Grid Type                 RadialGrid  ... Gauss-Chebyshev
Angular Grid (max. acc.)         AngularGrid ... Lebedev-50
Angular grid pruning method      GridPruning ... 3 (G Style)
Weight generation scheme         WeightScheme... Becke
Basis function cutoff            BFCut       ...    1.0000e-11
Integration weight cutoff        WCut        ...    1.0000e-14
Grids for H and He will be reduced by one unit

# of grid points (after initial pruning)     ...   3886 (   0.0 sec)
# of grid points (after weights+screening)   ...   3761 (   0.0 sec)
nearest neighbour list constructed           ...    0.0 sec
Grid point re-assignment to atoms done       ...    0.0 sec
Grid point division into batches done        ...    0.0 sec
Reduced shell lists constructed in    0.0 sec

Total number of grid points                  ...     3761
Total number of batches                      ...       61
Average number of points per batch           ...       61
Average number of grid points per atom       ...      537
Average number of shells per batch           ...    23.42 (90.07%)
Average number of basis functions per batch  ...    46.32 (92.65%)
Average number of large shells per batch     ...    21.00 (89.67%)
Average number of large basis fcns per batch ...    41.58 (89.76%)
Maximum spatial batch extension              ...  17.97, 18.60, 22.67 au
Average spatial batch extension              ...   5.83,  5.39,  5.58 au


---------------
TD-DFT XC SETUP
---------------

DFT calculation                         ... on
Name of the grid file                   ... /Users/lailaal-madhagi/Desktop/Testing_XAS_Analysis_code/Acetaldehyde//Results_dir_Acetaldehyde_geom_element_C_2019-11-03_18-34-06//GTE1_Acetaldehyde_geom_2019-11-03_18-34-39//TDDFT_C-edge.grid_cis.tmp
Exchange functional (SCF)               ... B88
Exchange functional (TD-DFT)            ... B88
   X-Alpha parameter    XAlpha (SCF)    ...  0.666667
   X-Alpha parameter    XAlpha (TD-DFT) ...  0.666667
   Becke's b parameter  XBeta (SCF)     ...  0.004200
   Becke's b parameter  XBeta (TD-DFT)  ...  0.004200
Correlation functional (SCF)            ... LYP
Correlation functional (TD-DFT)         ... LYP
 LDA part of GGA corr.  LDAOpt (SCF)    ... VWN-5
 LDA part of GGA corr.  LDAOpt (TD-DFT) ... VWN-5
Hybrid DFT                              ... on
   Exchange mixing (SCF)                ...  0.200
   Exchange mixing (TD-DFT)             ...  0.200
   GGA exch. scaling(SCF)               ...  0.720
   GGA exch. scaling (TD-DFT)           ...  0.720
   GGA corr. scaling (SCF)              ...  0.810
   GGA corr. scaling (TD-DFT)           ...  0.810

Building densities             ... done
Calculating rho(r) on the grid ... done
Building xc-kernel on the grid ... done
                    *** TD-DFT CALCULATION INITIALIZED ***


------------------------
DAVIDSON-DIAGONALIZATION
------------------------

Dimension of the eigenvalue problem            ...     76
Number of roots to be determined               ...     20
Maximum size of the expansion space            ...     76
Maximum number of iterations                   ...    100
Convergence tolerance for the residual         ...    2.500e-07
Convergence tolerance for the energies         ...    2.500e-07
Orthogonality tolerance                        ...    1.000e-14
Level Shift                                    ...    0.000e+00
Constructing the preconditioner                ... o.k.
Building the initial guess                     ... o.k.
Number of trial vectors determined             ...     76


                       ****Iteration    0****

   Memory handling for direct AO based CIS:
   Memory per vector needed      ...     1 MB
   Memory needed                 ...     4 MB
   Memory available              ...   512 MB
   Number of vectors per batch   ...   512
   Number of batches             ...     1
   Time for densities:     0.002
   Using LibInt in JK Direct
   Time for J+K (Direct):     2.942
   Time for XC-Integration:     0.458
   Time for Sigma-Completion:     0.027
   Size of expansion space: 60
   Lowest Energy          :    10.102140676351
   Maximum Energy change  :    10.740745050002 (vector 19)
   Maximum residual norm  :     0.000316972181
   Rebuilding the expansion space

                       ****Iteration    1****
   Time for densities:     0.002
   Using LibInt in JK Direct
   Time for J+K (Direct):     1.966
   Time for XC-Integration:     0.320
   Time for Sigma-Completion:     0.019
   Size of expansion space: 40
   Lowest Energy          :    10.102123148689
   Maximum Energy change  :     0.000197634959 (vector 16)
   Maximum residual norm  :     0.000000110673

      *** CONVERGENCE OF RESIDUAL NORM REACHED ***

Storing the converged CI vectors               ... /Users/lailaal-madhagi/Desktop/Testing_XAS_Analysis_code/Acetaldehyde//Results_dir_Acetaldehyde_geom_element_C_2019-11-03_18-34-06//GTE1_Acetaldehyde_geom_2019-11-03_18-34-39//TDDFT_C-edge.cis1

                 *** DAVIDSON DONE ***

Total time for solving the CIS problem:     5.895sec

------------------------------------
TD-DFT/TDA EXCITED STATES (SINGLETS)
------------------------------------

the weight of the individual excitations are printed if larger than 1.0e-02

STATE  1:  E=  10.102123 au    274.893 eV  2217159.8 cm**-1
     2a ->  12a  :     0.999109 (c= -0.99955446)

STATE  2:  E=  10.142808 au    276.000 eV  2226089.0 cm**-1
     1a ->  12a  :     0.993946 (c= -0.99696864)

STATE  3:  E=  10.232246 au    278.434 eV  2245718.5 cm**-1
     2a ->  13a  :     0.839151 (c=  0.91605176)
     2a ->  14a  :     0.130202 (c=  0.36083468)
     2a ->  16a  :     0.016299 (c=  0.12766737)

STATE  4:  E=  10.245634 au    278.798 eV  2248656.8 cm**-1
     2a ->  13a  :     0.144889 (c=  0.38064333)
     2a ->  14a  :     0.766948 (c= -0.87575544)
     2a ->  16a  :     0.085050 (c= -0.29163332)

STATE  5:  E=  10.275308 au    279.605 eV  2255169.4 cm**-1
     2a ->  15a  :     0.996412 (c=  0.99820446)

STATE  6:  E=  10.293228 au    280.093 eV  2259102.4 cm**-1
     2a ->  14a  :     0.100225 (c=  0.31658385)
     2a ->  16a  :     0.882765 (c= -0.93955584)
     2a ->  17a  :     0.011517 (c= -0.10731688)

STATE  7:  E=  10.324858 au    280.954 eV  2266044.3 cm**-1
     1a ->  13a  :     0.534877 (c= -0.73135292)
     1a ->  14a  :     0.450465 (c= -0.67116653)

STATE  8:  E=  10.344015 au    281.475 eV  2270248.8 cm**-1
     1a ->  13a  :     0.457435 (c=  0.67633915)
     1a ->  14a  :     0.541366 (c= -0.73577575)

STATE  9:  E=  10.373706 au    282.283 eV  2276765.2 cm**-1
     2a ->  13a  :     0.014251 (c=  0.11937581)
     2a ->  16a  :     0.013634 (c= -0.11676279)
     2a ->  17a  :     0.741360 (c=  0.86102281)
     2a ->  18a  :     0.227259 (c= -0.47671713)

STATE 10:  E=  10.393070 au    282.810 eV  2281015.3 cm**-1
     1a ->  15a  :     0.995964 (c=  0.99797989)

STATE 11:  E=  10.396634 au    282.907 eV  2281797.4 cm**-1
     1a ->  16a  :     0.988452 (c=  0.99420902)

STATE 12:  E=  10.398981 au    282.971 eV  2282312.5 cm**-1
     2a ->  17a  :     0.236021 (c= -0.48581986)
     2a ->  18a  :     0.761410 (c= -0.87258803)

STATE 13:  E=  10.449235 au    284.338 eV  2293341.9 cm**-1
     1a ->  17a  :     0.984416 (c= -0.99217716)

STATE 14:  E=  10.467132 au    284.825 eV  2297269.9 cm**-1
     1a ->  18a  :     0.984370 (c=  0.99215441)

STATE 15:  E=  10.627065 au    289.177 eV  2332371.1 cm**-1
     2a ->  20a  :     0.979270 (c= -0.98958053)
     2a ->  21a  :     0.014092 (c=  0.11870901)

STATE 16:  E=  10.640383 au    289.540 eV  2335294.0 cm**-1
     2a ->  19a  :     0.952976 (c= -0.97620507)
     2a ->  22a  :     0.046484 (c=  0.21560071)

STATE 17:  E=  10.677003 au    290.536 eV  2343331.4 cm**-1
     2a ->  20a  :     0.014757 (c=  0.12147846)
     2a ->  21a  :     0.972566 (c=  0.98618783)

STATE 18:  E=  10.702979 au    291.243 eV  2349032.3 cm**-1
     1a ->  19a  :     0.968876 (c=  0.98431500)
     1a ->  22a  :     0.027683 (c=  0.16638185)

STATE 19:  E=  10.716907 au    291.622 eV  2352089.2 cm**-1
     2a ->  19a  :     0.046689 (c=  0.21607575)
     2a ->  22a  :     0.950428 (c=  0.97489872)

STATE 20:  E=  10.740719 au    292.270 eV  2357315.3 cm**-1
     1a ->  20a  :     0.991888 (c=  0.99593575)


-----------------------------
TD-DFT/TDA-EXCITATION SPECTRA
-----------------------------

Center of mass = ( -5.0195,  0.9332, -0.0967)
Calculating the Dipole integrals                  ... done
Transforming integrals                            ... done
Calculating the Linear Momentum integrals         ... done
Transforming integrals                            ... done
Calculating angular momentum integrals            ... done
Transforming integrals                            ... done

-----------------------------------------------------------------------------
         ABSORPTION SPECTRUM VIA TRANSITION ELECTRIC DIPOLE MOMENTS
-----------------------------------------------------------------------------
State   Energy    Wavelength  fosc         T2        TX        TY        TZ  
        (cm-1)      (nm)                 (au**2)    (au)      (au)      (au) 
-----------------------------------------------------------------------------
   1 2217159.8      4.5   0.000003176   0.00000   0.00001  -0.00010  -0.00068
   2 2226089.0      4.5   0.056568208   0.00837  -0.00230   0.01280   0.09054
   3 2245718.5      4.5   0.021008943   0.00308   0.03199   0.04501  -0.00554
   4 2248656.8      4.4   0.014883496   0.00218   0.03030  -0.03504   0.00574
   5 2255169.4      4.4   0.039617766   0.00578   0.00190  -0.01062  -0.07528
   6 2259102.4      4.4   0.016484254   0.00240   0.03125  -0.03728   0.00596
   7 2266044.3      4.4   0.019158358   0.00278  -0.02543   0.04567  -0.00712
   8 2270248.8      4.4   0.000448027   0.00006   0.00386   0.00702  -0.00088
   9 2276765.2      4.4   0.009299172   0.00134  -0.03326  -0.01539   0.00133
  10 2281015.3      4.4   0.002607300   0.00038   0.00047  -0.00256  -0.01922
  11 2281797.4      4.4   0.002632412   0.00038  -0.00199   0.01921  -0.00263
  12 2282312.5      4.4   0.004011593   0.00058  -0.00891  -0.02215   0.00293
  13 2293341.9      4.4   0.043603666   0.00626  -0.07902  -0.00355  -0.00151
  14 2297269.9      4.4   0.015685232   0.00225  -0.03692   0.02931  -0.00507
  15 2332371.1      4.3   0.092325069   0.01303  -0.11371   0.00890  -0.00464
  16 2335294.0      4.3   0.021805093   0.00307   0.00226  -0.00754  -0.05488
  17 2343331.4      4.3   0.054581011   0.00767  -0.02851  -0.08206   0.01104
  18 2349032.3      4.3   0.093379762   0.01309   0.00297  -0.01606  -0.11323
  19 2352089.2      4.3   0.037260680   0.00522   0.00183  -0.01046  -0.07143
  20 2357315.3      4.2   0.002308422   0.00032   0.00175   0.01773  -0.00226

-----------------------------------------------------------------------------
         ABSORPTION SPECTRUM VIA TRANSITION VELOCITY DIPOLE MOMENTS
-----------------------------------------------------------------------------
State   Energy    Wavelength   fosc        P2         PX        PY        PZ  
        (cm-1)      (nm)                 (au**2)     (au)      (au)      (au) 
-----------------------------------------------------------------------------
   1 2217159.8      4.5   0.000008924   0.00014  -0.00023   0.00165   0.01151
   2 2226089.0      4.5   0.054169955   0.82415   0.02282  -0.12706  -0.89860
   3 2245718.5      4.5   0.020806947   0.31935  -0.32030  -0.46207   0.05702
   4 2248656.8      4.4   0.015014425   0.23075  -0.31268   0.35986  -0.05900
   5 2255169.4      4.4   0.039516248   0.60906  -0.01954   0.10897   0.77253
   6 2259102.4      4.4   0.015791773   0.24382  -0.30648   0.38237  -0.06071
   7 2266044.3      4.4   0.018705666   0.28970   0.26500  -0.46287   0.07231
   8 2270248.8      4.4   0.000330658   0.00513  -0.01813  -0.06870   0.00909
   9 2276765.2      4.4   0.008430256   0.13118   0.32836   0.15228  -0.01315
  10 2281015.3      4.4   0.002322236   0.03620  -0.00461   0.02505   0.18856
  11 2281797.4      4.4   0.002426957   0.03785   0.02332  -0.19134   0.02633
  12 2282312.5      4.4   0.003750890   0.05851   0.08585   0.22418  -0.02973
  13 2293341.9      4.4   0.041661771   0.65300   0.80693   0.04059   0.01484
  14 2297269.9      4.4   0.015689705   0.24634   0.38261  -0.31157   0.05363
  15 2332371.1      4.3   0.092871322   1.48042   1.21216  -0.09310   0.04920
  16 2335294.0      4.3   0.021769818   0.34746  -0.02410   0.08014   0.58349
  17 2343331.4      4.3   0.054385538   0.87101   0.30471   0.87427  -0.11758
  18 2349032.3      4.3   0.086982598   1.39646  -0.03074   0.16593   1.16961
  19 2352089.2      4.3   0.036694228   0.58987  -0.01951   0.11128   0.75968
  20 2357315.3      4.2   0.002303240   0.03711  -0.04426  -0.18605   0.02307

-------------------------------------------------------------------
                             CD SPECTRUM
-------------------------------------------------------------------
State  Energy     Wavelength     R         MX        MY        MZ   
       (cm-1)       (nm)     (1e40*cgs)   (au)      (au)      (au)  
-------------------------------------------------------------------
   1 2217159.8      4.5     -0.00000   0.00727  -0.01524   0.00233
   2 2226089.0      4.5      0.00006  -0.23347  -0.30875   0.03773
   3 2245718.5      4.5     -0.00002   0.00779  -0.04360  -0.30953
   4 2248656.8      4.4      0.00007  -0.01438   0.07952   0.56126
   5 2255169.4      4.4     -0.00047   0.44581  -0.81585   0.12637
   6 2259102.4      4.4      0.00046  -0.01417   0.08111   0.58230
   7 2266044.3      4.4      0.00010  -0.00220   0.01236   0.08719
   8 2270248.8      4.4     -0.00005  -0.00074   0.00383   0.02748
   9 2276765.2      4.4      0.00001   0.00068  -0.00370  -0.02602
  10 2281015.3      4.4     -0.00001   0.04904   0.06486  -0.00742
  11 2281797.4      4.4      0.00011  -0.00189   0.00816   0.06088
  12 2282312.5      4.4     -0.00005  -0.00489   0.02670   0.18719
  13 2293341.9      4.4     -0.00002   0.00563  -0.03119  -0.22050
  14 2297269.9      4.4      0.00005  -0.00027   0.00113   0.00845
  15 2332371.1      4.3      0.00063   0.02322  -0.11803  -0.79557
  16 2335294.0      4.3     -0.00066   0.33883  -0.62547   0.09991
  17 2343331.4      4.3      0.00092  -0.02016   0.10835   0.75346
  18 2349032.3      4.3      0.00685   0.30045   0.41650  -0.05133
  19 2352089.2      4.3     -0.00632   0.43074  -0.76779   0.12368
  20 2357315.3      4.2      0.00097  -0.00243   0.00979   0.07405

Total run time:        6.059 sec

           *** ORCA-CIS/TD-DFT FINISHED WITHOUT ERROR ***

-----------------------
CIS/TD-DFT TOTAL ENERGY
-----------------------

    E(SCF)  =   -153.736864772 Eh
    DE(CIS) =     10.102123149 Eh (Root  1)
    ----------------------------- ---------
    E(tot)  =   -143.634741623 Eh


-------------------------   --------------------
FINAL SINGLE POINT ENERGY      -143.634741623425
-------------------------   --------------------


                            ***************************************
                            *     ORCA property calculations      *
                            ***************************************

                                    ---------------------
                                    Active property flags
                                    ---------------------
   (+) Dipole Moment


------------------------------------------------------------------------------
                       ORCA ELECTRIC PROPERTIES CALCULATION
------------------------------------------------------------------------------

Dipole Moment Calculation                       ... on
Quadrupole Moment Calculation                   ... off
Polarizability Calculation                      ... off
GBWName                                         ... /Users/lailaal-madhagi/Desktop/Testing_XAS_Analysis_code/Acetaldehyde//Results_dir_Acetaldehyde_geom_element_C_2019-11-03_18-34-06//GTE1_Acetaldehyde_geom_2019-11-03_18-34-39//TDDFT_C-edge.gbw
Electron density file                           ... /Users/lailaal-madhagi/Desktop/Testing_XAS_Analysis_code/Acetaldehyde//Results_dir_Acetaldehyde_geom_element_C_2019-11-03_18-34-06//GTE1_Acetaldehyde_geom_2019-11-03_18-34-39//TDDFT_C-edge.scfp.tmp
The origin for moment calculation is the CENTER OF MASS  = (-5.019521,  0.933223 -0.096652)

-------------
DIPOLE MOMENT
-------------
                                X             Y             Z
Electronic contribution:      2.65431       2.10864      -0.23066
Nuclear contribution   :     -3.21331      -2.92017       0.33104
                        -----------------------------------------
Total Dipole Moment    :     -0.55899      -0.81154       0.10038
                        -----------------------------------------
Magnitude (a.u.)       :      0.99053
Magnitude (Debye)      :      2.51772



--------------------
Rotational spectrum 
--------------------
 
Rotational constants in cm-1:     1.857192     0.337507     0.301638 
Rotational constants in MHz : 55677.230337 10118.218559  9042.869690 

 Dipole components along the rotational axes: 
x,y,z [a.u.] :    -0.930046     0.340815    -0.000149 
x,y,z [Debye]:    -2.363989     0.866282    -0.000379 

 

Timings for individual modules:

Sum of individual times         ...       12.534 sec (=   0.209 min)
GTO integral calculation        ...        0.337 sec (=   0.006 min)   2.7 %
SCF iterations                  ...        5.477 sec (=   0.091 min)  43.7 %
CIS module                      ...        6.721 sec (=   0.112 min)  53.6 %
                             ****ORCA TERMINATED NORMALLY****
TOTAL RUN TIME: 0 days 0 hours 0 minutes 12 seconds 683 msec
