
                                 *****************
                                 * O   R   C   A *
                                 *****************

           --- An Ab Initio, DFT and Semiempirical electronic structure package ---

                  #######################################################
                  #                        -***-                        #
                  #          Department of theory and spectroscopy      #
                  #               Directorship: Frank Neese             #
                  #        Max Planck Institute fuer Kohlenforschung    #
                  #                Kaiser Wilhelm Platz 1               #
                  #                 D-45470 Muelheim/Ruhr               #
                  #                      Germany                        #
                  #                                                     #
                  #                  All rights reserved                #
                  #                        -***-                        #
                  #######################################################


                         Program Version 4.1.0  - RELEASE  -


 With contributions from (in alphabetic order):
   Daniel Aravena         : Magnetic Properties
   Michael Atanasov       : Ab Initio Ligand Field Theory
   Alexander A. Auer      : GIAO ZORA
   Ute Becker             : Parallelization
   Giovanni Bistoni       : ED, Open-shell LED
   Martin Brehm           : Molecular dynamics
   Dmytro Bykov           : SCF Hessian
   Vijay G. Chilkuri      : MRCI spin determinant printing
   Dipayan Datta          : RHF DLPNO-CCSD density
   Achintya Kumar Dutta   : EOM-CC, STEOM-CC
   Dmitry Ganyushin       : Spin-Orbit,Spin-Spin,Magnetic field MRCI
   Miquel Garcia          : C-PCM Hessian
   Yang Guo               : DLPNO-NEVPT2, CIM, IAO-localization
   Andreas Hansen         : Spin unrestricted coupled pair/coupled cluster methods
   Benjamin Helmich-Paris : CASSCF linear response (MC-RPA)
   Lee Huntington         : MR-EOM, pCC
   Robert Izsak           : Overlap fitted RIJCOSX, COSX-SCS-MP3, EOM
   Christian Kollmar      : KDIIS, OOCD, Brueckner-CCSD(T), CCSD density
   Simone Kossmann        : Meta GGA functionals, TD-DFT gradient, OOMP2, MP2 Hessian
   Martin Krupicka        : AUTO-CI
   Lucas Lang             : DCDCAS
   Dagmar Lenk            : GEPOL surface, SMD
   Dimitrios Liakos       : Extrapolation schemes; parallel MDCI
   Dimitrios Manganas     : ROCIS; embedding schemes
   Dimitrios Pantazis     : SARC Basis sets
   Taras Petrenko         : DFT Hessian,TD-DFT gradient, ASA, ECA, R-Raman, ABS, FL, XAS/XES, NRVS
   Peter Pinski           : DLPNO-MP2, DLPNO-MP2 Gradient
   Christoph Reimann      : Effective Core Potentials
   Marius Retegan         : Local ZFS, SOC
   Christoph Riplinger    : Optimizer, TS searches, QM/MM, DLPNO-CCSD(T), (RO)-DLPNO pert. Triples
   Tobias Risthaus        : Range-separated hybrids, TD-DFT gradient, RPA, STAB
   Michael Roemelt        : Restricted open shell CIS
   Masaaki Saitow         : Open-shell DLPNO
   Barbara Sandhoefer     : DKH picture change effects
   Avijit Sen             : IP-ROCIS
   Kantharuban Sivalingam : CASSCF convergence, NEVPT2, FIC-MRCI
   Bernardo de Souza      : ESD, SOC TD-DFT
   Georgi Stoychev        : AutoAux, RI-MP2 NMR
   Willem Van den Heuvel  : Paramagnetic NMR
   Boris Wezisla          : Elementary symmetry handling
   Frank Wennmohs         : Technical directorship


 We gratefully acknowledge several colleagues who have allowed us to
 interface, adapt or use parts of their codes:
   Stefan Grimme, W. Hujo, H. Kruse,             : VdW corrections, initial TS optimization,
                  C. Bannwarth                     DFT functionals, gCP, sTDA/sTD-DF
   Ed Valeev                                     : LibInt (2-el integral package), F12 methods
   Garnet Chan, S. Sharma, J. Yang, R. Olivares  : DMRG
   Ulf Ekstrom                                   : XCFun DFT Library
   Mihaly Kallay                                 : mrcc  (arbitrary order and MRCC methods)
   Andreas Klamt, Michael Diedenhofen            : otool_cosmo (COSMO solvation model)
   Jiri Pittner, Ondrej Demel                    : Mk-CCSD
   Frank Weinhold                                : gennbo (NPA and NBO analysis)
   Christopher J. Cramer and Donald G. Truhlar   : smd solvation model
   Lars Goerigk                                  : TD-DFT with DH, B97 family of functionals
   V. Asgeirsson, H. Jonsson                     : NEB implementation
   FAccTs GmbH                                   : IRC, NEB, NEB-TS, Multilevel


 Your calculation uses the libint2 library for the computation of 2-el integrals
 For citations please refer to: http://libint.valeyev.net

 This ORCA versions uses:
   CBLAS   interface :  Fast vector & matrix operations
   LAPACKE interface :  Fast linear algebra routines
   SCALAPACK package :  Parallel linear algebra routines




***************************************
The coordinates will be read from file: /Users/lailaal-madhagi/Desktop/Testing_XAS_Analysis_code/Glycine//Results_dir_Glycine_geom_element_C_2019-11-10_20-35-53//GTE1_Glycine_geom_2019-11-10_20-36-07//opt.xyz
***************************************


----- Orbital basis set information -----
Your calculation utilizes the basis: 6-31G*
   H-He, Li-Ne : W. J. Hehre, R. Ditchfield and J.A. Pople, J. Chem. Phys. 56, 2257 (1972).
                 Note: He and Ne are unpublished basis sets taken from the Gaussian program.
                 Note: Li and B from J. D. Dill and J. A. Pople, J. Chem. Phys. 62, 2921 (1975).
   Na - Ar     : M. M. Francl, W. J. Pietro, W. J. Hehre, J. S. Binkley, M. S. Gordon, 
                 D. J. DeFrees and J. A. Pople, J. Chem. Phys. 77, 3654 (1982).
   K - Zn      : V. A. Rassolov, J. A. Pople, M. A. Ratner, and T. L. Windus, J. Chem. Phys. 109, 1223 (1998).

================================================================================
                                        WARNINGS
                       Please study these warnings very carefully!
================================================================================


INFO   : the flag for use of LIBINT has been found!

================================================================================
                                       INPUT FILE
================================================================================
NAME = /Users/lailaal-madhagi/Desktop/Testing_XAS_Analysis_code/Glycine//Results_dir_Glycine_geom_element_C_2019-11-10_20-35-53//GTE1_Glycine_geom_2019-11-10_20-36-07//freq.inp
|  1> ! B3LYP 6-31G* TIGHTSCF Grid3 FinalGrid5 Freq 
|  2> !NormalPrint 
|  3> %output 
|  4> Print[P_Basis] 2 
|  5> Print[P_MOS] 1 
|  6> end 
|  7> *xyzfile 0 1 /Users/lailaal-madhagi/Desktop/Testing_XAS_Analysis_code/Glycine//Results_dir_Glycine_geom_element_C_2019-11-10_20-35-53//GTE1_Glycine_geom_2019-11-10_20-36-07//opt.xyz                           ****END OF INPUT****
================================================================================

                       ****************************
                       * Single Point Calculation *
                       ****************************

---------------------------------
CARTESIAN COORDINATES (ANGSTROEM)
---------------------------------
  C     -3.721425    0.100006    0.174243
  N     -4.909065    0.837953   -0.221587
  C     -2.470616    0.952620   -0.036266
  H     -3.704151   -0.208545    1.236762
  H     -3.624551   -0.826753   -0.414262
  O     -2.494171    2.149804   -0.179145
  O     -1.290402    0.284346   -0.008845
  H     -4.700482    1.833384   -0.156452
  H     -5.686528    0.637106    0.400271
  H     -1.447470   -0.671642    0.074570

----------------------------
CARTESIAN COORDINATES (A.U.)
----------------------------
  NO LB      ZA    FRAG     MASS         X           Y           Z
   0 C     6.0000    0    12.011   -7.032473    0.188984    0.329272
   1 N     7.0000    0    14.007   -9.276788    1.583502   -0.418739
   2 C     6.0000    0    12.011   -4.668787    1.800192   -0.068532
   3 H     1.0000    0     1.008   -6.999831   -0.394094    2.337141
   4 H     1.0000    0     1.008   -6.849410   -1.562336   -0.782841
   5 O     8.0000    0    15.999   -4.713300    4.062541   -0.338534
   6 O     8.0000    0    15.999   -2.438506    0.537337   -0.016714
   7 H     1.0000    0     1.008   -8.882624    3.464594   -0.295651
   8 H     1.0000    0     1.008  -10.745981    1.203955    0.756403
   9 H     1.0000    0     1.008   -2.735322   -1.269219    0.140917

--------------------------------
INTERNAL COORDINATES (ANGSTROEM)
--------------------------------
 C      0   0   0     0.000000000000     0.00000000     0.00000000
 N      1   0   0     1.453181454802     0.00000000     0.00000000
 C      1   2   0     1.528328728639   110.36817878     0.00000000
 H      1   2   3     1.106547614690   114.57651897   119.49871555
 H      1   2   3     1.102090758900   110.69610618   239.38334562
 O      3   1   2     1.205909525768   123.65356706    17.25002434
 O      3   1   2     1.356556756487   115.74846272   195.03259514
 H      2   1   3     1.019133355555   108.13926516   335.70014279
 H      2   1   3     1.015626255243   111.00290902   217.27630483
 H      7   3   1     0.972389595200   110.21350660     4.54603871

---------------------------
INTERNAL COORDINATES (A.U.)
---------------------------
 C      0   0   0     0.000000000000     0.00000000     0.00000000
 N      1   0   0     2.746114972470     0.00000000     0.00000000
 C      1   2   0     2.888122739732   110.36817878     0.00000000
 H      1   2   3     2.091071945908   114.57651897   119.49871555
 H      1   2   3     2.082649709046   110.69610618   239.38334562
 O      3   1   2     2.278838745989   123.65356706    17.25002434
 O      3   1   2     2.563520754880   115.74846272   195.03259514
 H      2   1   3     1.925882935943   108.13926516   335.70014279
 H      2   1   3     1.919255476829   111.00290902   217.27630483
 H      7   3   1     1.837550030402   110.21350660     4.54603871

---------------------
BASIS SET INFORMATION
---------------------
There are 4 groups of distinct atoms

 Group   1 Type C   : 10s4p1d contracted to 3s2p1d pattern {631/31/1}
 Group   2 Type N   : 10s4p1d contracted to 3s2p1d pattern {631/31/1}
 Group   3 Type H   : 4s contracted to 2s pattern {31}
 Group   4 Type O   : 10s4p1d contracted to 3s2p1d pattern {631/31/1}

Atom   0C    basis set group =>   1
Atom   1N    basis set group =>   2
Atom   2C    basis set group =>   1
Atom   3H    basis set group =>   3
Atom   4H    basis set group =>   3
Atom   5O    basis set group =>   4
Atom   6O    basis set group =>   4
Atom   7H    basis set group =>   3
Atom   8H    basis set group =>   3
Atom   9H    basis set group =>   3

-------------------------
BASIS SET IN INPUT FORMAT
-------------------------

 # Basis set for element : H 
 NewGTO H 
 S 3 
   1      18.7311370000      0.0334945995
   2       2.8253937000      0.2347269467
   3       0.6401217000      0.8137573184
 S 1 
   1       0.1612778000      1.0000000000
  end;

 # Basis set for element : C 
 NewGTO C 
 S 6 
   1    3047.5249000000      0.0018347002
   2     457.3695100000      0.0140373012
   3     103.9486900000      0.0688426061
   4      29.2101550000      0.2321844206
   5       9.2866630000      0.4679413416
   6       3.1639270000      0.3623120322
 S 3 
   1       7.8682724000     -0.1193324086
   2       1.8812885000     -0.1608542116
   3       0.5442493000      1.1434564826
 P 3 
   1       7.8682724000      0.0689990956
   2       1.8812885000      0.3164239798
   3       0.5442493000      0.7443082524
 S 1 
   1       0.1687144000      1.0000000000
 P 1 
   1       0.1687144000      1.0000000000
 D 1 
   1       0.8000000000      1.0000000000
  end;

 # Basis set for element : N 
 NewGTO N 
 S 6 
   1    4173.5110000000      0.0018347994
   2     627.4579000000      0.0139949958
   3     142.9021000000      0.0685869792
   4      40.2343300000      0.2322409295
   5      12.8202100000      0.4690698576
   6       4.3904370000      0.3604548906
 S 3 
   1      11.6263580000     -0.1149610229
   2       2.7162800000     -0.1691180337
   3       0.7722180000      1.1458522281
 P 3 
   1      11.6263580000      0.0675800232
   2       2.7162800000      0.3239071114
   3       0.7722180000      0.7408952549
 S 1 
   1       0.2120313000      1.0000000000
 P 1 
   1       0.2120313000      1.0000000000
 D 1 
   1       0.8000000000      1.0000000000
  end;

 # Basis set for element : O 
 NewGTO O 
 S 6 
   1    5484.6717000000      0.0018310998
   2     825.2349500000      0.0139500985
   3     188.0469600000      0.0684450927
   4      52.9645000000      0.2327142753
   5      16.8975700000      0.4701929501
   6       5.7996353000      0.3585208619
 S 3 
   1      15.5396160000     -0.1107775038
   2       3.5999336000     -0.1480263051
   3       1.0137618000      1.1307670390
 P 3 
   1      15.5396160000      0.0708742995
   2       3.5999336000      0.3397527978
   3       1.0137618000      0.7271585953
 S 1 
   1       0.2700058000      1.0000000000
 P 1 
   1       0.2700058000      1.0000000000
 D 1 
   1       0.8000000000      1.0000000000
  end;

------------------------------------------------------------------------------
                           ORCA GTO INTEGRAL CALCULATION
------------------------------------------------------------------------------

                         BASIS SET STATISTICS AND STARTUP INFO

 # of primitive gaussian shells          ...   95
 # of primitive gaussian functions       ...  155
 # of contracted shells                  ...   40
 # of contracted basis functions         ...   80
 Highest angular momentum                ...    2
 Maximum contraction depth               ...    6
 Integral package used                   ... LIBINT
 Integral threshhold            Thresh   ...  2.500e-11
 Primitive cut-off              TCut     ...  2.500e-12


------------------------------ INTEGRAL EVALUATION ----------------------------


 * One electron integrals 
 Pre-screening matrix                    ... done
 Shell pair data                         ... done (   0.000 sec)

-------------------------------------------------------------------------------
                                 ORCA SCF
-------------------------------------------------------------------------------

------------
SCF SETTINGS
------------
Hamiltonian:
 Density Functional     Method          .... DFT(GTOs)
 Exchange Functional    Exchange        .... B88
   X-Alpha parameter    XAlpha          ....  0.666667
   Becke's b parameter  XBeta           ....  0.004200
 Correlation Functional Correlation     .... LYP
 LDA part of GGA corr.  LDAOpt          .... VWN-5
 Gradients option       PostSCFGGA      .... off
 Hybrid DFT is turned on
   Fraction HF Exchange ScalHFX         ....  0.200000
   Scaling of DF-GGA-X  ScalDFX         ....  0.720000
   Scaling of DF-GGA-C  ScalDFC         ....  0.810000
   Scaling of DF-LDA-C  ScalLDAC        ....  1.000000
   Perturbative correction              ....  0.000000
   Density functional embedding theory  .... OFF
   NL short-range parameter             ....  4.800000


General Settings:
 Integral files         IntName         .... /Users/lailaal-madhagi/Desktop/Testing_XAS_Analysis_code/Glycine//Results_dir_Glycine_geom_element_C_2019-11-10_20-35-53//GTE1_Glycine_geom_2019-11-10_20-36-07//freq
 Hartree-Fock type      HFTyp           .... RHF
 Total Charge           Charge          ....    0
 Multiplicity           Mult            ....    1
 Number of Electrons    NEL             ....   40
 Basis Dimension        Dim             ....   80
 Nuclear Repulsion      ENuc            ....    179.3753893588 Eh

Convergence Acceleration:
 DIIS                   CNVDIIS         .... on
   Start iteration      DIISMaxIt       ....    12
   Startup error        DIISStart       ....  0.200000
   # of expansion vecs  DIISMaxEq       ....     5
   Bias factor          DIISBfac        ....   1.050
   Max. coefficient     DIISMaxC        ....  10.000
 Newton-Raphson         CNVNR           .... off
 SOSCF                  CNVSOSCF        .... on
   Start iteration      SOSCFMaxIt      ....   150
   Startup grad/error   SOSCFStart      ....  0.003300
 Level Shifting         CNVShift        .... on
   Level shift para.    LevelShift      ....    0.2500
   Turn off err/grad.   ShiftErr        ....    0.0010
 Zerner damping         CNVZerner       .... off
 Static damping         CNVDamp         .... on
   Fraction old density DampFac         ....    0.7000
   Max. Damping (<1)    DampMax         ....    0.9800
   Min. Damping (>=0)   DampMin         ....    0.0000
   Turn off err/grad.   DampErr         ....    0.1000
 Fernandez-Rico         CNVRico         .... off

SCF Procedure:
 Maximum # iterations   MaxIter         ....   125
 SCF integral mode      SCFMode         .... Direct
   Integral package                     .... LIBINT
 Reset frequency        DirectResetFreq ....    20
 Integral Threshold     Thresh          ....  2.500e-11 Eh
 Primitive CutOff       TCut            ....  2.500e-12 Eh

Convergence Tolerance:
 Convergence Check Mode ConvCheckMode   .... Total+1el-Energy
 Convergence forced     ConvForced      .... 0
 Energy Change          TolE            ....  1.000e-08 Eh
 1-El. energy change                    ....  1.000e-05 Eh
 Orbital Gradient       TolG            ....  1.000e-05
 Orbital Rotation angle TolX            ....  1.000e-05
 DIIS Error             TolErr          ....  5.000e-07


Diagonalization of the overlap matrix:
Smallest eigenvalue                        ... 4.696e-03
Time for diagonalization                   ...    0.001 sec
Threshold for overlap eigenvalues          ... 1.000e-08
Number of eigenvalues below threshold      ... 0
Time for construction of square roots      ...    0.001 sec
Total time needed                          ...    0.002 sec

-------------------
DFT GRID GENERATION
-------------------

General Integration Accuracy     IntAcc      ...  4.340
Radial Grid Type                 RadialGrid  ... Gauss-Chebyshev
Angular Grid (max. acc.)         AngularGrid ... Lebedev-194
Angular grid pruning method      GridPruning ... 3 (G Style)
Weight generation scheme         WeightScheme... Becke
Basis function cutoff            BFCut       ...    1.0000e-11
Integration weight cutoff        WCut        ...    1.0000e-14
Grids for H and He will be reduced by one unit

# of grid points (after initial pruning)     ...  24248 (   0.0 sec)
# of grid points (after weights+screening)   ...  22991 (   0.0 sec)
nearest neighbour list constructed           ...    0.0 sec
Grid point re-assignment to atoms done       ...    0.0 sec
Grid point division into batches done        ...    0.0 sec
Reduced shell lists constructed in    0.1 sec

Total number of grid points                  ...    22991
Total number of batches                      ...      363
Average number of points per batch           ...       63
Average number of grid points per atom       ...     2299
Average number of shells per batch           ...    30.49 (76.23%)
Average number of basis functions per batch  ...    62.99 (78.74%)
Average number of large shells per batch     ...    25.54 (83.76%)
Average number of large basis fcns per batch ...    52.67 (83.62%)
Maximum spatial batch extension              ...  16.76, 19.99, 20.91 au
Average spatial batch extension              ...   3.18,  3.17,  3.45 au

Time for grid setup =    0.131 sec

------------------------------
INITIAL GUESS: MODEL POTENTIAL
------------------------------
Loading Hartree-Fock densities                     ... done
Calculating cut-offs                               ... done
Setting up the integral package                    ... done
Initializing the effective Hamiltonian             ... done
Starting the Coulomb interaction                   ... done (   0.0 sec)
Reading the grid                                   ... done
Mapping shells                                     ... done
Starting the XC term evaluation                    ... done (   0.1 sec)
  promolecular density results
     # of electrons  =     39.997277339
     EX              =    -34.731508335
     EC              =     -1.377449667
     EX+EC           =    -36.108958002
Transforming the Hamiltonian                       ... done (   0.0 sec)
Diagonalizing the Hamiltonian                      ... done (   0.0 sec)
Back transforming the eigenvectors                 ... done (   0.0 sec)
Now organizing SCF variables                       ... done
                      ------------------
                      INITIAL GUESS DONE (   0.3 sec)
                      ------------------
--------------
SCF ITERATIONS
--------------
               ***  Starting incremental Fock matrix formation  ***

                         ----------------------------
                         !        ITERATION     0   !
                         ----------------------------
   Total Energy        :    -284.012798046544 Eh
   Energy Change       :    -284.012798046544 Eh
   MAX-DP              :       0.106817112397
   RMS-DP              :       0.004808842427
   Actual Damping      :       0.7000
   Actual Level Shift  :       0.2500 Eh
   Int. Num. El.       :    40.00003351 (UP=   20.00001676 DN=   20.00001676)
   Exchange            :   -28.58956523
   Correlation         :    -1.64631267


                         ----------------------------
                         !        ITERATION     1   !
                         ----------------------------
   Total Energy        :    -284.133326939761 Eh
   Energy Change       :      -0.120528893217 Eh
   MAX-DP              :       0.061248525961
   RMS-DP              :       0.002970631048
   Actual Damping      :       0.7000
   Actual Level Shift  :       0.2500 Eh
   Int. Num. El.       :    40.00000807 (UP=   20.00000404 DN=   20.00000404)
   Exchange            :   -28.27657188
   Correlation         :    -1.63637823

                               ***Turning on DIIS***

                         ----------------------------
                         !        ITERATION     2   !
                         ----------------------------
   Total Energy        :    -284.172815610657 Eh
   Energy Change       :      -0.039488670896 Eh
   MAX-DP              :       0.071663511720
   RMS-DP              :       0.003972342241
   Actual Damping      :       0.0000
   Actual Level Shift  :       0.2500 Eh
   Int. Num. El.       :    39.99998323 (UP=   19.99999161 DN=   19.99999161)
   Exchange            :   -28.09951643
   Correlation         :    -1.63025986
   DIIS-Error          :       0.040907437933


                         ----------------------------
                         !        ITERATION     3   !
                         ----------------------------
   Total Energy        :    -284.242775526882 Eh
   Energy Change       :      -0.069959916225 Eh
   MAX-DP              :       0.038671604801
   RMS-DP              :       0.002015872490
   Actual Damping      :       0.0000
   Actual Level Shift  :       0.2500 Eh
   Int. Num. El.       :    39.99993762 (UP=   19.99996881 DN=   19.99996881)
   Exchange            :   -27.89764574
   Correlation         :    -1.62233942
   DIIS-Error          :       0.068284978628
   DIIS coefficients:
      0.64989   0.35011


                         ----------------------------
                         !        ITERATION     4   !
                         ----------------------------
   Total Energy        :    -284.255840128623 Eh
   Energy Change       :      -0.013064601740 Eh
   MAX-DP              :       0.011675570368
   RMS-DP              :       0.000645164371
   Actual Damping      :       0.0000
   Actual Level Shift  :       0.2500 Eh
   Int. Num. El.       :    39.99995280 (UP=   19.99997640 DN=   19.99997640)
   Exchange            :   -28.00582305
   Correlation         :    -1.62616712
   DIIS-Error          :       0.016624533412
   DIIS coefficients:
      0.31807   0.08975   0.59218


                         ----------------------------
                         !        ITERATION     5   !
                         ----------------------------
   Total Energy        :    -284.256898679475 Eh
   Energy Change       :      -0.001058550852 Eh
   MAX-DP              :       0.003749733787
   RMS-DP              :       0.000182966541
   Actual Damping      :       0.0000
   Actual Level Shift  :       0.2500 Eh
   Int. Num. El.       :    39.99996189 (UP=   19.99998094 DN=   19.99998094)
   Exchange            :   -28.02184028
   Correlation         :    -1.62706549
   DIIS-Error          :       0.003367353709
   DIIS coefficients:
      0.05988   0.00857   0.09073   0.84083

                      *** Initiating the SOSCF procedure ***
                           *** Shutting down DIIS ***
                      *** Re-Reading the Fockian *** 
                      *** Removing any level shift *** 

                         ----------------------------
                         !        ITERATION     6   !
                         ----------------------------
   Total Energy        :    -284.256929334459 Eh
   Energy Change       :      -0.000030654984 Eh
   MAX-DP              :       0.000958576982
   RMS-DP              :       0.000060072228
   Orbital gradient    :       0.000287736755
   Orbital Rotation    :       0.000287736755
   Actual Damping      :       0.0000
   Int. Num. El.       :    39.99996158 (UP=   19.99998079 DN=   19.99998079)
   Exchange            :   -28.02614683
   Correlation         :    -1.62722574

               *** Restarting incremental Fock matrix formation ***

                         ----------------------------
                         !        ITERATION     7   !
                         ----------------------------
   Total Energy        :    -284.256934967856 Eh
   Energy Change       :      -0.000005633397 Eh
   MAX-DP              :       0.000757152443
   RMS-DP              :       0.000036448279
   Orbital gradient    :       0.000109873406
   Orbital Rotation    :       0.000334906097
   Actual Damping      :       0.0000
   Int. Num. El.       :    39.99996190 (UP=   19.99998095 DN=   19.99998095)
   Exchange            :   -28.02615205
   Correlation         :    -1.62722460


                         ----------------------------
                         !        ITERATION     8   !
                         ----------------------------
   Total Energy        :    -284.256935065438 Eh
   Energy Change       :      -0.000000097582 Eh
   MAX-DP              :       0.000261413875
   RMS-DP              :       0.000016110273
   Orbital gradient    :       0.000140122460
   Orbital Rotation    :       0.000159966062
   Actual Damping      :       0.0000
   Int. Num. El.       :    39.99996197 (UP=   19.99998098 DN=   19.99998098)
   Exchange            :   -28.02557265
   Correlation         :    -1.62721564


                         ----------------------------
                         !        ITERATION     9   !
                         ----------------------------
   Total Energy        :    -284.256935590260 Eh
   Energy Change       :      -0.000000524822 Eh
   MAX-DP              :       0.000161170775
   RMS-DP              :       0.000007515773
   Orbital gradient    :       0.000031071236
   Orbital Rotation    :       0.000075976810
   Actual Damping      :       0.0000
   Int. Num. El.       :    39.99996183 (UP=   19.99998092 DN=   19.99998092)
   Exchange            :   -28.02601903
   Correlation         :    -1.62722427


                         ----------------------------
                         !        ITERATION    10   !
                         ----------------------------
   Total Energy        :    -284.256935583851 Eh
   Energy Change       :       0.000000006408 Eh
   MAX-DP              :       0.000082928712
   RMS-DP              :       0.000003219375
   Orbital gradient    :       0.000062223795
   Orbital Rotation    :       0.000073874066
   Actual Damping      :       0.0000
   Int. Num. El.       :    39.99996186 (UP=   19.99998093 DN=   19.99998093)
   Exchange            :   -28.02593516
   Correlation         :    -1.62722147


                         ----------------------------
                         !        ITERATION    11   !
                         ----------------------------
   Total Energy        :    -284.256935610722 Eh
   Energy Change       :      -0.000000026871 Eh
   MAX-DP              :       0.000047644369
   RMS-DP              :       0.000002352288
   Orbital gradient    :       0.000013395547
   Orbital Rotation    :       0.000023919903
   Actual Damping      :       0.0000
   Int. Num. El.       :    39.99996186 (UP=   19.99998093 DN=   19.99998093)
   Exchange            :   -28.02594520
   Correlation         :    -1.62722186


                         ----------------------------
                         !        ITERATION    12   !
                         ----------------------------
   Total Energy        :    -284.256935611043 Eh
   Energy Change       :      -0.000000000321 Eh
   MAX-DP              :       0.000016104210
   RMS-DP              :       0.000000835459
   Orbital gradient    :       0.000007383930
   Orbital Rotation    :       0.000005253059
   Actual Damping      :       0.0000
   Int. Num. El.       :    39.99996185 (UP=   19.99998092 DN=   19.99998092)
   Exchange            :   -28.02597856
   Correlation         :    -1.62722328

                  ***Gradient check signals convergence***
              ***Rediagonalizing the Fockian in SOSCF/NRSCF***

               *****************************************************
               *                     SUCCESS                       *
               *           SCF CONVERGED AFTER  13 CYCLES          *
               *****************************************************

Setting up the final grid:

General Integration Accuracy     IntAcc      ...  5.010
Radial Grid Type                 RadialGrid  ... Gauss-Chebyshev
Angular Grid (max. acc.)         AngularGrid ... Lebedev-434
Angular grid pruning method      GridPruning ... 3 (G Style)
Weight generation scheme         WeightScheme... Becke
Basis function cutoff            BFCut       ...    1.0000e-11
Integration weight cutoff        WCut        ...    1.0000e-14
Grids for H and He will be reduced by one unit

# of grid points (after initial pruning)     ...  87130 (   0.0 sec)
# of grid points (after weights+screening)   ...  81967 (   0.1 sec)
nearest neighbour list constructed           ...    0.0 sec
Grid point re-assignment to atoms done       ...    0.0 sec
Grid point division into batches done        ...    0.4 sec
Reduced shell lists constructed in    0.7 sec

Total number of grid points                  ...    81967
Total number of batches                      ...     1287
Average number of points per batch           ...       63
Average number of grid points per atom       ...     8197
Average number of shells per batch           ...    28.44 (71.10%)
Average number of basis functions per batch  ...    58.58 (73.23%)
Average number of large shells per batch     ...    23.33 (82.02%)
Average number of large basis fcns per batch ...    47.93 (81.82%)
Maximum spatial batch extension              ...  22.27, 16.49, 16.18 au
Average spatial batch extension              ...   2.16,  2.17,  2.24 au

Final grid set up in    0.8 sec
Final integration                            ... done (   0.4 sec)
Change in XC energy                          ...    -0.000038575
Integrated number of electrons               ...    40.000002183
Previous integrated no of electrons          ...    39.999961854

----------------
TOTAL SCF ENERGY
----------------

Total Energy       :         -284.25697419 Eh           -7735.02551 eV

Components:
Nuclear Repulsion  :          179.37538936 Eh            4881.05249 eV
Electronic Energy  :         -463.63236355 Eh          -12616.07800 eV
One Electron Energy:         -742.93803658 Eh          -20216.37176 eV
Two Electron Energy:          279.30567303 Eh            7600.29375 eV

Virial components:
Potential Energy   :         -566.87431525 Eh          -15425.43433 eV
Kinetic Energy     :          282.61734107 Eh            7690.40882 eV
Virial Ratio       :            2.00580160


DFT components:
N(Alpha)           :       20.000001091662 electrons
N(Beta)            :       20.000001091662 electrons
N(Total)           :       40.000002183324 electrons
E(X)               :      -28.026021240526 Eh       
E(C)               :       -1.627199862407 Eh       
E(XC)              :      -29.653221102934 Eh       
DFET-embed. en.    :        0.000000000000 Eh       

---------------
SCF CONVERGENCE
---------------

  Last Energy change         ...   -1.8830e-09  Tolerance :   1.0000e-08
  Last MAX-Density change    ...    9.1193e-06  Tolerance :   1.0000e-07
  Last RMS-Density change    ...    4.2299e-07  Tolerance :   5.0000e-09
  Last Orbital Gradient      ...    1.4122e-06  Tolerance :   1.0000e-05
  Last Orbital Rotation      ...    3.9674e-06  Tolerance :   1.0000e-05

             **** THE GBW FILE WAS UPDATED (/Users/lailaal-madhagi/Desktop/Testing_XAS_Analysis_code/Glycine//Results_dir_Glycine_geom_element_C_2019-11-10_20-35-53//GTE1_Glycine_geom_2019-11-10_20-36-07//freq.gbw) ****
             **** DENSITY FILE WAS UPDATED (/Users/lailaal-madhagi/Desktop/Testing_XAS_Analysis_code/Glycine//Results_dir_Glycine_geom_element_C_2019-11-10_20-35-53//GTE1_Glycine_geom_2019-11-10_20-36-07//freq.scfp.tmp) ****
             **** ENERGY FILE WAS UPDATED (/Users/lailaal-madhagi/Desktop/Testing_XAS_Analysis_code/Glycine//Results_dir_Glycine_geom_element_C_2019-11-10_20-35-53//GTE1_Glycine_geom_2019-11-10_20-36-07//freq.en.tmp) ****
----------------
ORBITAL ENERGIES
----------------

  NO   OCC          E(Eh)            E(eV) 
   0   2.0000     -19.195756      -522.3431 
   1   2.0000     -19.137995      -520.7713 
   2   2.0000     -14.308634      -389.3577 
   3   2.0000     -10.320758      -280.8421 
   4   2.0000     -10.229825      -278.3677 
   5   2.0000      -1.105380       -30.0789 
   6   2.0000      -1.024806       -27.8864 
   7   2.0000      -0.888389       -24.1743 
   8   2.0000      -0.712522       -19.3887 
   9   2.0000      -0.618440       -16.8286 
  10   2.0000      -0.537024       -14.6132 
  11   2.0000      -0.489879       -13.3303 
  12   2.0000      -0.468104       -12.7377 
  13   2.0000      -0.453098       -12.3294 
  14   2.0000      -0.416619       -11.3368 
  15   2.0000      -0.405994       -11.0477 
  16   2.0000      -0.377143       -10.2626 
  17   2.0000      -0.320758        -8.7283 
  18   2.0000      -0.280236        -7.6256 
  19   2.0000      -0.240398        -6.5416 
  20   0.0000       0.006736         0.1833 
  21   0.0000       0.047956         1.3049 
  22   0.0000       0.088078         2.3967 
  23   0.0000       0.137306         3.7363 
  24   0.0000       0.151660         4.1269 
  25   0.0000       0.169089         4.6011 
  26   0.0000       0.227495         6.1904 
  27   0.0000       0.240913         6.5556 
  28   0.0000       0.317066         8.6278 
  29   0.0000       0.365369         9.9422 
  30   0.0000       0.526415        14.3245 
  31   0.0000       0.530097        14.4247 
  32   0.0000       0.566601        15.4180 
  33   0.0000       0.604023        16.4363 
  34   0.0000       0.668535        18.1918 
  35   0.0000       0.680095        18.5063 
  36   0.0000       0.717288        19.5184 
  37   0.0000       0.744668        20.2634 
  38   0.0000       0.777365        21.1532 
  39   0.0000       0.805455        21.9175 
  40   0.0000       0.852071        23.1860 
  41   0.0000       0.863590        23.4995 
  42   0.0000       0.891090        24.2478 
  43   0.0000       0.910496        24.7759 
  44   0.0000       0.918429        24.9917 
  45   0.0000       0.954546        25.9745 
  46   0.0000       0.977677        26.6039 
  47   0.0000       1.026507        27.9327 
  48   0.0000       1.057654        28.7802 
  49   0.0000       1.096415        29.8350 
  50   0.0000       1.174569        31.9616 
  51   0.0000       1.293909        35.2090 
  52   0.0000       1.337141        36.3855 
  53   0.0000       1.409801        38.3626 
  54   0.0000       1.486196        40.4414 
  55   0.0000       1.557387        42.3786 
  56   0.0000       1.637916        44.5700 
  57   0.0000       1.694633        46.1133 
  58   0.0000       1.736094        47.2415 
  59   0.0000       1.779921        48.4341 
  60   0.0000       1.798237        48.9325 
  61   0.0000       1.827844        49.7382 
  62   0.0000       1.875763        51.0421 
  63   0.0000       1.905555        51.8528 
  64   0.0000       1.967634        53.5420 
  65   0.0000       1.998692        54.3872 
  66   0.0000       2.074225        56.4425 
  67   0.0000       2.078553        56.5603 
  68   0.0000       2.156923        58.6929 
  69   0.0000       2.323972        63.2385 
  70   0.0000       2.353280        64.0360 
  71   0.0000       2.385257        64.9061 
  72   0.0000       2.483600        67.5822 
  73   0.0000       2.536675        69.0264 
  74   0.0000       2.600962        70.7758 
  75   0.0000       2.640246        71.8448 
  76   0.0000       2.742783        74.6349 
  77   0.0000       2.853287        77.6419 
  78   0.0000       2.989583        81.3507 
  79   0.0000       3.079275        83.7913 
------------------
MOLECULAR ORBITALS
------------------
                      0         1         2         3         4         5   
                 -19.19576 -19.13800 -14.30863 -10.32076 -10.22983  -1.10538
                   2.00000   2.00000   2.00000   2.00000   2.00000   2.00000
                  --------  --------  --------  --------  --------  --------
  0C   1s        -0.000005 -0.000022  0.000047  0.000674  0.995357  0.019676
  0C   2s        -0.000482 -0.000429  0.001286 -0.001218  0.037833 -0.038244
  0C   1pz       -0.000056  0.000050 -0.000019  0.000157 -0.000111  0.003685
  0C   1px       -0.000121 -0.000093 -0.000009 -0.000521  0.000011 -0.021091
  0C   1py       -0.000037 -0.000138  0.000074 -0.000472  0.000334 -0.013355
  0C   3s         0.000705  0.002944 -0.009852  0.008038 -0.034952 -0.003607
  0C   2pz        0.000609 -0.000188  0.000557 -0.000564  0.000485 -0.002375
  0C   2px       -0.001709  0.003784  0.002823  0.004640 -0.002739 -0.006858
  0C   2py        0.001302 -0.001559 -0.003161  0.002342 -0.001829  0.005991
  0C   1dz2      -0.000010  0.000025 -0.000177  0.000529 -0.000043  0.002488
  0C   1dxz       0.000030 -0.000075  0.000339  0.000149  0.000107  0.000943
  0C   1dyz      -0.000076  0.000148 -0.000146  0.000192  0.000008  0.000599
  0C   1dx2y2    -0.000420  0.000404  0.000255 -0.000344  0.000157 -0.002119
  0C   1dxy       0.000029 -0.000191 -0.000482 -0.000700 -0.000248 -0.003436
  1N   1s        -0.000019 -0.000001 -0.995264 -0.000028  0.000029  0.006720
  1N   2s        -0.000259 -0.000057 -0.032083 -0.000511 -0.000510 -0.013461
  1N   1pz        0.000039 -0.000069 -0.001705  0.000011 -0.000129 -0.002585
  1N   1px       -0.000206 -0.000017 -0.000687 -0.000258 -0.000482 -0.007148
  1N   1py       -0.000043  0.000090 -0.000191  0.000059  0.000355 -0.000240
  1N   3s        -0.000437  0.001129  0.023166  0.000800  0.004535 -0.016620
  1N   2pz       -0.000568  0.000641  0.003503 -0.000010  0.000414 -0.003043
  1N   2px        0.001005  0.000089  0.003019  0.000969  0.001605 -0.001213
  1N   2py        0.000580 -0.001050 -0.000303 -0.000376 -0.000824  0.002566
  1N   1dz2      -0.000203  0.000080 -0.000162 -0.000189  0.000557  0.000485
  1N   1dxz       0.000055  0.000011  0.000083  0.000029 -0.000568 -0.000286
  1N   1dyz       0.000051 -0.000055 -0.000105 -0.000093  0.000368  0.000320
  1N   1dx2y2     0.000067 -0.000035  0.000097  0.000023 -0.000442 -0.000506
  1N   1dxy       0.000059 -0.000075 -0.000082  0.000116  0.000976  0.000367
  2C   1s         0.000016  0.000303 -0.000011  0.995121 -0.000715  0.116231
  2C   2s        -0.000060  0.000710  0.000382  0.036479 -0.001513 -0.223061
  2C   1pz       -0.000016  0.000029 -0.000012 -0.000156 -0.000036  0.006740
  2C   1px        0.000443 -0.000033 -0.000211  0.001362  0.000338 -0.081499
  2C   1py       -0.000337 -0.000125  0.000016  0.001096  0.000247 -0.029921
  2C   3s         0.007873  0.007742  0.003133 -0.010590  0.009326 -0.046659
  2C   2pz        0.000367 -0.001603  0.000194 -0.001501  0.000534 -0.003029
  2C   2px        0.008085  0.000268 -0.000079  0.008363 -0.005934  0.032932
  2C   2py       -0.006278  0.012810 -0.000256  0.006881 -0.002650  0.012782
  2C   1dz2      -0.000204  0.000331 -0.000116 -0.001809  0.000382  0.016269
  2C   1dxz      -0.000040 -0.000044 -0.000085 -0.000017  0.000187 -0.000622
  2C   1dyz      -0.000055  0.000182  0.000023 -0.000451  0.000115  0.003450
  2C   1dx2y2    -0.000050  0.000944  0.000075 -0.000814 -0.000373  0.005517
  2C   1dxy       0.000294  0.000158  0.000078 -0.000800 -0.000875  0.014299
  3H   1s         0.000015 -0.000015  0.000576 -0.000509 -0.000311 -0.006606
  3H   2s        -0.000803 -0.000275  0.000597  0.000765  0.005821 -0.000176
  4H   1s         0.000127 -0.000257  0.000471 -0.000518 -0.000330 -0.007059
  4H   2s         0.000006 -0.000597 -0.000063  0.000732  0.005889 -0.001799
  5O   1s        -0.000618  0.995162  0.000006 -0.000040 -0.000009  0.096960
  5O   2s        -0.000636  0.030409  0.000114  0.000870 -0.000324 -0.210396
  5O   1pz       -0.000028  0.000283 -0.000020 -0.000152 -0.000049 -0.011085
  5O   1px        0.000105  0.000011  0.000008  0.000149  0.000011 -0.008841
  5O   1py        0.000154 -0.002335 -0.000081  0.001041  0.000123  0.093335
  5O   3s         0.002572 -0.024160 -0.000616 -0.007968  0.000114 -0.189006
  5O   2pz        0.000170 -0.000810 -0.000036 -0.000410  0.000078 -0.003780
  5O   2px       -0.001981 -0.000196 -0.000351 -0.001971  0.000988 -0.010491
  5O   2py       -0.000559  0.006959  0.000644  0.005054 -0.000066  0.032836
  5O   1dz2      -0.000114  0.000088  0.000036  0.001006 -0.000213  0.002814
  5O   1dxz      -0.000074 -0.000008 -0.000032 -0.000028 -0.000020 -0.000510
  5O   1dyz      -0.000040  0.000038  0.000033  0.000360 -0.000045  0.001391
  5O   1dx2y2     0.000052  0.000202  0.000160  0.001514  0.000053  0.007254
  5O   1dxy       0.000478  0.000057  0.000021  0.000362 -0.000257  0.003214
  6O   1s         0.995156  0.000576  0.000017  0.000136 -0.000014  0.167511
  6O   2s         0.030152 -0.000586  0.000275  0.001119 -0.000496 -0.365848
  6O   1pz        0.000090 -0.000007  0.000035 -0.000019 -0.000017 -0.004201
  6O   1px       -0.001740  0.000262 -0.000072  0.000499  0.000181  0.101442
  6O   1py       -0.000455  0.000017  0.000040 -0.000061 -0.000101  0.017112
  6O   3s        -0.022266  0.002196 -0.001033 -0.004643  0.001099 -0.372100
  6O   2pz       -0.000067  0.000253 -0.000106  0.000375  0.000012 -0.001987
  6O   2px        0.006020 -0.001700  0.000732  0.002750 -0.000291  0.052331
  6O   2py       -0.001046 -0.001662 -0.000371 -0.003776  0.000799  0.006277
  6O   1dz2       0.000461 -0.000210  0.000056  0.001194 -0.000179  0.011961
  6O   1dxz      -0.000010 -0.000071  0.000012 -0.000096 -0.000048  0.000266
  6O   1dyz       0.000042 -0.000006  0.000007  0.000087 -0.000070  0.001963
  6O   1dx2y2    -0.000122  0.000302 -0.000062 -0.000840 -0.000113  0.003153
  6O   1dxy       0.000389  0.000405  0.000049  0.001845  0.000049  0.002340
  7H   1s        -0.000205 -0.000077 -0.000080 -0.000154 -0.000333 -0.005789
  7H   2s         0.000229  0.000659 -0.003984  0.000440  0.000568  0.000386
  8H   1s         0.000230 -0.000173 -0.000058  0.000026 -0.000344 -0.001675
  8H   2s         0.000340  0.000027 -0.003588  0.000477  0.000523  0.001323
  9H   1s         0.000707 -0.000532  0.000138 -0.000206 -0.000057 -0.095074
  9H   2s         0.002038  0.000294 -0.000581 -0.000183  0.000449  0.008387
                      6         7         8         9        10        11   
                  -1.02481  -0.88839  -0.71252  -0.61844  -0.53702  -0.48988
                   2.00000   2.00000   2.00000   2.00000   2.00000   2.00000
                  --------  --------  --------  --------  --------  --------
  0C   1s        -0.009423 -0.109810  0.141941 -0.041375 -0.046119  0.016983
  0C   2s         0.018678  0.211957 -0.279725  0.079778  0.095005 -0.040759
  0C   1pz       -0.003254 -0.020426 -0.013675  0.007633  0.069421  0.302265
  0C   1px       -0.002367 -0.073595 -0.132251 -0.020701 -0.177243  0.134324
  0C   1py        0.018333  0.055049  0.033390 -0.036245 -0.226568 -0.001403
  0C   3s         0.002977  0.133009 -0.266024  0.101191  0.105549 -0.045965
  0C   2pz        0.000929  0.003837 -0.017336  0.011639  0.033951  0.121684
  0C   2px       -0.020493  0.001203 -0.047110  0.019090 -0.068783  0.056835
  0C   2py        0.009890 -0.004879  0.019166 -0.011939 -0.093431 -0.003970
  0C   1dz2      -0.001295 -0.005403 -0.005274  0.003420  0.010043  0.008323
  0C   1dxz       0.000284  0.004321  0.002888  0.000218  0.001912 -0.000987
  0C   1dyz      -0.001239 -0.003000 -0.002336  0.000719  0.005504 -0.002143
  0C   1dx2y2    -0.002055  0.003608  0.003475 -0.005486 -0.000399  0.004802
  0C   1dxy       0.001765 -0.011539 -0.009804 -0.001414 -0.008305  0.009370
  1N   1s        -0.011577 -0.176504 -0.089750  0.020650  0.006743  0.010769
  1N   2s         0.023844  0.364822  0.193139 -0.046712 -0.011823 -0.029892
  1N   1pz        0.004859  0.085415  0.044514 -0.010539  0.070990  0.127247
  1N   1px        0.008214  0.047620 -0.091016  0.047042 -0.080210 -0.237138
  1N   1py        0.002224  0.001938  0.073570 -0.036792 -0.237819  0.077052
  1N   3s         0.010852  0.374666  0.218983 -0.052247 -0.031674 -0.013603
  1N   2pz       -0.001608  0.043635  0.024708 -0.006254  0.029318  0.072466
  1N   2px        0.003747  0.020085 -0.038162  0.029244 -0.038436 -0.101986
  1N   2py        0.005943  0.007239  0.034401 -0.022437 -0.113817  0.027956
  1N   1dz2      -0.001286 -0.007704 -0.000354 -0.000586  0.009249  0.010985
  1N   1dxz       0.000189 -0.003870 -0.011497  0.004666 -0.004095 -0.009179
  1N   1dyz       0.000115 -0.003632  0.002363 -0.001734 -0.012213  0.001187
  1N   1dx2y2     0.000840  0.000546 -0.005840  0.001962  0.003984 -0.000425
  1N   1dxy       0.000981  0.000325  0.007625 -0.002561 -0.009726  0.004349
  2C   1s        -0.058360 -0.008966  0.075766  0.083058  0.065933 -0.017496
  2C   2s         0.113124  0.017263 -0.158399 -0.182287 -0.145089  0.037503
  2C   1pz       -0.023099  0.009767 -0.031196 -0.002165 -0.005561  0.209820
  2C   1px       -0.073431 -0.058020  0.113757 -0.217584  0.203739 -0.027729
  2C   1py        0.222656 -0.059505  0.138452  0.089030  0.078323 -0.023249
  2C   3s         0.047874  0.019754 -0.099499 -0.142652 -0.102677  0.030188
  2C   2pz        0.004205 -0.000038 -0.007411 -0.007694 -0.004253  0.097124
  2C   2px        0.003474 -0.005620  0.022801 -0.018148  0.065947 -0.007452
  2C   2py       -0.028439 -0.005539  0.044703  0.039814  0.028735 -0.016536
  2C   1dz2      -0.005810 -0.000921  0.002524  0.005398 -0.001097  0.001817
  2C   1dxz      -0.000705 -0.001002  0.002384  0.000196 -0.000837 -0.001160
  2C   1dyz      -0.004865  0.000245  0.000972 -0.001355 -0.000245 -0.002058
  2C   1dx2y2    -0.025943  0.006728 -0.005093 -0.020952  0.001221 -0.006051
  2C   1dxy       0.011541  0.004908 -0.010076  0.006077  0.004163 -0.001171
  3H   1s         0.002589  0.048631 -0.106356  0.040062  0.108489  0.148406
  3H   2s        -0.002931  0.002245 -0.021050  0.014163  0.062740  0.118264
  4H   1s         0.001490  0.046575 -0.108877  0.046064  0.111117 -0.099518
  4H   2s        -0.002096  0.002123 -0.027884  0.026009  0.057956 -0.071613
  5O   1s        -0.168130  0.030737 -0.037373 -0.054563 -0.037459 -0.003298
  5O   2s         0.367890 -0.070400  0.087309  0.125901  0.090992  0.006153
  5O   1pz        0.017055 -0.001860 -0.005867 -0.004248 -0.005174  0.135333
  5O   1px       -0.007442 -0.015848  0.024259 -0.076706  0.127542 -0.013339
  5O   1py       -0.135271  0.017661  0.015614  0.062758  0.071681  0.022879
  5O   3s         0.336416 -0.063182  0.079223  0.147637  0.106246  0.024193
  5O   2pz        0.005403 -0.000314 -0.003930 -0.001156 -0.002320  0.071848
  5O   2px       -0.007624 -0.009542  0.006974 -0.040022  0.069192 -0.006493
  5O   2py       -0.039866  0.004593  0.017571  0.034879  0.045082  0.006881
  5O   1dz2      -0.003286 -0.000326  0.000773  0.002785  0.003507  0.002980
  5O   1dxz      -0.000182 -0.000287  0.000457 -0.000812  0.001186 -0.000550
  5O   1dyz      -0.001825  0.000051  0.001050  0.000825  0.000719 -0.011150
  5O   1dx2y2    -0.008139  0.001702  0.002876  0.004511  0.003379  0.000901
  5O   1dxy       0.002288  0.002309 -0.003394  0.006319 -0.009905  0.000771
  6O   1s         0.121015  0.009982 -0.042723 -0.015830 -0.023987  0.019715
  6O   2s        -0.267663 -0.022092  0.099290  0.031836  0.061269 -0.046902
  6O   1pz       -0.006896  0.001078 -0.002588  0.029965 -0.008367  0.163865
  6O   1px        0.050529 -0.003551  0.077054  0.202563  0.060078 -0.064435
  6O   1py        0.058604 -0.005956 -0.044982 -0.414532  0.132672 -0.062276
  6O   3s        -0.281180 -0.027762  0.127831  0.058684  0.062517 -0.071968
  6O   2pz       -0.004447  0.000324 -0.000675  0.016041 -0.003332  0.102741
  6O   2px        0.029855  0.000118  0.036882  0.089316  0.047937 -0.040756
  6O   2py        0.032613 -0.002227 -0.025610 -0.205681  0.067777 -0.033952
  6O   1dz2       0.006648  0.000241  0.000560 -0.004472  0.004467 -0.002084
  6O   1dxz       0.000807 -0.000137  0.000801 -0.001028  0.000448 -0.011976
  6O   1dyz       0.001501  0.000158 -0.000854 -0.003372  0.000617 -0.002470
  6O   1dx2y2     0.004848  0.001371 -0.011262 -0.025294 -0.002942  0.002226
  6O   1dxy      -0.005599  0.000962 -0.000113  0.016949 -0.007381  0.004544
  7H   1s         0.010475  0.109456  0.087837 -0.025435 -0.141852  0.008806
  7H   2s         0.002205 -0.004494  0.016313  0.004655 -0.063155  0.011705
  8H   1s         0.005944  0.112034  0.101949 -0.034401  0.080632  0.133842
  8H   2s         0.000126  0.004384  0.021678 -0.009283  0.045351  0.083924
  9H   1s        -0.086813 -0.001969  0.040064  0.217554 -0.054960  0.035431
  9H   2s        -0.000707 -0.000137  0.007908  0.099890 -0.022835  0.018222
                     12        13        14        15        16        17   
                  -0.46810  -0.45310  -0.41662  -0.40599  -0.37714  -0.32076
                   2.00000   2.00000   2.00000   2.00000   2.00000   2.00000
                  --------  --------  --------  --------  --------  --------
  0C   1s         0.026645 -0.014610  0.010450  0.005702 -0.008230  0.000911
  0C   2s        -0.058579  0.023816 -0.014860 -0.014782  0.015868  0.001200
  0C   1pz       -0.124271  0.039801 -0.164345 -0.183567 -0.116839  0.030449
  0C   1px        0.151896  0.024540 -0.116500  0.076576  0.198975 -0.004614
  0C   1py       -0.163568 -0.055955  0.171926 -0.239600  0.058144  0.004847
  0C   3s        -0.079900  0.072091 -0.055446 -0.012081  0.079113 -0.022674
  0C   2pz       -0.052636  0.015994 -0.065378 -0.094915 -0.069748  0.005395
  0C   2px        0.081214  0.067313 -0.039623  0.042472  0.067418  0.010491
  0C   2py       -0.087734 -0.025484  0.057971 -0.117073  0.053796 -0.041135
  0C   1dz2      -0.003774  0.005045 -0.013297 -0.003015 -0.007465  0.003556
  0C   1dxz      -0.009841  0.002145  0.007870  0.001981 -0.005299 -0.001683
  0C   1dyz       0.009730 -0.000586  0.001977  0.013891  0.006245 -0.005096
  0C   1dx2y2     0.002517 -0.007275  0.015162 -0.014617  0.003736  0.001295
  0C   1dxy       0.004770 -0.006121 -0.001812  0.000034  0.012703  0.000421
  1N   1s        -0.011206  0.000079 -0.016308 -0.014372  0.010569  0.000696
  1N   2s         0.020198 -0.001413  0.041140  0.028017 -0.021394 -0.006959
  1N   1pz        0.005975 -0.084397  0.006749 -0.138082  0.034405  0.002627
  1N   1px       -0.264797  0.134095  0.094189 -0.069661 -0.192843 -0.005691
  1N   1py        0.006038  0.222883 -0.277635  0.140705 -0.074423 -0.004239
  1N   3s         0.055680  0.014311  0.051052  0.067631 -0.081509  0.022728
  1N   2pz        0.007920 -0.035635  0.000868 -0.075855  0.010991 -0.007204
  1N   2px       -0.122826  0.072601  0.045674 -0.042770 -0.109799  0.022928
  1N   2py       -0.009593  0.095748 -0.162860  0.080391 -0.043228 -0.002120
  1N   1dz2       0.001410 -0.008641  0.002146 -0.011351  0.003254 -0.000078
  1N   1dxz      -0.020069  0.010185  0.002052 -0.007656 -0.013885 -0.000079
  1N   1dyz       0.000154  0.008916 -0.010264  0.007278 -0.001129 -0.001644
  1N   1dx2y2    -0.000310 -0.011294  0.012525 -0.010551  0.010016  0.001189
  1N   1dxy       0.000022  0.002764 -0.005565  0.000124  0.001413  0.000165
  2C   1s        -0.015763  0.064192 -0.007816 -0.003681 -0.002103 -0.000225
  2C   2s         0.031021 -0.150276  0.014900  0.010118  0.000705  0.000347
  2C   1pz       -0.130793  0.071985  0.178378  0.153832  0.036935 -0.141411
  2C   1px        0.018531  0.101076  0.018538  0.039931 -0.242157 -0.007334
  2C   1py       -0.170209 -0.208084 -0.115981  0.150096 -0.131708 -0.015193
  2C   3s         0.013595 -0.117791  0.025250 -0.020455  0.092498  0.012580
  2C   2pz       -0.064585  0.016072  0.091574  0.093057  0.009368 -0.070262
  2C   2px       -0.018386  0.049672 -0.021726  0.009857 -0.015663 -0.017344
  2C   2py       -0.071783  0.042523 -0.027185  0.033374  0.000862 -0.005376
  2C   1dz2      -0.000387 -0.000569 -0.003269 -0.002529  0.000691  0.006049
  2C   1dxz      -0.000910  0.001656  0.011842  0.014249  0.001930  0.017118
  2C   1dyz      -0.001137  0.001217  0.006407  0.005687  0.003513 -0.036349
  2C   1dx2y2    -0.011257  0.011351  0.002889 -0.011578  0.015709  0.004672
  2C   1dxy      -0.003827 -0.003381 -0.007669  0.008465  0.006034 -0.000501
  3H   1s        -0.072495  0.047712 -0.146641 -0.077679 -0.086019  0.027136
  3H   2s        -0.055549  0.035574 -0.118297 -0.061269 -0.084436  0.051177
  4H   1s         0.102040  0.029618 -0.057264  0.198509  0.023176 -0.023359
  4H   2s         0.086281  0.018125 -0.050101  0.162180  0.005337 -0.068744
  5O   1s        -0.032998 -0.074471 -0.025989  0.024666 -0.015568 -0.000406
  5O   2s         0.071239  0.170765  0.057202 -0.054573  0.035725  0.001894
  5O   1pz       -0.122206 -0.011590  0.144842  0.195525  0.005399 -0.447263
  5O   1px        0.007912  0.018601  0.000157  0.052634 -0.193132 -0.024492
  5O   1py        0.108383  0.401595  0.163756 -0.154594  0.179478 -0.057858
  5O   3s         0.155701  0.262207  0.116806 -0.104357  0.044105 -0.003743
  5O   2pz       -0.063036 -0.005304  0.086384  0.113107  0.003761 -0.310697
  5O   2px        0.008192  0.001330  0.004405  0.032607 -0.125058 -0.015499
  5O   2py        0.041547  0.219243  0.082822 -0.083088  0.112033 -0.038683
  5O   1dz2       0.002062  0.010003  0.006254 -0.001300  0.003454 -0.005743
  5O   1dxz       0.000346  0.000517  0.000732  0.001494 -0.001995  0.001784
  5O   1dyz       0.009812  0.001415 -0.010146 -0.013579 -0.000091  0.024566
  5O   1dx2y2     0.002073  0.017971  0.004950 -0.004270  0.007083 -0.003028
  5O   1dxy      -0.001476 -0.002183 -0.001030 -0.003366  0.015385  0.001393
  6O   1s         0.049282 -0.009240  0.023258  0.001935 -0.050843 -0.000404
  6O   2s        -0.117109  0.022639 -0.054950 -0.006393  0.120220  0.000224
  6O   1pz       -0.111511  0.048579  0.244584  0.271885  0.011701  0.457801
  6O   1px       -0.251657 -0.065436 -0.204923  0.078788  0.337663  0.010810
  6O   1py       -0.146127  0.116183 -0.060894  0.016349  0.209264  0.038870
  6O   3s        -0.178018  0.040630 -0.076094 -0.009820  0.186205  0.007549
  6O   2pz       -0.073255  0.034452  0.164812  0.184130  0.010516  0.352999
  6O   2px       -0.162913 -0.040916 -0.135321  0.046286  0.239061  0.008315
  6O   2py       -0.079194  0.054635 -0.036510  0.021891  0.110427  0.031801
  6O   1dz2      -0.008867  0.001831 -0.004555  0.001794  0.011560  0.003463
  6O   1dxz       0.006796 -0.003976 -0.014469 -0.014352  0.000057 -0.018019
  6O   1dyz       0.000909  0.000227 -0.003365 -0.003802  0.001650 -0.014510
  6O   1dx2y2     0.010593  0.008406  0.007528 -0.004726 -0.001924  0.000895
  6O   1dxy       0.014839  0.000484  0.008032 -0.004091 -0.013317 -0.001969
  7H   1s        -0.015907  0.149706 -0.142360  0.088732 -0.070759 -0.005942
  7H   2s         0.006336  0.121088 -0.085567  0.051423 -0.018543 -0.007676
  8H   1s         0.138592 -0.127682  0.009104 -0.024294  0.123528  0.005369
  8H   2s         0.092925 -0.087348 -0.000134 -0.019609  0.104175  0.017051
  9H   1s         0.069598 -0.056883  0.039717  0.011482 -0.131774 -0.001390
  9H   2s         0.043905 -0.036314  0.006309  0.031332 -0.091450 -0.002063
                     18        19        20        21        22        23   
                  -0.28024  -0.24040   0.00674   0.04796   0.08808   0.13731
                   2.00000   2.00000   0.00000   0.00000   0.00000   0.00000
                  --------  --------  --------  --------  --------  --------
  0C   1s        -0.025152  0.015263  0.000019  0.065331  0.041142  0.082976
  0C   2s         0.045277 -0.036051  0.004015 -0.072161 -0.037181 -0.101511
  0C   1pz       -0.032861  0.125914  0.029425 -0.010551 -0.145569 -0.047841
  0C   1px        0.167851  0.049529  0.021237  0.008058 -0.082687  0.071554
  0C   1py        0.151474 -0.000191  0.007057  0.123154  0.130443  0.171473
  0C   3s         0.230861 -0.023821  0.004508 -0.922760 -0.757885 -1.469180
  0C   2pz       -0.052493  0.014985  0.247835 -0.021666 -0.308129 -0.171588
  0C   2px        0.121998 -0.003767  0.109309  0.180551 -0.431017  0.072023
  0C   2py        0.122178 -0.016438  0.033397  0.233322  0.413608  0.572957
  0C   1dz2      -0.002635  0.016416 -0.015564  0.000456  0.007765  0.006540
  0C   1dxz       0.000410  0.019460  0.024333  0.000379  0.001659 -0.001024
  0C   1dyz      -0.001951 -0.016372  0.022129 -0.004245  0.005075  0.004957
  0C   1dx2y2     0.007550  0.008760 -0.001543  0.005400 -0.009605 -0.011236
  0C   1dxy       0.003421  0.009633  0.002043 -0.010612  0.012587 -0.006233
  1N   1s        -0.011094 -0.059799 -0.017249 -0.013458  0.094571 -0.066715
  1N   2s         0.026712  0.135572  0.029096  0.015179 -0.145794  0.093171
  1N   1pz       -0.015750 -0.514109  0.020989  0.008028 -0.141479  0.068232
  1N   1px       -0.013433 -0.123289  0.008649  0.063065  0.096365 -0.014234
  1N   1py        0.027590 -0.140489 -0.029839 -0.048972 -0.002691  0.142247
  1N   3s         0.049677  0.238291  0.218460  0.215098 -1.368266  0.982542
  1N   2pz       -0.010787 -0.437911  0.021706  0.035225 -0.346739  0.179777
  1N   2px       -0.043477 -0.118259  0.007516  0.145724  0.179489  0.016470
  1N   2py        0.042064 -0.113690 -0.085391 -0.123159 -0.008943  0.270522
  1N   1dz2      -0.000651 -0.020617 -0.002045  0.003023 -0.000638  0.004968
  1N   1dxz      -0.002367 -0.007986  0.002626  0.001273  0.001532 -0.004386
  1N   1dyz       0.002323 -0.012884  0.001206 -0.001375  0.004543  0.010294
  1N   1dx2y2     0.002878  0.001089 -0.001482  0.006074  0.001690  0.010006
  1N   1dxy      -0.000269 -0.000680 -0.000916  0.002720  0.002038  0.005411
  2C   1s        -0.014891 -0.005021  0.002691 -0.009279 -0.008705  0.019560
  2C   2s         0.040575  0.003565  0.001926 -0.001176 -0.025348 -0.082294
  2C   1pz        0.011514  0.025361  0.538774 -0.051213  0.123697 -0.003648
  2C   1px       -0.056364 -0.017789  0.035480  0.084354 -0.030234 -0.068108
  2C   1py       -0.063681 -0.007615  0.068214 -0.003000  0.036355  0.042989
  2C   3s         0.049858  0.056073 -0.077218  0.138410  0.423755 -0.183608
  2C   2pz       -0.002486  0.020508  0.472343 -0.079173  0.162095  0.035944
  2C   2px        0.138664 -0.023929  0.022560  0.016779  0.013771 -0.088944
  2C   2py       -0.000579 -0.002542  0.095435  0.175594 -0.018838 -0.135401
  2C   1dz2       0.003458  0.002905  0.005644  0.006044  0.001886  0.001963
  2C   1dxz      -0.006057 -0.003927 -0.012391  0.001267  0.002722  0.000769
  2C   1dyz      -0.002874 -0.004459 -0.024265  0.003471  0.000809  0.002213
  2C   1dx2y2    -0.002200 -0.001304  0.001905  0.005018  0.012320  0.003672
  2C   1dxy       0.050245 -0.002703 -0.002148  0.002947 -0.004627 -0.009355
  3H   1s        -0.028433  0.120563 -0.112364  0.007223  0.014351  0.061534
  3H   2s        -0.038513  0.183450 -0.445184  0.501293  0.773294  0.988253
  4H   1s        -0.051484 -0.111714  0.081730 -0.018075  0.036400  0.090017
  4H   2s        -0.083052 -0.162456  0.314219  0.522415  0.515017  1.144522
  5O   1s        -0.001650 -0.001464 -0.000444  0.014721  0.018459 -0.018916
  5O   2s         0.005467  0.006162  0.002296 -0.024500 -0.041935  0.041203
  5O   1pz       -0.041373 -0.014740 -0.382968  0.023257 -0.078428 -0.010184
  5O   1px        0.576970 -0.044939 -0.031757 -0.075133  0.093036 -0.012400
  5O   1py        0.058163  0.002693 -0.048003  0.054529  0.024341  0.004130
  5O   3s        -0.007848 -0.007763 -0.005220 -0.208135 -0.165257  0.199420
  5O   2pz       -0.031079 -0.023082 -0.394631  0.023762 -0.097699 -0.001465
  5O   2px        0.387565 -0.027402 -0.027469 -0.059180  0.079027 -0.004124
  5O   2py        0.042786  0.005984 -0.050418  0.111256  0.083468 -0.065302
  5O   1dz2       0.001824  0.000809  0.000466  0.002725  0.003722 -0.000875
  5O   1dxz       0.003082  0.000859 -0.001226  0.000100  0.001281 -0.001055
  5O   1dyz       0.002132  0.000676 -0.005285  0.002005 -0.000838 -0.001120
  5O   1dx2y2     0.001512 -0.000440  0.000695  0.006810  0.006401 -0.008664
  5O   1dxy      -0.021907  0.002034 -0.000599 -0.001698 -0.001714  0.007474
  6O   1s         0.019576 -0.001701  0.004973  0.066982 -0.010746 -0.038871
  6O   2s        -0.044887  0.003507 -0.011830 -0.134337  0.034966  0.085306
  6O   1pz        0.000451 -0.055826 -0.231250 -0.007086 -0.037180  0.012759
  6O   1px        0.195298  0.007080 -0.002342  0.074283 -0.045201 -0.051663
  6O   1py       -0.071784 -0.005357  0.008170  0.276657 -0.079644 -0.081050
  6O   3s        -0.159399  0.011982 -0.036975 -0.737808  0.048555  0.405894
  6O   2pz       -0.000162 -0.040672 -0.240722 -0.013540 -0.040827  0.011351
  6O   2px        0.165654  0.007538 -0.013789  0.079655  0.004052 -0.089689
  6O   2py       -0.057890 -0.007766  0.024359  0.443137 -0.146171 -0.132657
  6O   1dz2       0.000318  0.000403 -0.001957  0.008414  0.002352  0.001835
  6O   1dxz       0.000141  0.000805 -0.012388  0.002373 -0.003009  0.000318
  6O   1dyz      -0.000929  0.000756  0.015535  0.000856  0.004790  0.001401
  6O   1dx2y2    -0.007898  0.000270 -0.001501  0.003392 -0.006535  0.001912
  6O   1dxy      -0.000391 -0.000118 -0.002078 -0.011831  0.004364  0.008465
  7H   1s        -0.014216 -0.060880  0.000183 -0.026427  0.041621 -0.102038
  7H   2s        -0.095924 -0.037863  0.005060 -0.038490  0.476344 -0.996517
  8H   1s         0.009936 -0.064986 -0.018538  0.006297  0.074578 -0.006131
  8H   2s         0.003878 -0.058126 -0.155243  0.062634  1.145565 -0.404559
  9H   1s         0.029859 -0.006058  0.016291  0.134472 -0.021878 -0.087088
  9H   2s         0.052131 -0.014894  0.101338  1.266982 -0.266085 -0.574283
                     24        25        26        27        28        29   
                   0.15166   0.16909   0.22749   0.24091   0.31707   0.36537
                   0.00000   0.00000   0.00000   0.00000   0.00000   0.00000
                  --------  --------  --------  --------  --------  --------
  0C   1s         0.011786 -0.077063  0.050514  0.090388 -0.063340  0.023604
  0C   2s        -0.026142  0.109365 -0.057888 -0.144127  0.000743 -0.089288
  0C   1pz        0.336757  0.190132  0.119049  0.226310  0.056398  0.033795
  0C   1px       -0.146798  0.095259 -0.228368  0.250429 -0.006559  0.105395
  0C   1py        0.168544  0.152003 -0.197311 -0.086563 -0.005921 -0.124682
  0C   3s        -0.138796  1.111157 -0.746965 -1.501357  1.676732 -0.009090
  0C   2pz        0.836342  0.624778  0.354105  0.844417 -0.288574  0.315393
  0C   2px       -0.628236  0.314535 -1.053914  0.940092  0.596794  1.185329
  0C   2py        0.678195  0.244413 -0.780120 -0.507509  1.339599 -0.978710
  0C   1dz2       0.000138  0.008522 -0.012715 -0.014966  0.031284 -0.001252
  0C   1dxz      -0.007564 -0.001633 -0.006919  0.015312  0.008487  0.004898
  0C   1dyz       0.008498 -0.004594 -0.009259 -0.014260  0.020065 -0.009968
  0C   1dx2y2    -0.002322 -0.019768  0.005033  0.023594  0.006858 -0.048244
  0C   1dxy       0.018235 -0.009756  0.015512 -0.026393 -0.034067  0.012418
  1N   1s         0.025810  0.016453 -0.017910 -0.045749  0.008425 -0.029925
  1N   2s        -0.035837 -0.028164  0.041067  0.070505  0.034781 -0.011776
  1N   1pz       -0.028791 -0.160097 -0.051258  0.008666 -0.008322  0.014961
  1N   1px       -0.190043  0.106003  0.120974  0.336700  0.010421 -0.008530
  1N   1py       -0.064745  0.184260  0.255933 -0.241998  0.036561 -0.050644
  1N   3s        -0.472072 -0.206394  0.223734  0.718284 -0.480385  1.076804
  1N   2pz       -0.156306 -0.403895 -0.204627  0.016425 -0.093283  0.155560
  1N   2px       -0.499381  0.313749  0.376544  0.988638 -0.344831  0.602006
  1N   2py       -0.191525  0.430409  0.646964 -0.706150  0.090764 -0.292186
  1N   1dz2       0.005650 -0.007075 -0.006392  0.003941  0.014632 -0.008594
  1N   1dxz       0.008430  0.009203  0.006370  0.009159 -0.002581 -0.012014
  1N   1dyz      -0.004064  0.005630 -0.002551 -0.009818  0.008778 -0.005808
  1N   1dx2y2    -0.008230  0.019265 -0.019017 -0.004336  0.010916  0.029102
  1N   1dxy       0.001887  0.002580  0.006347  0.020428 -0.009394  0.024680
  2C   1s        -0.033084  0.084084 -0.128413 -0.011102 -0.017974 -0.011694
  2C   2s         0.052273 -0.099362  0.186212 -0.003798 -0.067579 -0.134636
  2C   1pz       -0.122034 -0.049199  0.076801 -0.059010 -0.044730 -0.058210
  2C   1px       -0.094779  0.010346 -0.029698  0.075548  0.581269 -0.179993
  2C   1py       -0.037579  0.128334 -0.212441 -0.116705  0.081201  0.289446
  2C   3s         0.536127 -1.388382  2.217282  0.082653  0.227856  1.336090
  2C   2pz       -0.255894 -0.216288  0.059913 -0.173245 -0.155286 -0.360176
  2C   2px       -0.033405 -0.099969 -0.397886 -0.014728  2.045670 -0.472056
  2C   2py       -0.104187  0.186294 -0.379995 -0.374564  0.380539  2.674645
  2C   1dz2       0.005406 -0.016667  0.022532  0.003123  0.028167 -0.000838
  2C   1dxz      -0.011528 -0.005125  0.004530 -0.005410 -0.000716  0.001472
  2C   1dyz       0.003357 -0.002085  0.002290 -0.010773  0.005136 -0.002246
  2C   1dx2y2     0.011565  0.018337 -0.011878 -0.037588 -0.011265  0.010624
  2C   1dxy      -0.006198 -0.001576 -0.002835  0.010763 -0.001668 -0.012334
  3H   1s        -0.031739 -0.004490 -0.054835 -0.034139  0.075657 -0.018499
  3H   2s        -0.877645 -1.114510 -0.442621 -0.481754 -0.044636 -0.267820
  4H   1s         0.052312  0.027395 -0.029822 -0.045435  0.082464  0.048439
  4H   2s         1.438245  0.305060 -0.115005  0.637542  0.301830 -0.367302
  5O   1s         0.021501 -0.027039  0.015598 -0.014309  0.031986  0.102261
  5O   2s        -0.052204  0.052856 -0.021396  0.020344 -0.063352 -0.154422
  5O   1pz        0.043141  0.041949 -0.012447  0.059533 -0.003297  0.003914
  5O   1px        0.083509 -0.032386 -0.063370  0.018708 -0.224163  0.054968
  5O   1py        0.061522 -0.038334  0.133618 -0.079170  0.047477  0.125897
  5O   3s        -0.182045  0.323353 -0.308020  0.260981 -0.477557 -2.319637
  5O   2pz        0.084015  0.080286 -0.037478  0.089142 -0.003235 -0.101131
  5O   2px        0.090640 -0.003916 -0.014961 -0.008787 -0.512802  0.069097
  5O   2py        0.132305 -0.180645  0.238910 -0.131564  0.250846  0.962467
  5O   1dz2       0.003752 -0.011356  0.013164 -0.000449  0.016088  0.024237
  5O   1dxz      -0.004742 -0.000912  0.003181  0.000325 -0.000363  0.000181
  5O   1dyz       0.002811 -0.004355  0.000662  0.001902  0.005048  0.011894
  5O   1dx2y2     0.004403 -0.008583  0.000192  0.001983  0.009731  0.038976
  5O   1dxy      -0.000212  0.002059  0.004651 -0.006323 -0.009575  0.012206
  6O   1s         0.000263 -0.028451  0.043447 -0.001597  0.062605 -0.024558
  6O   2s         0.012344  0.061025 -0.102194 -0.020910 -0.124694  0.023423
  6O   1pz        0.101328  0.034664 -0.001949  0.028087  0.040207 -0.003542
  6O   1px       -0.007538 -0.146732  0.172525  0.160798  0.128544 -0.140453
  6O   1py       -0.025208  0.130248 -0.088640 -0.105480 -0.240230 -0.033024
  6O   3s        -0.073426  0.361921 -0.482013  0.116455 -0.946701  0.692258
  6O   2pz        0.085332  0.032013 -0.001727  0.053479  0.056587  0.051206
  6O   2px        0.046133 -0.297288  0.366271  0.147497  0.466998 -0.419195
  6O   2py       -0.060775  0.261849 -0.133373 -0.157608 -0.700860 -0.126820
  6O   1dz2       0.002922 -0.007577  0.006519 -0.001934  0.005264  0.003697
  6O   1dxz       0.007262  0.000836 -0.000156 -0.000541  0.004119 -0.003257
  6O   1dyz      -0.002258 -0.002711  0.004731 -0.003792  0.000039 -0.006128
  6O   1dx2y2    -0.001942 -0.001467  0.005158  0.015693 -0.021175 -0.018863
  6O   1dxy       0.001661  0.000182 -0.014048  0.005915 -0.003197  0.018470
  7H   1s         0.040352 -0.093612 -0.007887  0.050433 -0.078204 -0.038822
  7H   2s         0.538189 -0.813459 -1.109635  0.484039 -0.060473 -0.211206
  8H   1s        -0.074258  0.076327 -0.011371  0.017447  0.030083  0.124846
  8H   2s        -0.525787  1.065733  0.556966  0.591903  0.067003  0.067107
  9H   1s        -0.002754  0.050391 -0.021732 -0.100261  0.002338  0.072396
  9H   2s        -0.083175  0.226109  0.070930 -0.542920 -0.520691 -0.071739
                     30        31        32        33        34        35   
                   0.52641   0.53010   0.56660   0.60402   0.66854   0.68009
                   0.00000   0.00000   0.00000   0.00000   0.00000   0.00000
                  --------  --------  --------  --------  --------  --------
  0C   1s        -0.008787  0.003625 -0.002874  0.020685  0.004670  0.008256
  0C   2s         0.223766 -0.058540  0.188064 -0.227822  0.053337 -0.026939
  0C   1pz       -0.161014  0.199152 -0.125562  0.165194  0.303293 -0.394851
  0C   1px        0.446947  0.099869 -0.821726 -0.343615 -0.016822  0.078146
  0C   1py        0.448109 -0.029833  0.503052 -0.595991  0.161978 -0.126547
  0C   3s        -0.993819  0.027959 -0.261248 -0.301015 -0.425182  0.093939
  0C   2pz        0.378241 -0.287735  0.390570 -0.286411 -0.867222  1.041764
  0C   2px       -0.581171 -0.275547  1.657765  0.397360 -0.320176 -0.043915
  0C   2py       -1.302385  0.070708 -1.294078  0.912928 -0.406187  0.556846
  0C   1dz2       0.004642  0.035901 -0.017691  0.044274  0.032378 -0.054758
  0C   1dxz      -0.003255 -0.000763 -0.002018  0.004302  0.026130 -0.004344
  0C   1dyz      -0.009215 -0.032549 -0.029725  0.023795 -0.049934  0.048638
  0C   1dx2y2    -0.022145  0.015979 -0.017051 -0.025567  0.001242 -0.017131
  0C   1dxy       0.001346  0.001520  0.005377 -0.016943 -0.013326 -0.012062
  1N   1s         0.004278  0.008798  0.014468  0.006351  0.013378 -0.030343
  1N   2s        -0.051939 -0.022117 -0.122071 -0.043248 -0.022911  0.160425
  1N   1pz        0.013622  0.195565 -0.021812 -0.040063  0.308891 -0.319058
  1N   1px       -0.121760 -0.032473 -0.067882 -0.022659  0.167889  0.061916
  1N   1py        0.022040 -0.001807 -0.048175 -0.072393  0.049752 -0.175796
  1N   3s         0.388941 -0.205496  1.061835 -0.058536 -0.219748 -0.036074
  1N   2pz        0.020066 -0.115730  0.079346  0.041341 -0.152027  0.209171
  1N   2px        0.261435  0.033243  0.272939 -0.055071 -0.207665 -0.164165
  1N   2py       -0.017847  0.031524  0.056394 -0.091366 -0.025648  0.078501
  1N   1dz2      -0.018393  0.012875 -0.054486  0.021315 -0.015154  0.015778
  1N   1dxz      -0.008141 -0.034959  0.026121 -0.029443 -0.005953  0.041605
  1N   1dyz       0.000615 -0.005652 -0.033387  0.003529  0.008933  0.003581
  1N   1dx2y2     0.033028 -0.000611  0.071298  0.018238 -0.021692 -0.024469
  1N   1dxy       0.027890  0.015813 -0.092241  0.025184 -0.010583 -0.022901
  2C   1s        -0.020366  0.007314 -0.014984 -0.040392 -0.052744 -0.041220
  2C   2s         0.470874 -0.131747  0.119843  0.383253  0.246523  0.435045
  2C   1pz        0.033878  0.871292  0.144573 -0.007216 -0.302145  0.234425
  2C   1px        0.698624 -0.008223  0.030158  0.330115 -0.068471 -0.111008
  2C   1py       -0.065643  0.159630 -0.026397 -0.023890  0.707592  0.516193
  2C   3s         0.114361  0.272065 -0.341493 -1.527726  0.220403 -0.660604
  2C   2pz       -0.066438 -1.025963 -0.358800  0.119975  0.743744 -0.679092
  2C   2px       -1.872470  0.115165 -0.542212 -1.239688 -0.222262  0.340212
  2C   2py        0.470202 -0.384104  0.865714 -0.213167 -1.045010 -0.891037
  2C   1dz2      -0.017255 -0.008582  0.025533  0.086332  0.061265  0.052079
  2C   1dxz      -0.011806  0.027170  0.013260  0.012422  0.017353 -0.034647
  2C   1dyz      -0.006445  0.006858  0.005028  0.024599  0.026403  0.018763
  2C   1dx2y2     0.029407  0.003670 -0.014783  0.012093  0.106101  0.091103
  2C   1dxy       0.102969 -0.002696 -0.007251 -0.021373  0.028007  0.014756
  3H   1s        -0.028583  0.237195 -0.042565  0.178506  0.206140 -0.219219
  3H   2s        -0.149706  0.081176 -0.204807  0.149930  0.148516 -0.188307
  4H   1s        -0.046660 -0.183049 -0.083490  0.203581 -0.199810  0.244568
  4H   2s        -0.232285 -0.008257 -0.275413  0.129656 -0.232738  0.282645
  5O   1s         0.007673 -0.000979  0.011013 -0.003911  0.021839  0.015870
  5O   2s        -0.012888 -0.003586 -0.004102 -0.055061 -0.106419 -0.113674
  5O   1pz        0.014138  0.093666  0.049557 -0.045307 -0.085804  0.035200
  5O   1px       -0.030900  0.015057  0.011859  0.242715 -0.037731 -0.037443
  5O   1py        0.075223 -0.001890 -0.019429  0.151156  0.293300  0.285651
  5O   3s        -0.254156  0.080632 -0.456112  0.556956  0.437114  0.546082
  5O   2pz       -0.009601  0.094991  0.001749  0.018741 -0.098453  0.107292
  5O   2px        0.224430 -0.023253  0.078084  0.216451  0.052677 -0.028685
  5O   2py        0.059098  0.011603  0.129783 -0.265960  0.111522 -0.031952
  5O   1dz2      -0.015843  0.011872  0.006154 -0.029023 -0.061584 -0.052712
  5O   1dxz       0.010106  0.009717  0.005290 -0.000640  0.019539 -0.026457
  5O   1dyz      -0.004140 -0.055941 -0.007209 -0.011822 -0.011684 -0.040327
  5O   1dx2y2    -0.009792  0.010596 -0.000616 -0.038119 -0.110202 -0.086412
  5O   1dxy      -0.070940  0.003696 -0.011389 -0.002306 -0.010114 -0.004288
  6O   1s        -0.002248  0.001202 -0.013131 -0.018443 -0.002350  0.001637
  6O   2s        -0.057428  0.019456 -0.024372  0.031080  0.019719  0.001808
  6O   1pz        0.001200  0.113829 -0.018091 -0.002916 -0.129741  0.180782
  6O   1px        0.174096 -0.042940  0.188420  0.164029  0.080945  0.066741
  6O   1py       -0.097772  0.033528 -0.066646  0.070839  0.063479  0.027069
  6O   3s         0.863880 -0.195848  0.631927  0.687612 -0.088205 -0.137212
  6O   2pz        0.001935  0.090676  0.057942 -0.039945 -0.017807 -0.030299
  6O   2px       -0.229380  0.082823 -0.263843 -0.253108 -0.043595 -0.045034
  6O   2py        0.257752 -0.006814  0.035886  0.267515  0.139341  0.069679
  6O   1dz2      -0.071079  0.008455 -0.013490 -0.040757  0.002779  0.001733
  6O   1dxz       0.003773 -0.031260 -0.014921  0.005195  0.012625 -0.005237
  6O   1dyz      -0.010517  0.028156 -0.001868  0.003493  0.005571 -0.017352
  6O   1dx2y2    -0.007473 -0.013167  0.041572  0.041334 -0.062997 -0.046829
  6O   1dxy      -0.116396  0.010711  0.006417 -0.077483  0.000634 -0.010029
  7H   1s         0.034927  0.018953 -0.180014 -0.052062  0.120219 -0.070663
  7H   2s        -0.086102  0.053304  0.124229 -0.044155  0.128106  0.086430
  8H   1s         0.069614  0.117543  0.058936  0.182985 -0.003400 -0.286586
  8H   2s        -0.154198 -0.098752  0.141032 -0.091145  0.030328  0.035394
  9H   1s         0.094523  0.015208 -0.093456 -0.065595  0.214191  0.143312
  9H   2s         0.188889 -0.015826 -0.200639  0.295950 -0.272712 -0.205961
                     36        37        38        39        40        41   
                   0.71729   0.74467   0.77736   0.80545   0.85207   0.86359
                   0.00000   0.00000   0.00000   0.00000   0.00000   0.00000
                  --------  --------  --------  --------  --------  --------
  0C   1s        -0.034127  0.006770 -0.027229 -0.003866 -0.021157 -0.003202
  0C   2s         0.217054 -0.072552 -0.142275  0.114249  0.497549  0.038226
  0C   1pz        0.046240  0.112020 -0.214002 -0.760026  0.503597  0.013640
  0C   1px       -0.051632 -0.135553 -0.098256 -0.071675 -0.083032 -0.179032
  0C   1py        0.079059  0.075506 -0.222064 -0.225755 -0.104456  0.073213
  0C   3s        -1.867570  0.455644 -0.001958 -0.114816 -0.608884  0.015226
  0C   2pz        0.201546 -0.655513  0.731737  1.407011 -1.336897  0.272328
  0C   2px       -0.299995  0.839013  0.355615  0.511730  1.037785  1.125587
  0C   2py       -0.715874  0.241651  0.293145  0.600696  0.347048  0.201529
  0C   1dz2       0.066583  0.058053 -0.012902  0.088563 -0.051742 -0.024636
  0C   1dxz      -0.014271 -0.007779 -0.018587  0.019620 -0.004821  0.004774
  0C   1dyz       0.025147 -0.037402  0.038581 -0.094429  0.053352  0.081135
  0C   1dx2y2    -0.040271  0.024724  0.034689  0.042726  0.064018 -0.027939
  0C   1dxy       0.028777  0.103156 -0.010006  0.025899  0.011195  0.051425
  1N   1s         0.010392  0.001262  0.008625  0.013785 -0.010942  0.019023
  1N   2s        -0.163862  0.013763 -0.138267 -0.023213  0.117208 -0.193049
  1N   1pz       -0.446656 -0.495667  0.253255  0.044479 -0.149032  0.326442
  1N   1px       -0.475359 -0.156586 -0.112954  0.085000  0.059675 -0.287780
  1N   1py        0.160213 -0.061160  0.276573  0.233256  0.237608 -0.062660
  1N   3s         0.553956  0.127819  0.210801  0.133367  0.107212  0.449467
  1N   2pz        0.464606  0.684902 -0.330580 -0.157880  0.606631 -0.396490
  1N   2px        0.936802  0.365693  0.012656 -0.106690 -0.402103  0.512273
  1N   2py       -0.392128 -0.234015 -0.531093 -0.707478 -0.749285 -0.602571
  1N   1dz2      -0.038752 -0.041396  0.000288 -0.072679 -0.026673 -0.081135
  1N   1dxz      -0.021600 -0.049517  0.046813 -0.023862  0.070771  0.083966
  1N   1dyz      -0.021488  0.011038  0.005149  0.035202  0.030686  0.002980
  1N   1dx2y2    -0.003511 -0.038930 -0.022559 -0.023312 -0.061287 -0.100081
  1N   1dxy       0.015645 -0.003581  0.013307 -0.012214 -0.021547  0.051986
  2C   1s         0.000041 -0.008819  0.004184  0.004919  0.033672 -0.008647
  2C   2s        -0.760612  0.410705 -0.633645  0.250972  0.619904  0.100572
  2C   1pz       -0.067895  0.035498  0.031143 -0.038349  0.082470  0.046393
  2C   1px        0.206024 -0.244947  0.111319 -0.007904  0.026778 -0.018282
  2C   1py        0.443558 -0.336889 -0.089405  0.078394  0.037490 -0.129639
  2C   3s         2.057391 -1.757121 -0.008193 -0.279356 -1.007459 -1.359265
  2C   2pz        0.203041  0.086908 -0.229241 -0.198880 -0.133712 -0.208597
  2C   2px       -0.500610  0.870855 -0.417206 -0.027407 -0.238815  0.219893
  2C   2py       -1.273406  0.473988  0.168799  0.450712  1.512058  0.346163
  2C   1dz2       0.010069  0.006693  0.054809 -0.017723 -0.047481  0.043167
  2C   1dxz       0.002373  0.018501 -0.013155  0.022957 -0.018765 -0.029841
[...]
  24:      1882.74 cm**-1
  25:      2953.59 cm**-1
  26:      3005.39 cm**-1
  27:      3485.69 cm**-1
  28:      3581.15 cm**-1
  29:      3715.52 cm**-1


------------
NORMAL MODES
------------

These modes are the Cartesian displacements weighted by the diagonal matrix
M(i,i)=1/sqrt(m[i]) where m[i] is the mass of the displaced atom
Thus, these vectors are normalized but *not* orthogonal

                  0          1          2          3          4          5    
      0       0.000000   0.000000   0.000000   0.000000   0.000000   0.000000
      1       0.000000   0.000000   0.000000   0.000000   0.000000   0.000000
      2       0.000000   0.000000   0.000000   0.000000   0.000000   0.000000
      3       0.000000   0.000000   0.000000   0.000000   0.000000   0.000000
      4       0.000000   0.000000   0.000000   0.000000   0.000000   0.000000
      5       0.000000   0.000000   0.000000   0.000000   0.000000   0.000000
      6       0.000000   0.000000   0.000000   0.000000   0.000000   0.000000
      7       0.000000   0.000000   0.000000   0.000000   0.000000   0.000000
      8       0.000000   0.000000   0.000000   0.000000   0.000000   0.000000
      9       0.000000   0.000000   0.000000   0.000000   0.000000   0.000000
     10       0.000000   0.000000   0.000000   0.000000   0.000000   0.000000
     11       0.000000   0.000000   0.000000   0.000000   0.000000   0.000000
     12       0.000000   0.000000   0.000000   0.000000   0.000000   0.000000
     13       0.000000   0.000000   0.000000   0.000000   0.000000   0.000000
     14       0.000000   0.000000   0.000000   0.000000   0.000000   0.000000
     15       0.000000   0.000000   0.000000   0.000000   0.000000   0.000000
     16       0.000000   0.000000   0.000000   0.000000   0.000000   0.000000
     17       0.000000   0.000000   0.000000   0.000000   0.000000   0.000000
     18       0.000000   0.000000   0.000000   0.000000   0.000000   0.000000
     19       0.000000   0.000000   0.000000   0.000000   0.000000   0.000000
     20       0.000000   0.000000   0.000000   0.000000   0.000000   0.000000
     21       0.000000   0.000000   0.000000   0.000000   0.000000   0.000000
     22       0.000000   0.000000   0.000000   0.000000   0.000000   0.000000
     23       0.000000   0.000000   0.000000   0.000000   0.000000   0.000000
     24       0.000000   0.000000   0.000000   0.000000   0.000000   0.000000
     25       0.000000   0.000000   0.000000   0.000000   0.000000   0.000000
     26       0.000000   0.000000   0.000000   0.000000   0.000000   0.000000
     27       0.000000   0.000000   0.000000   0.000000   0.000000   0.000000
     28       0.000000   0.000000   0.000000   0.000000   0.000000   0.000000
     29       0.000000   0.000000   0.000000   0.000000   0.000000   0.000000
                  6          7          8          9         10         11    
      0       0.006130   0.004543   0.033958   0.054823  -0.111169  -0.052884
      1      -0.043613  -0.018081   0.112759  -0.027443   0.013218  -0.047479
      2      -0.153168  -0.072256  -0.057314   0.010601   0.005614   0.064709
      3      -0.051746   0.016251  -0.212828   0.103615  -0.174154  -0.008016
      4       0.010156   0.065663  -0.239130  -0.017443   0.014670  -0.002949
      5       0.109894   0.070991   0.033381  -0.004497  -0.028189  -0.015224
      6       0.005562  -0.003782   0.027985  -0.021431   0.036299  -0.012016
      7      -0.002392  -0.006884   0.142149   0.064086  -0.054871   0.029053
      8      -0.009136  -0.039052  -0.042905   0.117231   0.069558   0.228758
      9       0.024710   0.083905   0.148474  -0.048427  -0.227123  -0.287571
     10      -0.304167  -0.174755   0.113282  -0.257233  -0.034481  -0.452117
     11      -0.238540  -0.111176  -0.059413  -0.054057  -0.008701  -0.061727
     12       0.031970  -0.056500   0.167061   0.216217  -0.121942   0.134565
     13       0.096420   0.069748   0.118364   0.116120   0.041598   0.170935
     14      -0.378602  -0.216141  -0.045688  -0.193156  -0.027078  -0.264962
     15      -0.005030  -0.005171   0.276293  -0.015222   0.079937   0.073002
     16      -0.006684  -0.013427   0.151866   0.051749  -0.068065  -0.010018
     17      -0.052179  -0.074719   0.007682  -0.026320   0.014744  -0.107616
     18       0.014289   0.006052  -0.098731  -0.107797   0.149763  -0.003185
     19       0.019765   0.006014  -0.104807  -0.056104   0.080240   0.045728
     20       0.095676   0.081805   0.039565  -0.095882  -0.095356  -0.025640
     21       0.152212  -0.155228  -0.539588   0.112940  -0.226243  -0.008185
     22      -0.001528   0.056444  -0.165793  -0.020031   0.023178  -0.004514
     23      -0.341983   0.716035  -0.016219  -0.023880   0.035835  -0.015124
     24       0.199160  -0.135928  -0.067056   0.037919  -0.138310  -0.103749
     25       0.388198  -0.457251  -0.450961  -0.006481  -0.046574  -0.001453
     26       0.542309  -0.286961   0.150182  -0.088950   0.003714  -0.138016
     27       0.024719   0.014863  -0.307829  -0.203785   0.379972   0.041525
     28       0.020499   0.008505  -0.076310   0.042509   0.115512  -0.019115
     29       0.133333   0.125610  -0.048450   0.838905   0.771689  -0.690435
                 12         13         14         15         16         17    
      0       0.134044  -0.168248  -0.049871  -0.074866   0.188531   0.019969
      1       0.274541  -0.274019   0.030203  -0.038390  -0.130101  -0.012794
      2      -0.032216   0.081645   0.008795  -0.216096  -0.007957   0.025518
      3      -0.114343  -0.059761   0.057511   0.064526  -0.164770   0.005596
      4       0.018218   0.010124  -0.010688  -0.010433   0.100933   0.009853
      5      -0.036975  -0.020406   0.107757   0.090419  -0.012364  -0.003621
      6       0.181809   0.136234  -0.005472   0.020049   0.048960   0.191502
      7       0.037246   0.164977  -0.001770   0.031860   0.000663  -0.023758
      8       0.178688  -0.086944  -0.054617   0.180869   0.071149  -0.024596
      9      -0.051969  -0.212913   0.067712  -0.072891   0.680411  -0.292830
     10       0.045562  -0.232240  -0.143773   0.636031   0.081637  -0.139815
     11      -0.105726   0.091813  -0.036136   0.003349   0.055466  -0.010586
     12       0.232858  -0.272792  -0.038326  -0.239059   0.093559  -0.403000
     13       0.373615  -0.266196   0.102992  -0.452670  -0.193107  -0.033830
     14      -0.173968   0.054615  -0.132855   0.408951   0.101681  -0.028149
     15      -0.306194  -0.049079  -0.007704   0.001323  -0.001082  -0.006742
     16      -0.005360   0.235594   0.004816   0.016829  -0.024342  -0.063049
     17      -0.042644  -0.016842   0.016680  -0.040379  -0.009677   0.011147
     18       0.190283   0.170984   0.034499   0.008493  -0.048680  -0.058878
     19      -0.248917  -0.141236  -0.013349  -0.003486   0.019925   0.086359
     20      -0.011836   0.019532   0.006902  -0.024821  -0.007893  -0.003123
     21      -0.442793   0.350775  -0.225413  -0.031557   0.008960  -0.246298
     22       0.086573  -0.081426   0.061978   0.003090   0.070146   0.064761
     23      -0.055308   0.221594  -0.643200  -0.117045  -0.139439  -0.127372
     24       0.089431  -0.214784  -0.400175   0.011704  -0.435892   0.105738
     25      -0.229814   0.296020  -0.062915  -0.182928   0.220321  -0.154937
     26       0.146556  -0.108872  -0.535107  -0.059683  -0.310464   0.068006
     27      -0.162507  -0.373294   0.031181  -0.067436  -0.097457  -0.719676
     28      -0.208344  -0.055183  -0.013119   0.007473   0.030880   0.192460
     29      -0.178356   0.044853   0.021636  -0.037401  -0.009547   0.010080
                 18         19         20         21         22         23    
      0       0.102112  -0.031421  -0.004586  -0.174907   0.028199   0.011675
      1      -0.107345   0.020863   0.034602  -0.068103  -0.070227   0.011912
      2       0.030091   0.025875  -0.006622   0.027367   0.025414   0.019062
      3       0.003569   0.035394  -0.007426   0.025713   0.002186  -0.059143
      4       0.089622  -0.027218  -0.042327   0.051896  -0.012188   0.040935
      5      -0.016293  -0.047085   0.011655  -0.024458   0.006306   0.007774
      6      -0.062216  -0.038802   0.213340   0.113700  -0.002942  -0.008385
      7       0.010843   0.010072  -0.019173  -0.003151   0.006945  -0.030524
      8      -0.016235   0.052415  -0.001948  -0.003010   0.001576   0.002173
      9      -0.324374   0.622528  -0.128462   0.523220  -0.151413  -0.004422
     10      -0.100310  -0.131021  -0.073065   0.125827   0.652399  -0.005507
     11       0.026984  -0.003969  -0.032610   0.086515   0.200651   0.017209
     12      -0.172491  -0.717338  -0.304876   0.581549  -0.128797  -0.089077
     13      -0.163521   0.076047  -0.000545   0.080076   0.349923   0.043626
     14       0.077646  -0.143561   0.002189  -0.100633  -0.600405  -0.047529
     15       0.003871   0.004035  -0.033342  -0.013284  -0.000086   0.002553
     16       0.057001   0.014366   0.045267  -0.002934  -0.006221   0.023268
     17      -0.003411  -0.009577  -0.005164   0.001096  -0.000046  -0.001715
     18      -0.010586   0.018901  -0.144580  -0.040864  -0.001571   0.003273
     19      -0.034330  -0.009196  -0.008119   0.008927  -0.000745  -0.000016
     20       0.006371  -0.005455   0.005575  -0.000088   0.000820   0.000018
     21      -0.561991  -0.094839   0.172372  -0.248377  -0.006847   0.660567
     22       0.206605   0.003840  -0.080734   0.115273  -0.010593  -0.098307
     23      -0.274692  -0.013012   0.074295  -0.130776   0.009846  -0.289581
     24       0.269622   0.143596  -0.138063   0.281565  -0.038025   0.136919
     25      -0.306861  -0.010096   0.119249  -0.280732   0.047857  -0.656553
     26       0.186441   0.109518  -0.097809   0.185349  -0.021950  -0.015531
     27       0.370840   0.026936   0.838754   0.093497   0.020043  -0.013830
     28      -0.091234  -0.011213  -0.150207  -0.007664  -0.005616   0.000633
     29      -0.002058   0.011003  -0.012428  -0.006823  -0.009653   0.001321
                 24         25         26         27         28         29    
      0      -0.012972   0.001927  -0.004563   0.000451   0.001051  -0.000301
      1      -0.032638   0.029790   0.064887   0.001169  -0.001277   0.000553
      2       0.008263  -0.070722   0.054049   0.002959   0.001200  -0.000051
      3      -0.011470  -0.002759  -0.001345  -0.020715  -0.053711  -0.000163
      4       0.016951  -0.000599  -0.000850   0.048363  -0.050357  -0.000776
      5       0.000491  -0.000030  -0.002171   0.022786   0.032726   0.000088
      6       0.004684  -0.000806  -0.001711   0.000602   0.000116  -0.001940
      7       0.667286   0.000917   0.002104  -0.000526   0.000101  -0.002905
      8      -0.079640  -0.001199   0.000871   0.000033   0.000161   0.000314
      9      -0.050603  -0.014117   0.007499   0.006729   0.000478   0.000159
     10      -0.093395  -0.259235   0.052743   0.000533   0.003251   0.000430
     11      -0.014948   0.952447  -0.103219  -0.002867  -0.011047   0.000421
     12      -0.163156   0.017252   0.069042   0.001241  -0.003549  -0.000506
     13      -0.065573  -0.098468  -0.825945  -0.010176   0.001403   0.000249
     14       0.083845  -0.096385  -0.540321  -0.009045   0.002486  -0.001773
     15      -0.002335   0.000158   0.000154   0.000179  -0.000138   0.000153
     16      -0.411481  -0.000818  -0.001057   0.000256  -0.000021   0.001249
     17       0.050028   0.000044   0.000260  -0.000002  -0.000074  -0.000136
     18      -0.015761   0.000480   0.000479  -0.000226   0.000170  -0.007703
     19      -0.046983  -0.000044  -0.000444  -0.000220   0.000200  -0.061384
     20       0.004798   0.000226  -0.000371   0.000007  -0.000039   0.005296
     21       0.267957   0.000482   0.005784  -0.167159   0.097550   0.002544
     22      -0.044108   0.003865   0.012409  -0.811074   0.539281   0.008488
     23      -0.109839   0.001307   0.010634  -0.018757   0.043736   0.000329
     24       0.083922   0.009842  -0.005704   0.435256   0.637555  -0.000393
     25      -0.240691   0.011155   0.000389   0.132885   0.172360   0.000607
     26       0.016627  -0.000786   0.006091  -0.321189  -0.504861  -0.000369
     27       0.407241   0.001400   0.006789  -0.000006  -0.000097   0.147004
     28      -0.077278  -0.001196  -0.002201   0.007548  -0.005372   0.983480
     29      -0.002200  -0.003468   0.004329  -0.000500   0.000511  -0.084874


-----------
IR SPECTRUM
-----------

 Mode    freq (cm**-1)   T**2         TX         TY         TZ
-------------------------------------------------------------------
   6:        36.56   23.190070  (  4.261337   2.206373  -0.403728)
   7:       149.76   30.966003  ( -3.045062  -4.519279   1.126815)
   8:       292.52   13.987247  ( -3.623634   0.706417  -0.597913)
   9:       463.10   58.766402  ( -0.666513   0.987951   7.572722)
  10:       477.71   46.389369  (  0.230992  -0.531661   6.786262)
  11:       572.40   12.018070  ( -1.807473  -0.624051  -2.891655)
  12:       648.96    5.834013  (  0.738729   2.241917   0.511956)
  13:       851.52    5.933365  (  0.065080   2.425662   0.212821)
  14:       879.41  189.580164  ( -8.871617   2.703694 -10.176670)
  15:      1026.31    8.472745  ( -2.661063  -0.038907  -1.178971)
  16:      1132.56   11.105050  (  2.561006  -1.739384  -1.233223)
  17:      1174.24    8.631795  (  2.790877  -0.180077  -0.900207)
  18:      1250.18   10.721355  (  0.800533  -3.171912  -0.139557)
  19:      1263.10    8.885520  ( -2.939076   0.491212   0.077880)
  20:      1322.87  396.035996  ( 18.280647  -7.859873  -0.276306)
  21:      1446.58   25.575512  (  4.900814   0.401473  -1.181673)
  22:      1529.13    7.074007  (  2.617126   0.416810  -0.225669)
  23:      1682.97   66.358786  (  4.707195  -6.223599  -2.338357)
  24:      1882.74  196.123190  (  0.452446  13.808662  -2.288962)
  25:      2953.59   50.004161  ( -3.095458   3.014125  -5.597977)
  26:      3005.39   46.408329  ( -2.559933   5.423461   3.231275)
  27:      3485.69   10.828028  ( -1.982706  -2.613193  -0.261008)
  28:      3581.15    7.003141  (  1.611989   1.983513  -0.685790)
  29:      3715.52   32.161233  ( -1.278157   5.513628  -0.357008)

The first frequency considered to be a vibration is 6
The total number of vibrations considered is 24


--------------------------
THERMOCHEMISTRY AT 298.15K
--------------------------

Temperature         ... 298.15 K
Pressure            ... 1.00 atm
Total Mass          ... 75.07 AMU

Throughout the following assumptions are being made:
  (1) The electronic state is orbitally nondegenerate
  (2) There are no thermally accessible electronically excited states
  (3) Hindered rotations indicated by low frequency modes are not
      treated as such but are treated as vibrations and this may
      cause some error
  (4) All equations used are the standard statistical mechanics
      equations for an ideal gas
  (5) All vibrations are strictly harmonic

freq.      36.56  E(vib)   ...       0.54 
freq.     149.76  E(vib)   ...       0.40 
freq.     292.52  E(vib)   ...       0.27 
freq.     463.10  E(vib)   ...       0.16 
freq.     477.71  E(vib)   ...       0.15 
freq.     572.40  E(vib)   ...       0.11 
freq.     648.96  E(vib)   ...       0.08 
freq.     851.52  E(vib)   ...       0.04 
freq.     879.41  E(vib)   ...       0.04 
freq.    1026.31  E(vib)   ...       0.02 
freq.    1132.56  E(vib)   ...       0.01 
freq.    1174.24  E(vib)   ...       0.01 
freq.    1250.18  E(vib)   ...       0.01 
freq.    1263.10  E(vib)   ...       0.01 
freq.    1322.87  E(vib)   ...       0.01 
freq.    1446.58  E(vib)   ...       0.00 
freq.    1529.13  E(vib)   ...       0.00 
freq.    1682.97  E(vib)   ...       0.00 
freq.    1882.74  E(vib)   ...       0.00 
freq.    2953.59  E(vib)   ...       0.00 
freq.    3005.39  E(vib)   ...       0.00 
freq.    3485.69  E(vib)   ...       0.00 
freq.    3581.15  E(vib)   ...       0.00 
freq.    3715.52  E(vib)   ...       0.00 

------------
INNER ENERGY
------------

The inner energy is: U= E(el) + E(ZPE) + E(vib) + E(rot) + E(trans)
    E(el)   - is the total energy from the electronic structure calculation
              = E(kin-el) + E(nuc-el) + E(el-el) + E(nuc-nuc)
    E(ZPE)  - the the zero temperature vibrational energy from the frequency calculation
    E(vib)  - the the finite temperature correction to E(ZPE) due to population
              of excited vibrational states
    E(rot)  - is the rotational thermal energy
    E(trans)- is the translational thermal energy

Summary of contributions to the inner energy U:
Electronic energy                ...   -284.25697419 Eh
Zero point energy                ...      0.07933479 Eh      49.78 kcal/mol
Thermal vibrational correction   ...      0.00298912 Eh       1.88 kcal/mol
Thermal rotational correction    ...      0.00141627 Eh       0.89 kcal/mol
Thermal translational correction ...      0.00141627 Eh       0.89 kcal/mol
-----------------------------------------------------------------------
Total thermal energy                   -284.17181773 Eh


Summary of corrections to the electronic energy:
(perhaps to be used in another calculation)
Total thermal correction                  0.00582167 Eh       3.65 kcal/mol
Non-thermal (ZPE) correction              0.07933479 Eh      49.78 kcal/mol
-----------------------------------------------------------------------
Total correction                          0.08515646 Eh      53.44 kcal/mol


--------
ENTHALPY
--------

The enthalpy is H = U + kB*T
                kB is Boltzmann's constant
Total free energy                 ...   -284.17181773 Eh 
Thermal Enthalpy correction       ...      0.00094421 Eh       0.59 kcal/mol
-----------------------------------------------------------------------
Total Enthalpy                    ...   -284.17087352 Eh


Note: Rotational entropy computed according to Herzberg 
Infrared and Raman Spectra, Chapter V,1, Van Nostrand Reinhold, 1945 
Point Group:  C1, Symmetry Number:   1  
Rotational constants in cm-1:     0.339366     0.132273     0.097892 

Vibrational entropy computed according to the QRRHO of S. Grimme
Chem.Eur.J. 2012 18 9955


-------
ENTROPY
-------

The entropy contributions are T*S = T*(S(el)+S(vib)+S(rot)+S(trans))
     S(el)   - electronic entropy
     S(vib)  - vibrational entropy
     S(rot)  - rotational entropy
     S(trans)- translational entropy
The entropies will be listed as mutliplied by the temperature to get
units of energy

Electronic entropy                ...      0.00000000 Eh      0.00 kcal/mol
Vibrational entropy               ...      0.00520901 Eh      3.27 kcal/mol
Rotational entropy                ...      0.01207306 Eh      7.58 kcal/mol
Translational entropy             ...      0.01846507 Eh     11.59 kcal/mol
-----------------------------------------------------------------------
Final entropy term                ...      0.03574714 Eh     22.43 kcal/mol


-------------------
GIBBS FREE ENTHALPY
-------------------

The Gibbs free enthalpy is G = H - T*S

Total enthalpy                    ...   -284.17087352 Eh 
Total entropy correction          ...     -0.03574714 Eh    -22.43 kcal/mol
-----------------------------------------------------------------------
Final Gibbs free enthalpy         ...   -284.20662066 Eh

For completeness - the Gibbs free enthalpy minus the electronic energy
G-E(el)                           ...      0.05035353 Eh     31.60 kcal/mol


Timings for individual modules:

Sum of individual times         ...      115.437 sec (=   1.924 min)
GTO integral calculation        ...        0.299 sec (=   0.005 min)   0.3 %
SCF iterations                  ...       11.005 sec (=   0.183 min)   9.5 %
Analytical frequency calculation...      104.133 sec (=   1.736 min)  90.2 %
                             ****ORCA TERMINATED NORMALLY****
TOTAL RUN TIME: 0 days 0 hours 1 minutes 55 seconds 711 msec
