
                                 *****************
                                 * O   R   C   A *
                                 *****************

           --- An Ab Initio, DFT and Semiempirical electronic structure package ---

                  #######################################################
                  #                        -***-                        #
                  #          Department of theory and spectroscopy      #
                  #               Directorship: Frank Neese             #
                  #        Max Planck Institute fuer Kohlenforschung    #
                  #                Kaiser Wilhelm Platz 1               #
                  #                 D-45470 Muelheim/Ruhr               #
                  #                      Germany                        #
                  #                                                     #
                  #                  All rights reserved                #
                  #                        -***-                        #
                  #######################################################


                         Program Version 4.1.0  - RELEASE  -


 With contributions from (in alphabetic order):
   Daniel Aravena         : Magnetic Properties
   Michael Atanasov       : Ab Initio Ligand Field Theory
   Alexander A. Auer      : GIAO ZORA
   Ute Becker             : Parallelization
   Giovanni Bistoni       : ED, Open-shell LED
   Martin Brehm           : Molecular dynamics
   Dmytro Bykov           : SCF Hessian
   Vijay G. Chilkuri      : MRCI spin determinant printing
   Dipayan Datta          : RHF DLPNO-CCSD density
   Achintya Kumar Dutta   : EOM-CC, STEOM-CC
   Dmitry Ganyushin       : Spin-Orbit,Spin-Spin,Magnetic field MRCI
   Miquel Garcia          : C-PCM Hessian
   Yang Guo               : DLPNO-NEVPT2, CIM, IAO-localization
   Andreas Hansen         : Spin unrestricted coupled pair/coupled cluster methods
   Benjamin Helmich-Paris : CASSCF linear response (MC-RPA)
   Lee Huntington         : MR-EOM, pCC
   Robert Izsak           : Overlap fitted RIJCOSX, COSX-SCS-MP3, EOM
   Christian Kollmar      : KDIIS, OOCD, Brueckner-CCSD(T), CCSD density
   Simone Kossmann        : Meta GGA functionals, TD-DFT gradient, OOMP2, MP2 Hessian
   Martin Krupicka        : AUTO-CI
   Lucas Lang             : DCDCAS
   Dagmar Lenk            : GEPOL surface, SMD
   Dimitrios Liakos       : Extrapolation schemes; parallel MDCI
   Dimitrios Manganas     : ROCIS; embedding schemes
   Dimitrios Pantazis     : SARC Basis sets
   Taras Petrenko         : DFT Hessian,TD-DFT gradient, ASA, ECA, R-Raman, ABS, FL, XAS/XES, NRVS
   Peter Pinski           : DLPNO-MP2, DLPNO-MP2 Gradient
   Christoph Reimann      : Effective Core Potentials
   Marius Retegan         : Local ZFS, SOC
   Christoph Riplinger    : Optimizer, TS searches, QM/MM, DLPNO-CCSD(T), (RO)-DLPNO pert. Triples
   Tobias Risthaus        : Range-separated hybrids, TD-DFT gradient, RPA, STAB
   Michael Roemelt        : Restricted open shell CIS
   Masaaki Saitow         : Open-shell DLPNO
   Barbara Sandhoefer     : DKH picture change effects
   Avijit Sen             : IP-ROCIS
   Kantharuban Sivalingam : CASSCF convergence, NEVPT2, FIC-MRCI
   Bernardo de Souza      : ESD, SOC TD-DFT
   Georgi Stoychev        : AutoAux, RI-MP2 NMR
   Willem Van den Heuvel  : Paramagnetic NMR
   Boris Wezisla          : Elementary symmetry handling
   Frank Wennmohs         : Technical directorship


 We gratefully acknowledge several colleagues who have allowed us to
 interface, adapt or use parts of their codes:
   Stefan Grimme, W. Hujo, H. Kruse,             : VdW corrections, initial TS optimization,
                  C. Bannwarth                     DFT functionals, gCP, sTDA/sTD-DF
   Ed Valeev                                     : LibInt (2-el integral package), F12 methods
   Garnet Chan, S. Sharma, J. Yang, R. Olivares  : DMRG
   Ulf Ekstrom                                   : XCFun DFT Library
   Mihaly Kallay                                 : mrcc  (arbitrary order and MRCC methods)
   Andreas Klamt, Michael Diedenhofen            : otool_cosmo (COSMO solvation model)
   Jiri Pittner, Ondrej Demel                    : Mk-CCSD
   Frank Weinhold                                : gennbo (NPA and NBO analysis)
   Christopher J. Cramer and Donald G. Truhlar   : smd solvation model
   Lars Goerigk                                  : TD-DFT with DH, B97 family of functionals
   V. Asgeirsson, H. Jonsson                     : NEB implementation
   FAccTs GmbH                                   : IRC, NEB, NEB-TS, Multilevel


 Your calculation uses the libint2 library for the computation of 2-el integrals
 For citations please refer to: http://libint.valeyev.net

 This ORCA versions uses:
   CBLAS   interface :  Fast vector & matrix operations
   LAPACKE interface :  Fast linear algebra routines
   SCALAPACK package :  Parallel linear algebra routines




***************************************
The coordinates will be read from file: /Users/lailaal-madhagi/Desktop/Testing_XAS_Analysis_code/Imidazole/Gas//Results_dir_Imidazole_geom_element_N_2019-11-03_16-54-11//GTE1_Imidazole_geom_2019-11-03_16-54-36//opt.xyz
***************************************


----- Orbital basis set information -----
Your calculation utilizes the basis: 6-31G*
   H-He, Li-Ne : W. J. Hehre, R. Ditchfield and J.A. Pople, J. Chem. Phys. 56, 2257 (1972).
                 Note: He and Ne are unpublished basis sets taken from the Gaussian program.
                 Note: Li and B from J. D. Dill and J. A. Pople, J. Chem. Phys. 62, 2921 (1975).
   Na - Ar     : M. M. Francl, W. J. Pietro, W. J. Hehre, J. S. Binkley, M. S. Gordon, 
                 D. J. DeFrees and J. A. Pople, J. Chem. Phys. 77, 3654 (1982).
   K - Zn      : V. A. Rassolov, J. A. Pople, M. A. Ratner, and T. L. Windus, J. Chem. Phys. 109, 1223 (1998).

================================================================================
                                        WARNINGS
                       Please study these warnings very carefully!
================================================================================

INFO   : Checking CIS options ...

WARNING: CIS/ROCIS methods need fully converged wavefunctions
  ===> : Setting SCFConvForced true
         You can overwrite this default with %scf ConvForced false 


INFO   : the flag for use of LIBINT has been found!

================================================================================
                                       INPUT FILE
================================================================================
NAME = /Users/lailaal-madhagi/Desktop/Testing_XAS_Analysis_code/Imidazole/Gas//Results_dir_Imidazole_geom_element_N_2019-11-03_16-54-11//GTE1_Imidazole_geom_2019-11-03_16-54-36//TDDFT_N-edge.inp
|  1> #This is N K-edge calculation 
|  2> ! B3LYP 6-31G* TIGHTSCF Grid3 FinalGrid5 
|  3> !NormalPrint 
|  4> %output 
|  5> Print[P_Basis] 2 
|  6> Print[P_MOS] 1 
|  7> end 
|  8> 
|  9> %tddft 
| 10> orbwin[0]=0,1,-1,-1 
| 11> nroots=20 
| 12> maxdim=200 
| 13> end 
| 14> *xyzfile 0 1 /Users/lailaal-madhagi/Desktop/Testing_XAS_Analysis_code/Imidazole/Gas//Results_dir_Imidazole_geom_element_N_2019-11-03_16-54-11//GTE1_Imidazole_geom_2019-11-03_16-54-36//opt.xyz                           ****END OF INPUT****
================================================================================

                       ****************************
                       * Single Point Calculation *
                       ****************************

---------------------------------
CARTESIAN COORDINATES (ANGSTROEM)
---------------------------------
  C    -11.833526    8.425053   -0.108041
  C    -10.471970    8.272937   -0.020046
  N    -12.335090    7.139108   -0.156058
  C    -11.266819    6.286903   -0.095629
  N    -10.127135    6.938150   -0.013120
  H    -13.308629    6.879801   -0.222830
  H    -12.474752    9.293294   -0.140305
  H     -9.718368    9.047132    0.038925
  H    -11.383941    5.211132   -0.115726

----------------------------
CARTESIAN COORDINATES (A.U.)
----------------------------
  NO LB      ZA    FRAG     MASS         X           Y           Z
   0 C     6.0000    0    12.011  -22.362124   15.921043   -0.204168
   1 C     6.0000    0    12.011  -19.789156   15.633586   -0.037882
   2 N     7.0000    0    14.007  -23.309942   13.490959   -0.294907
   3 C     6.0000    0    12.011  -21.291203   11.880525   -0.180713
   4 N     7.0000    0    14.007  -19.137511   13.111203   -0.024793
   5 H     1.0000    0     1.008  -25.149664   13.000940   -0.421088
   6 H     1.0000    0     1.008  -23.573864   17.561780   -0.265138
   7 H     1.0000    0     1.008  -18.365053   17.096602    0.073558
   8 H     1.0000    0     1.008  -21.512531    9.847612   -0.218691

--------------------------------
INTERNAL COORDINATES (ANGSTROEM)
--------------------------------
 C      0   0   0     0.000000000000     0.00000000     0.00000000
 C      1   0   0     1.372849671671     0.00000000     0.00000000
 N      1   2   0     1.381132409783   105.02430277     0.00000000
 C      3   1   2     1.367884304007   107.15302570     0.00000000
 N      4   3   1     1.315222613817   111.77822047     0.00000000
 H      3   1   2     1.009691316230   126.26837078   179.97014110
 H      1   2   3     1.079839180079   132.83864925   180.00601560
 H      2   1   3     1.082022555729   127.94898793   180.01931765
 H      4   3   1     1.082314717528   122.27006122   179.99057487

---------------------------
INTERNAL COORDINATES (A.U.)
---------------------------
 C      0   0   0     0.000000000000     0.00000000     0.00000000
 C      1   0   0     2.594309902502     0.00000000     0.00000000
 N      1   2   0     2.609962009173   105.02430277     0.00000000
 C      3   1   2     2.584926717463   107.15302570     0.00000000
 N      4   3   1     2.485410545254   111.77822047     0.00000000
 H      3   1   2     1.908040067472   126.26837078   179.97014110
 H      1   2   3     2.040600319028   132.83864925   180.00601560
 H      2   1   3     2.044726301054   127.94898793   180.01931765
 H      4   3   1     2.045278406841   122.27006122   179.99057487

---------------------
BASIS SET INFORMATION
---------------------
There are 3 groups of distinct atoms

 Group   1 Type C   : 10s4p1d contracted to 3s2p1d pattern {631/31/1}
 Group   2 Type N   : 10s4p1d contracted to 3s2p1d pattern {631/31/1}
 Group   3 Type H   : 4s contracted to 2s pattern {31}

Atom   0C    basis set group =>   1
Atom   1C    basis set group =>   1
Atom   2N    basis set group =>   2
Atom   3C    basis set group =>   1
Atom   4N    basis set group =>   2
Atom   5H    basis set group =>   3
Atom   6H    basis set group =>   3
Atom   7H    basis set group =>   3
Atom   8H    basis set group =>   3

-------------------------
BASIS SET IN INPUT FORMAT
-------------------------

 # Basis set for element : H 
 NewGTO H 
 S 3 
   1      18.7311370000      0.0334945995
   2       2.8253937000      0.2347269467
   3       0.6401217000      0.8137573184
 S 1 
   1       0.1612778000      1.0000000000
  end;

 # Basis set for element : C 
 NewGTO C 
 S 6 
   1    3047.5249000000      0.0018347002
   2     457.3695100000      0.0140373012
   3     103.9486900000      0.0688426061
   4      29.2101550000      0.2321844206
   5       9.2866630000      0.4679413416
   6       3.1639270000      0.3623120322
 S 3 
   1       7.8682724000     -0.1193324086
   2       1.8812885000     -0.1608542116
   3       0.5442493000      1.1434564826
 P 3 
   1       7.8682724000      0.0689990956
   2       1.8812885000      0.3164239798
   3       0.5442493000      0.7443082524
 S 1 
   1       0.1687144000      1.0000000000
 P 1 
   1       0.1687144000      1.0000000000
 D 1 
   1       0.8000000000      1.0000000000
  end;

 # Basis set for element : N 
 NewGTO N 
 S 6 
   1    4173.5110000000      0.0018347994
   2     627.4579000000      0.0139949958
   3     142.9021000000      0.0685869792
   4      40.2343300000      0.2322409295
   5      12.8202100000      0.4690698576
   6       4.3904370000      0.3604548906
 S 3 
   1      11.6263580000     -0.1149610229
   2       2.7162800000     -0.1691180337
   3       0.7722180000      1.1458522281
 P 3 
   1      11.6263580000      0.0675800232
   2       2.7162800000      0.3239071114
   3       0.7722180000      0.7408952549
 S 1 
   1       0.2120313000      1.0000000000
 P 1 
   1       0.2120313000      1.0000000000
 D 1 
   1       0.8000000000      1.0000000000
  end;

------------------------------------------------------------------------------
                           ORCA GTO INTEGRAL CALCULATION
------------------------------------------------------------------------------

                         BASIS SET STATISTICS AND STARTUP INFO

 # of primitive gaussian shells          ...   91
 # of primitive gaussian functions       ...  151
 # of contracted shells                  ...   38
 # of contracted basis functions         ...   78
 Highest angular momentum                ...    2
 Maximum contraction depth               ...    6
 Integral package used                   ... LIBINT
 Integral threshhold            Thresh   ...  2.500e-11
 Primitive cut-off              TCut     ...  2.500e-12


------------------------------ INTEGRAL EVALUATION ----------------------------


 * One electron integrals 
 Pre-screening matrix                    ... done
 Shell pair data                         ... done (   0.000 sec)

-------------------------------------------------------------------------------
                                 ORCA SCF
-------------------------------------------------------------------------------

------------
SCF SETTINGS
------------
Hamiltonian:
 Density Functional     Method          .... DFT(GTOs)
 Exchange Functional    Exchange        .... B88
   X-Alpha parameter    XAlpha          ....  0.666667
   Becke's b parameter  XBeta           ....  0.004200
 Correlation Functional Correlation     .... LYP
 LDA part of GGA corr.  LDAOpt          .... VWN-5
 Gradients option       PostSCFGGA      .... off
 Hybrid DFT is turned on
   Fraction HF Exchange ScalHFX         ....  0.200000
   Scaling of DF-GGA-X  ScalDFX         ....  0.720000
   Scaling of DF-GGA-C  ScalDFC         ....  0.810000
   Scaling of DF-LDA-C  ScalLDAC        ....  1.000000
   Perturbative correction              ....  0.000000
   Density functional embedding theory  .... OFF
   NL short-range parameter             ....  4.800000


General Settings:
 Integral files         IntName         .... /Users/lailaal-madhagi/Desktop/Testing_XAS_Analysis_code/Imidazole/Gas//Results_dir_Imidazole_geom_element_N_2019-11-03_16-54-11//GTE1_Imidazole_geom_2019-11-03_16-54-36//TDDFT_N-edge
 Hartree-Fock type      HFTyp           .... RHF
 Total Charge           Charge          ....    0
 Multiplicity           Mult            ....    1
 Number of Electrons    NEL             ....   36
 Basis Dimension        Dim             ....   78
 Nuclear Repulsion      ENuc            ....    162.9520618753 Eh

Convergence Acceleration:
 DIIS                   CNVDIIS         .... on
   Start iteration      DIISMaxIt       ....    12
   Startup error        DIISStart       ....  0.200000
   # of expansion vecs  DIISMaxEq       ....     5
   Bias factor          DIISBfac        ....   1.050
   Max. coefficient     DIISMaxC        ....  10.000
 Newton-Raphson         CNVNR           .... off
 SOSCF                  CNVSOSCF        .... on
   Start iteration      SOSCFMaxIt      ....   150
   Startup grad/error   SOSCFStart      ....  0.003300
 Level Shifting         CNVShift        .... on
   Level shift para.    LevelShift      ....    0.2500
   Turn off err/grad.   ShiftErr        ....    0.0010
 Zerner damping         CNVZerner       .... off
 Static damping         CNVDamp         .... on
   Fraction old density DampFac         ....    0.7000
   Max. Damping (<1)    DampMax         ....    0.9800
   Min. Damping (>=0)   DampMin         ....    0.0000
   Turn off err/grad.   DampErr         ....    0.1000
 Fernandez-Rico         CNVRico         .... off

SCF Procedure:
 Maximum # iterations   MaxIter         ....   125
 SCF integral mode      SCFMode         .... Direct
   Integral package                     .... LIBINT
 Reset frequency        DirectResetFreq ....    20
 Integral Threshold     Thresh          ....  2.500e-11 Eh
 Primitive CutOff       TCut            ....  2.500e-12 Eh

Convergence Tolerance:
 Convergence Check Mode ConvCheckMode   .... Total+1el-Energy
 Convergence forced     ConvForced      .... 1
 Energy Change          TolE            ....  1.000e-08 Eh
 1-El. energy change                    ....  1.000e-05 Eh
 Orbital Gradient       TolG            ....  1.000e-05
 Orbital Rotation angle TolX            ....  1.000e-05
 DIIS Error             TolErr          ....  5.000e-07


Diagonalization of the overlap matrix:
Smallest eigenvalue                        ... 2.103e-03
Time for diagonalization                   ...    0.001 sec
Threshold for overlap eigenvalues          ... 1.000e-08
Number of eigenvalues below threshold      ... 0
Time for construction of square roots      ...    0.001 sec
Total time needed                          ...    0.002 sec

-------------------
DFT GRID GENERATION
-------------------

General Integration Accuracy     IntAcc      ...  4.340
Radial Grid Type                 RadialGrid  ... Gauss-Chebyshev
Angular Grid (max. acc.)         AngularGrid ... Lebedev-194
Angular grid pruning method      GridPruning ... 3 (G Style)
Weight generation scheme         WeightScheme... Becke
Basis function cutoff            BFCut       ...    1.0000e-11
Integration weight cutoff        WCut        ...    1.0000e-14
Grids for H and He will be reduced by one unit

# of grid points (after initial pruning)     ...  22610 (   0.0 sec)
# of grid points (after weights+screening)   ...  21441 (   0.0 sec)
nearest neighbour list constructed           ...    0.0 sec
Grid point re-assignment to atoms done       ...    0.0 sec
Grid point division into batches done        ...    0.0 sec
Reduced shell lists constructed in    0.1 sec

Total number of grid points                  ...    21441
Total number of batches                      ...      341
Average number of points per batch           ...       62
Average number of grid points per atom       ...     2382
Average number of shells per batch           ...    30.33 (79.81%)
Average number of basis functions per batch  ...    64.80 (83.08%)
Average number of large shells per batch     ...    26.08 (86.01%)
Average number of large basis fcns per batch ...    56.18 (86.69%)
Maximum spatial batch extension              ...  19.24, 18.97, 21.54 au
Average spatial batch extension              ...   3.30,  3.23,  3.89 au

Time for grid setup =    0.115 sec

------------------------------
INITIAL GUESS: MODEL POTENTIAL
------------------------------
Loading Hartree-Fock densities                     ... done
Calculating cut-offs                               ... done
Setting up the integral package                    ... done
Initializing the effective Hamiltonian             ... done
Starting the Coulomb interaction                   ... done (   0.0 sec)
Reading the grid                                   ... done
Mapping shells                                     ... done
Starting the XC term evaluation                    ... done (   0.1 sec)
  promolecular density results
     # of electrons  =     35.998610085
     EX              =    -29.767763571
     EC              =     -1.217868549
     EX+EC           =    -30.985632120
Transforming the Hamiltonian                       ... done (   0.0 sec)
Diagonalizing the Hamiltonian                      ... done (   0.0 sec)
Back transforming the eigenvectors                 ... done (   0.0 sec)
Now organizing SCF variables                       ... done
                      ------------------
                      INITIAL GUESS DONE (   0.3 sec)
                      ------------------
--------------
SCF ITERATIONS
--------------
               ***  Starting incremental Fock matrix formation  ***

                         ----------------------------
                         !        ITERATION     0   !
                         ----------------------------
   Total Energy        :    -225.934247423786 Eh
   Energy Change       :    -225.934247423786 Eh
   MAX-DP              :       0.084386240140
   RMS-DP              :       0.003760336462
   Actual Damping      :       0.7000
   Actual Level Shift  :       0.2500 Eh
   Int. Num. El.       :    35.99996206 (UP=   17.99998103 DN=   17.99998103)
   Exchange            :   -24.37644666
   Correlation         :    -1.45513858


                         ----------------------------
                         !        ITERATION     1   !
                         ----------------------------
   Total Energy        :    -226.001038285085 Eh
   Energy Change       :      -0.066790861299 Eh
   MAX-DP              :       0.055678308675
   RMS-DP              :       0.002670530371
   Actual Damping      :       0.7000
   Actual Level Shift  :       0.2500 Eh
   Int. Num. El.       :    35.99996827 (UP=   17.99998414 DN=   17.99998414)
   Exchange            :   -24.20153595
   Correlation         :    -1.44818918

                               ***Turning on DIIS***

                         ----------------------------
                         !        ITERATION     2   !
                         ----------------------------
   Total Energy        :    -226.026891450626 Eh
   Energy Change       :      -0.025853165541 Eh
   MAX-DP              :       0.076536950191
   RMS-DP              :       0.004135876391
   Actual Damping      :       0.0000
   Actual Level Shift  :       0.2500 Eh
   Int. Num. El.       :    35.99997916 (UP=   17.99998958 DN=   17.99998958)
   Exchange            :   -24.08671543
   Correlation         :    -1.44337524
   DIIS-Error          :       0.037380639138


                         ----------------------------
                         !        ITERATION     3   !
                         ----------------------------
   Total Energy        :    -226.066077967402 Eh
   Energy Change       :      -0.039186516776 Eh
   MAX-DP              :       0.037844766492
   RMS-DP              :       0.001927467722
   Actual Damping      :       0.0000
   Actual Level Shift  :       0.2500 Eh
   Int. Num. El.       :    36.00001696 (UP=   18.00000848 DN=   18.00000848)
   Exchange            :   -23.91792045
   Correlation         :    -1.43589769
   DIIS-Error          :       0.049900334253
   DIIS coefficients:
      0.59682   0.40318


                         ----------------------------
                         !        ITERATION     4   !
                         ----------------------------
   Total Energy        :    -226.075888228955 Eh
   Energy Change       :      -0.009810261553 Eh
   MAX-DP              :       0.009112574897
   RMS-DP              :       0.000587047927
   Actual Damping      :       0.0000
   Actual Level Shift  :       0.2500 Eh
   Int. Num. El.       :    36.00001845 (UP=   18.00000923 DN=   18.00000923)
   Exchange            :   -23.98807236
   Correlation         :    -1.43898473
   DIIS-Error          :       0.012969594608
   DIIS coefficients:
      0.23771   0.04773   0.71456


                         ----------------------------
                         !        ITERATION     5   !
                         ----------------------------
   Total Energy        :    -226.076505515055 Eh
   Energy Change       :      -0.000617286099 Eh
   MAX-DP              :       0.002740851391
   RMS-DP              :       0.000184929743
   Actual Damping      :       0.0000
   Actual Level Shift  :       0.2500 Eh
   Int. Num. El.       :    36.00001198 (UP=   18.00000599 DN=   18.00000599)
   Exchange            :   -24.00439408
   Correlation         :    -1.43981932
   DIIS-Error          :       0.003537116567
   DIIS coefficients:
      0.06852  -0.00912   0.21691   0.72369

                      *** Initiating the SOSCF procedure ***
                           *** Shutting down DIIS ***
                      *** Re-Reading the Fockian *** 
                      *** Removing any level shift *** 

                         ----------------------------
                         !        ITERATION     6   !
                         ----------------------------
   Total Energy        :    -226.076548854731 Eh
   Energy Change       :      -0.000043339676 Eh
   MAX-DP              :       0.002073800337
   RMS-DP              :       0.000093232336
   Orbital gradient    :       0.000437024691
   Orbital Rotation    :       0.000437024691
   Actual Damping      :       0.0000
   Int. Num. El.       :    36.00001224 (UP=   18.00000612 DN=   18.00000612)
   Exchange            :   -24.00769155
   Correlation         :    -1.43994730

               *** Restarting incremental Fock matrix formation ***

                         ----------------------------
                         !        ITERATION     7   !
                         ----------------------------
   Total Energy        :    -226.076550633195 Eh
   Energy Change       :      -0.000001778464 Eh
   MAX-DP              :       0.001191138692
   RMS-DP              :       0.000039256047
   Orbital gradient    :       0.000311395734
   Orbital Rotation    :       0.000681125639
   Actual Damping      :       0.0000
   Int. Num. El.       :    36.00001251 (UP=   18.00000625 DN=   18.00000625)
   Exchange            :   -24.00846257
   Correlation         :    -1.43997194


                         ----------------------------
                         !        ITERATION     8   !
                         ----------------------------
   Total Energy        :    -226.076549368866 Eh
   Energy Change       :       0.000001264329 Eh
   MAX-DP              :       0.000694002066
   RMS-DP              :       0.000023777673
   Orbital gradient    :       0.000487581011
   Orbital Rotation    :       0.000418921672
   Actual Damping      :       0.0000
   Int. Num. El.       :    36.00001265 (UP=   18.00000632 DN=   18.00000632)
   Exchange            :   -24.00766259
   Correlation         :    -1.43995047


                         ----------------------------
                         !        ITERATION     9   !
                         ----------------------------
   Total Energy        :    -226.076551607468 Eh
   Energy Change       :      -0.000002238603 Eh
   MAX-DP              :       0.000091675377
   RMS-DP              :       0.000003093908
   Orbital gradient    :       0.000019335758
   Orbital Rotation    :       0.000072030818
   Actual Damping      :       0.0000
   Int. Num. El.       :    36.00001264 (UP=   18.00000632 DN=   18.00000632)
   Exchange            :   -24.00816335
   Correlation         :    -1.43996454


                         ----------------------------
                         !        ITERATION    10   !
                         ----------------------------
   Total Energy        :    -226.076551601776 Eh
   Energy Change       :       0.000000005692 Eh
   MAX-DP              :       0.000059630878
   RMS-DP              :       0.000001828626
   Orbital gradient    :       0.000032377815
   Orbital Rotation    :       0.000046685414
   Actual Damping      :       0.0000
   Int. Num. El.       :    36.00001265 (UP=   18.00000632 DN=   18.00000632)
   Exchange            :   -24.00814180
   Correlation         :    -1.43996330

                  ***Gradient check signals convergence***
              ***Rediagonalizing the Fockian in SOSCF/NRSCF***

               *****************************************************
               *                     SUCCESS                       *
               *           SCF CONVERGED AFTER  11 CYCLES          *
               *****************************************************

Setting up the final grid:

General Integration Accuracy     IntAcc      ...  5.010
Radial Grid Type                 RadialGrid  ... Gauss-Chebyshev
Angular Grid (max. acc.)         AngularGrid ... Lebedev-434
Angular grid pruning method      GridPruning ... 3 (G Style)
Weight generation scheme         WeightScheme... Becke
Basis function cutoff            BFCut       ...    1.0000e-11
Integration weight cutoff        WCut        ...    1.0000e-14
Grids for H and He will be reduced by one unit

# of grid points (after initial pruning)     ...  80042 (   0.0 sec)
# of grid points (after weights+screening)   ...  75371 (   0.1 sec)
nearest neighbour list constructed           ...    0.0 sec
Grid point re-assignment to atoms done       ...    0.0 sec
Grid point division into batches done        ...    0.4 sec
Reduced shell lists constructed in    0.6 sec

Total number of grid points                  ...    75371
Total number of batches                      ...     1182
Average number of points per batch           ...       63
Average number of grid points per atom       ...     8375
Average number of shells per batch           ...    28.24 (74.32%)
Average number of basis functions per batch  ...    60.36 (77.39%)
Average number of large shells per batch     ...    23.80 (84.27%)
Average number of large basis fcns per batch ...    51.14 (84.72%)
Maximum spatial batch extension              ...  20.82, 17.62, 19.91 au
Average spatial batch extension              ...   2.28,  2.24,  2.46 au

Final grid set up in    0.7 sec
Final integration                            ... done (   0.4 sec)
Change in XC energy                          ...    -0.000080777
Integrated number of electrons               ...    35.999996448
Previous integrated no of electrons          ...    36.000012639

----------------
TOTAL SCF ENERGY
----------------

Total Energy       :         -226.07663239 Eh           -6151.85792 eV

Components:
Nuclear Repulsion  :          162.95206188 Eh            4434.15103 eV
Electronic Energy  :         -389.02869426 Eh          -10586.00895 eV
One Electron Energy:         -627.65211195 Eh          -17079.28226 eV
Two Electron Energy:          238.62341769 Eh            6493.27331 eV

Virial components:
Potential Energy   :         -450.80215359 Eh          -12266.95024 eV
Kinetic Energy     :          224.72552120 Eh            6115.09232 eV
Virial Ratio       :            2.00601227


DFT components:
N(Alpha)           :       17.999998224048 electrons
N(Beta)            :       17.999998224048 electrons
N(Total)           :       35.999996448096 electrons
E(X)               :      -24.008224531989 Eh       
E(C)               :       -1.439968319272 Eh       
E(XC)              :      -25.448192851261 Eh       
DFET-embed. en.    :        0.000000000000 Eh       

---------------
SCF CONVERGENCE
---------------

  Last Energy change         ...   -9.6742e-09  Tolerance :   1.0000e-08
  Last MAX-Density change    ...    8.7714e-06  Tolerance :   1.0000e-07
  Last RMS-Density change    ...    3.4502e-07  Tolerance :   5.0000e-09
  Last Orbital Gradient      ...    1.9632e-06  Tolerance :   1.0000e-05
  Last Orbital Rotation      ...    4.4996e-06  Tolerance :   1.0000e-05

             **** THE GBW FILE WAS UPDATED (/Users/lailaal-madhagi/Desktop/Testing_XAS_Analysis_code/Imidazole/Gas//Results_dir_Imidazole_geom_element_N_2019-11-03_16-54-11//GTE1_Imidazole_geom_2019-11-03_16-54-36//TDDFT_N-edge.gbw) ****
             **** DENSITY FILE WAS UPDATED (/Users/lailaal-madhagi/Desktop/Testing_XAS_Analysis_code/Imidazole/Gas//Results_dir_Imidazole_geom_element_N_2019-11-03_16-54-11//GTE1_Imidazole_geom_2019-11-03_16-54-36//TDDFT_N-edge.scfp.tmp) ****
             **** ENERGY FILE WAS UPDATED (/Users/lailaal-madhagi/Desktop/Testing_XAS_Analysis_code/Imidazole/Gas//Results_dir_Imidazole_geom_element_N_2019-11-03_16-54-11//GTE1_Imidazole_geom_2019-11-03_16-54-36//TDDFT_N-edge.en.tmp) ****
----------------
ORBITAL ENERGIES
----------------

  NO   OCC          E(Eh)            E(eV) 
   0   2.0000     -14.381517      -391.3410 
   1   2.0000     -14.300089      -389.1252 
   2   2.0000     -10.226008      -278.2638 
   3   2.0000     -10.202641      -277.6280 
   4   2.0000     -10.183074      -277.0955 
   5   2.0000      -1.004199       -27.3257 
   6   2.0000      -0.860925       -23.4270 
   7   2.0000      -0.734054       -19.9746 
   8   2.0000      -0.609135       -16.5754 
   9   2.0000      -0.581206       -15.8154 
  10   2.0000      -0.554812       -15.0972 
  11   2.0000      -0.432934       -11.7807 
  12   2.0000      -0.430904       -11.7255 
  13   2.0000      -0.420445       -11.4409 
  14   2.0000      -0.398436       -10.8420 
  15   2.0000      -0.272878        -7.4254 
  16   2.0000      -0.258434        -7.0323 
  17   2.0000      -0.221412        -6.0249 
  18   0.0000       0.036685         0.9982 
  19   0.0000       0.075763         2.0616 
  20   0.0000       0.078877         2.1463 
  21   0.0000       0.137269         3.7353 
  22   0.0000       0.153921         4.1884 
  23   0.0000       0.173762         4.7283 
  24   0.0000       0.225854         6.1458 
  25   0.0000       0.245761         6.6875 
  26   0.0000       0.313601         8.5335 
  27   0.0000       0.353667         9.6238 
  28   0.0000       0.460996        12.5444 
  29   0.0000       0.528494        14.3811 
  30   0.0000       0.544703        14.8221 
  31   0.0000       0.565902        15.3990 
  32   0.0000       0.591377        16.0922 
  33   0.0000       0.617471        16.8022 
  34   0.0000       0.638703        17.3800 
  35   0.0000       0.647104        17.6086 
  36   0.0000       0.661864        18.0102 
  37   0.0000       0.677222        18.4281 
  38   0.0000       0.761847        20.7309 
  39   0.0000       0.807201        21.9651 
  40   0.0000       0.830568        22.6009 
  41   0.0000       0.835043        22.7227 
  42   0.0000       0.845543        23.0084 
  43   0.0000       0.870391        23.6845 
  44   0.0000       0.909456        24.7476 
  45   0.0000       0.924516        25.1574 
  46   0.0000       1.002010        27.2661 
  47   0.0000       1.038819        28.2677 
  48   0.0000       1.189934        32.3798 
  49   0.0000       1.260974        34.3128 
  50   0.0000       1.313380        35.7389 
  51   0.0000       1.330952        36.2171 
  52   0.0000       1.370052        37.2810 
  53   0.0000       1.393460        37.9180 
  54   0.0000       1.484001        40.3817 
  55   0.0000       1.558975        42.4219 
  56   0.0000       1.559178        42.4274 
  57   0.0000       1.573234        42.8099 
  58   0.0000       1.756715        47.8026 
  59   0.0000       1.884504        51.2800 
  60   0.0000       1.991026        54.1786 
  61   0.0000       2.033804        55.3426 
  62   0.0000       2.080674        56.6180 
  63   0.0000       2.110952        57.4419 
  64   0.0000       2.212313        60.2001 
  65   0.0000       2.249408        61.2095 
  66   0.0000       2.285687        62.1967 
  67   0.0000       2.299181        62.5639 
  68   0.0000       2.335041        63.5397 
  69   0.0000       2.416532        65.7572 
  70   0.0000       2.567167        69.8562 
  71   0.0000       2.598031        70.6960 
  72   0.0000       2.613527        71.1177 
  73   0.0000       2.698744        73.4366 
  74   0.0000       2.742412        74.6248 
  75   0.0000       2.955770        80.4306 
  76   0.0000       3.000864        81.6577 
  77   0.0000       3.060790        83.2883 
------------------
MOLECULAR ORBITALS
------------------
                      0         1         2         3         4         5   
                 -14.38152 -14.30009 -10.22601 -10.20264 -10.18307  -1.00420
                   2.00000   2.00000   2.00000   2.00000   2.00000   2.00000
                  --------  --------  --------  --------  --------  --------
  0C   1s        -0.000038  0.000064 -0.000000  0.994908  0.014358  0.076553
  0C   2s         0.000816  0.000335  0.000336  0.035642  0.002114 -0.145775
  0C   1pz       -0.000003 -0.000027  0.000027 -0.000022  0.000105  0.000674
  0C   1px       -0.000032 -0.000391  0.000376 -0.000007  0.001584 -0.006141
  0C   1py       -0.000095 -0.000148  0.000232 -0.001835  0.000095  0.092438
  0C   3s        -0.013406 -0.006994 -0.002823 -0.019289 -0.009643 -0.029151
  0C   2pz       -0.000083 -0.000145 -0.000115 -0.000161 -0.000236  0.000466
  0C   2px       -0.002689 -0.003067 -0.002312 -0.002296 -0.003673  0.010746
  0C   2py        0.008149  0.004890  0.003220 -0.000803  0.000489 -0.020313
  0C   1dz2      -0.000158  0.000043  0.000253 -0.000987 -0.000691  0.010430
  0C   1dxz      -0.000011 -0.000013 -0.000016  0.000101  0.000150 -0.000740
  0C   1dyz       0.000051  0.000003 -0.000002  0.000022 -0.000019 -0.000397
  0C   1dx2y2    -0.000546 -0.000132  0.000184 -0.000192  0.001124  0.007168
  0C   1dxy       0.000629  0.000041  0.000081 -0.000011 -0.000302 -0.001555
  1C   1s        -0.000047  0.000058  0.000047  0.014290 -0.994932  0.061005
  1C   2s        -0.000289 -0.000717  0.000324 -0.001034 -0.035811 -0.112395
  1C   1pz       -0.000021 -0.000006 -0.000019  0.000096  0.000060  0.003164
  1C   1px       -0.000359 -0.000119 -0.000335  0.001521  0.000677  0.037032
  1C   1py        0.000256  0.000108  0.000241 -0.000398  0.001305  0.061455
  1C   3s         0.007022  0.014545 -0.000337  0.006547  0.021929 -0.061465
  1C   2pz       -0.000263 -0.000340  0.000104 -0.000160 -0.000260  0.000988
  1C   2px       -0.003405 -0.003675  0.001182 -0.002639 -0.004010  0.014190
  1C   2py       -0.003285 -0.008284  0.002231  0.001229  0.000352  0.004492
  1C   1dz2       0.000006  0.000192  0.000216  0.000640  0.000937  0.008834
  1C   1dxz       0.000006  0.000033 -0.000015 -0.000142 -0.000102 -0.000825
  1C   1dyz      -0.000015  0.000026 -0.000015  0.000010 -0.000009 -0.000419
  1C   1dx2y2     0.000141  0.000722  0.000166 -0.001071  0.000055  0.003382
  1C   1dxy      -0.000196  0.000579 -0.000137  0.000161  0.000168 -0.003002
  2N   1s        -0.995282  0.000111 -0.000133  0.000135 -0.000048  0.148260
  2N   2s        -0.033277 -0.000249 -0.000523  0.000456 -0.000491 -0.304739
  2N   1pz       -0.000054 -0.000009  0.000021 -0.000016 -0.000008 -0.004420
  2N   1px       -0.000776 -0.000186  0.000452 -0.000115 -0.000118 -0.065294
  2N   1py       -0.000185  0.000252 -0.000754 -0.000678 -0.000042 -0.008802
  2N   3s         0.029786 -0.000175  0.004301 -0.003648  0.005128 -0.317955
  2N   2pz        0.000519 -0.000051  0.000399 -0.000325  0.000196 -0.003104
  2N   2px        0.007457 -0.000954  0.005912 -0.004609  0.002992 -0.045560
  2N   2py        0.002363  0.001000  0.000909 -0.001920 -0.000112 -0.009123
  2N   1dz2      -0.000027 -0.000183 -0.001153  0.001146  0.000012  0.014202
  2N   1dxz      -0.000001  0.000019  0.000136 -0.000076 -0.000009 -0.002064
  2N   1dyz       0.000004  0.000023 -0.000071 -0.000097 -0.000011 -0.000367
  2N   1dx2y2    -0.000072 -0.000083  0.000308  0.001006 -0.000081 -0.006305
  2N   1dxy       0.000036  0.000277 -0.001382 -0.000940 -0.000180 -0.002329
  3C   1s        -0.000077  0.000150 -0.994950 -0.000173  0.000127  0.100366
  3C   2s         0.000628 -0.000676 -0.035223 -0.000498  0.000582 -0.194563
  3C   1pz       -0.000004 -0.000032 -0.000004 -0.000001  0.000008 -0.000150
  3C   1px       -0.000074 -0.000446  0.000262 -0.000015  0.000118  0.015843
  3C   1py        0.000087 -0.000237 -0.001810 -0.000003  0.000001 -0.102696
  3C   3s        -0.010671  0.011681  0.010910  0.006573 -0.006229 -0.028656
  3C   2pz        0.000046  0.000307 -0.000098  0.000182 -0.000084  0.000795
  3C   2px        0.001842  0.003517 -0.000797  0.001574 -0.000107  0.005599
  3C   2py       -0.006528  0.006589 -0.003924  0.006832 -0.006608  0.037568
  3C   1dz2      -0.000216  0.000435  0.001292 -0.000370  0.000350  0.013294
  3C   1dxz       0.000035 -0.000109 -0.000163  0.000033 -0.000031 -0.001405
  3C   1dyz      -0.000055 -0.000063 -0.000026  0.000010 -0.000005 -0.000094
  3C   1dx2y2     0.000305 -0.000724 -0.000226 -0.000141  0.000132  0.001230
  3C   1dxy      -0.000842 -0.000946 -0.000035  0.000020  0.000054  0.002881
  4N   1s         0.000122  0.995362 -0.000054  0.000043 -0.000125  0.086246
  4N   2s         0.000197  0.033450 -0.000296  0.000405 -0.000490 -0.172435
  4N   1pz       -0.000017 -0.000165 -0.000073  0.000003 -0.000007  0.005658
  4N   1px       -0.000227 -0.002665 -0.000999  0.000055 -0.000235  0.089914
  4N   1py       -0.000199  0.000830 -0.000662 -0.000024  0.000727 -0.021495
  4N   3s         0.000962 -0.031583  0.004784 -0.005234  0.003851 -0.169707
  4N   2pz       -0.000074  0.000542 -0.000220  0.000160 -0.000132  0.002704
  4N   2px       -0.000981  0.008980 -0.003450  0.002345 -0.002278  0.042919
  4N   2py       -0.000747 -0.004132  0.000596  0.000465  0.001454 -0.009893
  4N   1dz2       0.000161  0.000114 -0.001096 -0.000040 -0.001128  0.007801
  4N   1dxz      -0.000003 -0.000014  0.000187  0.000001  0.000052 -0.001184
  4N   1dyz       0.000005  0.000029  0.000074 -0.000006 -0.000011 -0.000031
  4N   1dx2y2     0.000209 -0.000092  0.000770 -0.000028 -0.001035 -0.004608
  4N   1dxy       0.000154  0.000468  0.000924 -0.000115 -0.000710  0.001132
  5H   1s         0.000978 -0.000215  0.000770 -0.000617  0.000209 -0.067730
  5H   2s        -0.001577  0.000052  0.001522 -0.001309  0.000556 -0.004768
  6H   1s         0.000047 -0.000268 -0.000190 -0.001532  0.000208 -0.018025
  6H   2s        -0.002098 -0.001739 -0.001640  0.004341  0.000086  0.009692
  7H   1s         0.000239 -0.000094 -0.000158 -0.000319  0.001498 -0.012580
  7H   2s         0.001159  0.002131 -0.001181 -0.000254 -0.003674 -0.001262
  8H   1s         0.000114 -0.000081  0.001418  0.000287 -0.000270 -0.023794
  8H   2s        -0.001563  0.001724 -0.005484  0.002564 -0.002413  0.014682
                      6         7         8         9        10        11   
                  -0.86092  -0.73405  -0.60914  -0.58121  -0.55481  -0.43293
                   2.00000   2.00000   2.00000   2.00000   2.00000   2.00000
                  --------  --------  --------  --------  --------  --------
  0C   1s         0.030668 -0.141361 -0.068612  0.044575  0.062569  0.017111
  0C   2s        -0.062355  0.282273  0.137306 -0.096303 -0.125107 -0.027504
  0C   1pz        0.005763  0.003653  0.002585  0.015043 -0.000343 -0.016868
  0C   1px        0.078118  0.057920  0.043672  0.219889  0.037036 -0.215470
  0C   1py        0.053051 -0.013584 -0.023432  0.045675 -0.239059 -0.226985
  0C   3s        -0.013741  0.183202  0.121258 -0.041816 -0.134421 -0.045767
  0C   2pz        0.000651  0.000036  0.000766  0.004814  0.001242 -0.005232
  0C   2px        0.013434 -0.003681  0.010761  0.075668  0.030883 -0.068396
  0C   2py       -0.020065  0.022700  0.005095 -0.014457 -0.066515 -0.063356
  0C   1dz2       0.003744 -0.010610 -0.004725  0.004549  0.001434 -0.002411
  0C   1dxz       0.000031  0.001439 -0.000149  0.000002 -0.000842 -0.000348
  0C   1dyz      -0.000790 -0.000152 -0.000455 -0.000451  0.000495  0.001346
  0C   1dx2y2     0.008613  0.004166 -0.008699  0.008605 -0.011227 -0.012570
  0C   1dxy      -0.009339 -0.004820 -0.009947 -0.003954  0.005888  0.017391
  1C   1s        -0.073911 -0.111938  0.047858 -0.114480  0.020209 -0.008417
  1C   2s         0.143847  0.220405 -0.099354  0.232430 -0.038597  0.016273
  1C   1pz        0.000692 -0.005394 -0.010294  0.003186 -0.001531  0.018072
  1C   1px        0.028444 -0.087498 -0.169535  0.030748  0.005186  0.273010
  1C   1py       -0.100282  0.031177  0.075164  0.096128 -0.157478  0.004310
  1C   3s         0.051902  0.170669 -0.095888  0.177032 -0.058352  0.054528
  1C   2pz        0.000608 -0.000878 -0.002131  0.002906 -0.000164  0.005681
  1C   2px        0.006527 -0.014191 -0.033960  0.036288  0.005523  0.089866
  1C   2py        0.015338  0.007226  0.008321  0.045803 -0.048251 -0.017692
  1C   1dz2      -0.008759 -0.008020  0.004298 -0.005228 -0.000550 -0.002045
  1C   1dxz       0.000097  0.001556  0.000275  0.000991 -0.000239  0.000217
  1C   1dyz       0.000263  0.000145  0.000082  0.000530  0.000257  0.000412
  1C   1dx2y2    -0.013521  0.009324  0.010809  0.004584 -0.005024 -0.001275
  1C   1dxy      -0.001169  0.001303  0.004563  0.007147  0.002884  0.005324
  2N   1s         0.128644  0.026248  0.042367 -0.000987 -0.031352 -0.013117
  2N   2s        -0.276801 -0.060027 -0.092118  0.002127  0.075274  0.040792
  2N   1pz        0.003594  0.002859  0.023796  0.003729  0.014777  0.011316
  2N   1px        0.057167  0.007378  0.354858  0.105917  0.214216  0.120843
  2N   1py       -0.012023  0.204749  0.043871 -0.279396  0.060998  0.296906
  2N   3s        -0.292356 -0.056573 -0.128207 -0.002889  0.089006  0.018321
  2N   2pz        0.001695  0.001829  0.011013  0.001708  0.006461  0.003639
  2N   2px        0.027059  0.012607  0.163293  0.048924  0.093616  0.028789
  2N   2py       -0.007621  0.086518  0.022759 -0.132767  0.025391  0.154529
  2N   1dz2       0.008064  0.000671  0.003700  0.000423  0.001865  0.003729
  2N   1dxz      -0.001059 -0.000384 -0.001243  0.000038  0.000170 -0.001585
  2N   1dyz      -0.000460  0.000740 -0.000394 -0.000220  0.000067 -0.000235
  2N   1dx2y2    -0.001334 -0.006492 -0.011366  0.001751  0.005299 -0.016614
  2N   1dxy      -0.004764  0.010273 -0.006858 -0.002870  0.002507 -0.005363
  3C   1s        -0.038741  0.113256 -0.088062 -0.028533  0.064765 -0.012482
  3C   2s         0.075967 -0.232574  0.182824  0.058775 -0.130921  0.019939
  3C   1pz        0.011588  0.000919 -0.002665 -0.017457 -0.002437 -0.006319
  3C   1px        0.170321  0.012783 -0.042143 -0.259586 -0.081304 -0.054035
  3C   1py        0.033060  0.006730  0.009936 -0.033916  0.252465 -0.238181
  3C   3s         0.036579 -0.152756  0.148824  0.020868 -0.152101  0.088241
  3C   2pz        0.000553  0.000626 -0.000742 -0.004450  0.000706 -0.001741
  3C   2px        0.008526  0.006222 -0.009474 -0.063014 -0.002364 -0.018066
  3C   2py       -0.000477  0.018489 -0.008625 -0.025467  0.074596 -0.046525
  3C   1dz2      -0.004025  0.008687 -0.006020 -0.002345  0.001614 -0.001283
  3C   1dxz       0.000646 -0.001411 -0.000240 -0.000205 -0.000385 -0.001183
  3C   1dyz       0.001540 -0.000097 -0.000275 -0.000793 -0.000728  0.000033
  3C   1dx2y2    -0.001106 -0.006332 -0.012627 -0.004767 -0.001166 -0.019591
  3C   1dxy       0.021976  0.000028 -0.008182 -0.013598 -0.010810 -0.003258
  4N   1s        -0.147276  0.029767  0.066769  0.063022  0.002769 -0.000919
  4N   2s         0.308762 -0.065714 -0.149775 -0.146062 -0.004868  0.004729
  4N   1pz       -0.006258  0.004911 -0.006572  0.006104  0.000416  0.011798
  4N   1px       -0.102482  0.054453 -0.074040  0.067797 -0.017636  0.164283
  4N   1py        0.040307  0.113805 -0.144235  0.139978  0.135377  0.083373
  4N   3s         0.291373 -0.067027 -0.166227 -0.115304 -0.022256 -0.030919
  4N   2pz       -0.002152  0.001424 -0.002359  0.000571 -0.000203  0.006129
  4N   2px       -0.037292  0.015793 -0.027931 -0.000041 -0.010938  0.089712
  4N   2py        0.025075  0.032150 -0.044859  0.047146  0.046102  0.017788
  4N   1dz2      -0.007448 -0.000523 -0.001206 -0.002106 -0.001901  0.002683
  4N   1dxz       0.000742 -0.000606  0.000999 -0.000302  0.000371 -0.001313
  4N   1dyz       0.000089 -0.000648  0.000188 -0.000379 -0.000820  0.000565
  4N   1dx2y2    -0.001445 -0.008030  0.012211 -0.006820  0.004478 -0.016386
  4N   1dxy      -0.001217 -0.011460  0.004670 -0.007661 -0.012229  0.006481
  5H   1s        -0.106735 -0.046577 -0.223816 -0.015710 -0.091709 -0.124365
  5H   2s        -0.008622 -0.006878 -0.086895 -0.007212 -0.050607 -0.101117
  6H   1s        -0.017620  0.083527  0.040622 -0.082629 -0.161519 -0.059007
  6H   2s         0.004366  0.014209  0.013624 -0.034625 -0.088405 -0.051862
  7H   1s         0.026034  0.061737 -0.064627  0.136463 -0.065908  0.123326
  7H   2s        -0.002172  0.013354 -0.027214  0.054170 -0.035144  0.097011
  8H   1s         0.008219 -0.080990  0.074468  0.053390 -0.173424  0.166696
  8H   2s        -0.001449 -0.017540  0.029263  0.026204 -0.093478  0.142941
                     12        13        14        15        16        17   
                  -0.43090  -0.42044  -0.39844  -0.27288  -0.25843  -0.22141
                   2.00000   2.00000   2.00000   2.00000   2.00000   2.00000
                  --------  --------  --------  --------  --------  --------
  0C   1s         0.008304 -0.000017 -0.028796 -0.000035  0.029275 -0.000002
  0C   2s        -0.008151  0.000022  0.059019  0.000055 -0.064968  0.000024
  0C   1pz        0.015733  0.213514  0.004872  0.095734 -0.009216  0.372919
  0C   1px        0.276591 -0.014571  0.075283 -0.006196 -0.143227 -0.024576
  0C   1py       -0.247779 -0.002115 -0.003612 -0.001162  0.014344 -0.004331
  0C   3s        -0.073969 -0.000040  0.119959  0.000450 -0.184466 -0.000288
  0C   2pz        0.004348  0.103939  0.001818  0.064755 -0.006783  0.292066
  0C   2px        0.071410 -0.007122  0.032296 -0.004095 -0.098176 -0.019465
  0C   2py       -0.042719 -0.000995 -0.023724 -0.000713 -0.030101 -0.003137
  0C   1dz2       0.003972 -0.000186  0.000094 -0.002019 -0.001595  0.001502
  0C   1dxz       0.000518  0.001337  0.000191 -0.015439  0.000170  0.012673
  0C   1dyz       0.001050 -0.016551 -0.000901 -0.012155 -0.000361  0.002068
  0C   1dx2y2     0.011280 -0.000302  0.005393  0.000880  0.001083 -0.000812
  0C   1dxy       0.019494  0.001046 -0.012692  0.000990 -0.005567 -0.000286
  1C   1s        -0.035192  0.000060 -0.000103  0.000043 -0.027717 -0.000012
  1C   2s         0.071605 -0.000145  0.010047 -0.000085  0.068506  0.000030
  1C   1pz       -0.012994  0.168879 -0.015708 -0.225654  0.006347  0.320842
  1C   1px       -0.218414 -0.010747 -0.174998  0.014762  0.123177 -0.021157
  1C   1py        0.095612 -0.002181 -0.344017  0.002822 -0.127131 -0.003787
  1C   3s         0.093575  0.000078 -0.020304 -0.000272  0.077050  0.000313
  1C   2pz       -0.004747  0.086482 -0.002349 -0.163653 -0.002098  0.223437
  1C   2px       -0.078920 -0.005728 -0.016255  0.011077 -0.028210 -0.015010
  1C   2py        0.024729 -0.001288 -0.110501  0.002044 -0.005010 -0.003052
  1C   1dz2       0.000622 -0.001117  0.001697 -0.000368 -0.002953 -0.001620
  1C   1dxz       0.000841 -0.007807 -0.000595 -0.006374 -0.000455 -0.015485
  1C   1dyz       0.000577 -0.010465 -0.001557  0.017212  0.001624  0.008032
  1C   1dx2y2     0.011977  0.000372 -0.001790  0.000636 -0.015626  0.001115
  1C   1dxy       0.011338  0.000761 -0.023380 -0.001075  0.020625 -0.000352
  2N   1s         0.001622  0.000011  0.024188 -0.000021  0.026179  0.000005
  2N   2s        -0.011878 -0.000025 -0.056270  0.000053 -0.063905 -0.000024
  2N   1pz       -0.008938  0.377832 -0.004906  0.395413 -0.005283 -0.107863
  2N   1px       -0.176894 -0.024545 -0.070135 -0.025870 -0.100122  0.007061
  2N   1py        0.177229 -0.004627 -0.024972 -0.004628  0.075164  0.001231
  2N   3s         0.028889  0.000033 -0.130488  0.000172 -0.168649  0.000088
  2N   2pz       -0.002515  0.246892 -0.002739  0.322976 -0.001517 -0.095525
  2N   2px       -0.061396 -0.016021 -0.037941 -0.021082 -0.043759  0.006290
  2N   2py        0.096283 -0.003028 -0.020805 -0.003850  0.087896  0.001177
  2N   1dz2      -0.002733  0.001246 -0.001784 -0.000507 -0.002971  0.000111
  2N   1dxz       0.001130  0.010499 -0.000088 -0.005194  0.000763 -0.003124
  2N   1dyz       0.000944  0.001594  0.000409  0.003801 -0.000281  0.023180
  2N   1dx2y2     0.009493 -0.000693 -0.005252  0.000380  0.007215  0.000470
  2N   1dxy       0.015081 -0.000260  0.004770 -0.000192 -0.003968 -0.001489
  3C   1s        -0.000991 -0.000003  0.013959  0.000035 -0.038878  0.000003
  3C   2s        -0.003579  0.000009 -0.039466 -0.000095  0.100009 -0.000007
  3C   1pz        0.011939  0.256792 -0.012953 -0.098006  0.008429 -0.336476
  3C   1px        0.201223 -0.017222 -0.155360  0.006308  0.122389  0.022118
  3C   1py       -0.147436 -0.002763 -0.237478  0.001084  0.041955  0.003873
  3C   3s         0.004164 -0.000054 -0.046593 -0.000190  0.073471  0.000011
  3C   2pz        0.004110  0.127190 -0.006486 -0.080289 -0.002349 -0.252624
  3C   2px        0.066427 -0.008438 -0.087675  0.005289 -0.036853  0.016534
  3C   2py       -0.040058 -0.001435 -0.061670  0.000912  0.015715  0.002865
  3C   1dz2       0.000293 -0.000120 -0.001573 -0.003425  0.000390  0.000065
  3C   1dxz      -0.000349 -0.004119 -0.001051 -0.029569 -0.001366  0.000953
  3C   1dyz       0.000805  0.017299  0.000651 -0.002022  0.001527 -0.002242
  3C   1dx2y2    -0.006538  0.000478 -0.019697  0.001950 -0.022923 -0.000090
  3C   1dxy       0.010748 -0.001103  0.005970  0.000459  0.019353  0.000139
  4N   1s         0.026226 -0.000031 -0.006375 -0.000100  0.084393  0.000000
  4N   2s        -0.060272  0.000091  0.011899  0.000200 -0.177684  0.000018
  4N   1pz       -0.006717  0.211225  0.009555 -0.407619 -0.029175 -0.117857
  4N   1px       -0.079380 -0.013764  0.093074  0.027330 -0.474609  0.007740
  4N   1py       -0.155564 -0.002189  0.295911  0.004545  0.213872  0.001421
  4N   3s        -0.096594 -0.000046  0.053374  0.000476 -0.311729 -0.000186
  4N   2pz       -0.002668  0.112664  0.002222 -0.275503 -0.020225 -0.079470
  4N   2px       -0.032848 -0.007315  0.015226  0.018402 -0.329645  0.005260
  4N   2py       -0.057897 -0.001269  0.106837  0.003053  0.151159  0.000879
  4N   1dz2      -0.002004 -0.002017 -0.000767  0.002275 -0.016212  0.001624
  4N   1dxz       0.000426 -0.018600 -0.000925  0.021730  0.002741  0.011474
  4N   1dyz       0.000127  0.005139 -0.001082 -0.011095 -0.000768  0.015148
  4N   1dx2y2     0.003113  0.001286 -0.012021 -0.001582  0.015518 -0.000580
  4N   1dxy       0.001758 -0.000119 -0.018707  0.000488 -0.013750 -0.001130
  5H   1s         0.091399 -0.000126  0.023405 -0.000007  0.043126 -0.000006
  5H   2s         0.074599 -0.000150  0.026941 -0.000106  0.075599 -0.000025
  6H   1s        -0.241556  0.000393  0.012676 -0.000054  0.046346 -0.000006
  6H   2s        -0.217885  0.000284  0.011193 -0.000133  0.086757 -0.000092
  7H   1s        -0.004613  0.000007 -0.238348 -0.000061  0.064278  0.000020
  7H   2s        -0.006149  0.000088 -0.221582 -0.000122  0.077191  0.000165
  8H   1s         0.079548 -0.000103  0.156557 -0.000046  0.056151  0.000009
  8H   2s         0.070570 -0.000103  0.156150 -0.000026  0.060036 -0.000010
                     18        19        20        21        22        23   
                   0.03668   0.07576   0.07888   0.13727   0.15392   0.17376
                   0.00000   0.00000   0.00000   0.00000   0.00000   0.00000
                  --------  --------  --------  --------  --------  --------
  0C   1s         0.000012  0.005136  0.000031 -0.080399 -0.066772 -0.040462
  0C   2s        -0.000066 -0.003223 -0.000055  0.124355  0.129908  0.096943
  0C   1pz        0.335331 -0.001429  0.271690 -0.010123 -0.006139  0.001074
  0C   1px       -0.022074  0.032477 -0.017630 -0.168375 -0.128239  0.026884
  0C   1py       -0.003847 -0.136454 -0.004210  0.086929  0.202766 -0.061364
  0C   3s         0.000187 -0.301284 -0.001970  1.012661  0.948731  0.048592
  0C   2pz        0.477081 -0.008223  0.442113 -0.040443 -0.019479  0.001243
  0C   2px       -0.031374 -0.043870 -0.029403 -0.673257 -0.453579 -0.045939
  0C   2py       -0.005412 -0.175893 -0.006224  0.348573  0.902637  0.355841
  0C   1dz2       0.000267  0.000696 -0.003359  0.008134  0.003689  0.007165
  0C   1dxz      -0.000556 -0.000300 -0.029362  0.000035 -0.000714 -0.000766
  0C   1dyz       0.016331 -0.000764  0.000274 -0.000016  0.000241 -0.001216
  0C   1dx2y2     0.000237 -0.004520  0.001915  0.013699 -0.005200  0.003723
  0C   1dxy      -0.001065 -0.012219  0.000234  0.004679  0.003828 -0.015657
  1C   1s         0.000000  0.020202  0.000158 -0.024655  0.051419  0.092598
  1C   2s        -0.000005 -0.046388 -0.000386  0.008459 -0.096038 -0.170285
  1C   1pz       -0.157531  0.001483 -0.416479  0.006922  0.002196 -0.016945
  1C   1px        0.010325 -0.024448  0.027279  0.093740  0.024357 -0.213805
  1C   1py        0.001899 -0.007568  0.004816  0.059176  0.043780 -0.230321
  1C   3s         0.000096 -0.062818 -0.000585  0.725900 -0.233552 -1.279312
  1C   2pz       -0.232327 -0.000283 -0.623607  0.006400 -0.009315 -0.067557
  1C   2px        0.015614 -0.063596  0.041118  0.102385 -0.106953 -0.844013
  1C   2py        0.002705 -0.075401  0.007221 -0.040956 -0.192568 -0.996402
  1C   1dz2      -0.002332 -0.002107 -0.001146  0.001592 -0.007569 -0.007175
  1C   1dxz      -0.022835  0.000847 -0.006370  0.000012 -0.000109  0.001065
  1C   1dyz       0.013980  0.000838 -0.019494 -0.000693 -0.000293  0.000338
  1C   1dx2y2     0.001657  0.006561  0.000245  0.004553 -0.013152  0.003083
  1C   1dxy      -0.000658  0.010896  0.001439 -0.009275 -0.009186  0.003554
  2N   1s        -0.000025  0.085767  0.000655  0.067683 -0.000844  0.017491
  2N   2s         0.000056 -0.157809 -0.001226 -0.137585 -0.003354 -0.071159
  2N   1pz       -0.360049  0.018397 -0.005719  0.000134  0.001080 -0.007039
  2N   1px        0.023596  0.270885  0.002544  0.001993  0.021962 -0.097781
  2N   1py        0.004166  0.053614  0.000525  0.001258 -0.028984 -0.049474
  2N   3s         0.000066 -1.163636 -0.008783 -0.829937  0.081215  0.135099
  2N   2pz       -0.484714  0.046350 -0.015969  0.012846  0.006419 -0.005044
  2N   2px        0.031462  0.682204  0.006700  0.187531  0.107829 -0.083356
  2N   2py        0.005785  0.151168  0.001476  0.051159 -0.064894  0.038373
  2N   1dz2       0.002550 -0.001121 -0.000397  0.002765 -0.001575 -0.007410
  2N   1dxz       0.021847  0.000744 -0.008244 -0.001836 -0.000050  0.000419
  2N   1dyz       0.002437  0.000113  0.027815 -0.000788  0.000266  0.001105
  2N   1dx2y2    -0.001422  0.007136  0.000923 -0.020475 -0.003993 -0.008748
  2N   1dxy      -0.000417  0.005836 -0.001696 -0.014684  0.002925  0.012935
  3C   1s        -0.000009  0.008811  0.000047 -0.087384  0.066232 -0.016662
  3C   2s         0.000003 -0.020003 -0.000134  0.138411 -0.107272  0.035881
  3C   1pz        0.399346  0.000205 -0.221182 -0.006891  0.003170 -0.004615
  3C   1px       -0.026277 -0.043347  0.014266 -0.083293  0.005045 -0.047872
  3C   1py       -0.004626  0.108872  0.003437 -0.125486  0.244444 -0.126933
  3C   3s         0.000331 -0.293731 -0.002255  1.050005 -1.150595  0.390515
  3C   2pz        0.526898 -0.003086 -0.334855 -0.026614  0.001851 -0.019495
  3C   2px       -0.034831 -0.106007  0.021371 -0.320302 -0.103870 -0.208320
  3C   2py       -0.005685  0.091597  0.004475 -0.488482  0.754709 -0.495829
  3C   1dz2      -0.000087  0.001272  0.003351  0.010254 -0.003427  0.000193
  3C   1dxz       0.002457 -0.000992  0.027260 -0.000545  0.000481  0.000091
  3C   1dyz      -0.018121 -0.000137  0.011055  0.000220  0.000614  0.000923
  3C   1dx2y2    -0.000371 -0.009188 -0.001744  0.008203 -0.000179 -0.000866
  3C   1dxy       0.001161 -0.001950 -0.001060  0.007974  0.008299  0.013921
  4N   1s        -0.000002  0.002098  0.000024  0.011999 -0.033376 -0.012924
  4N   2s         0.000027 -0.017043 -0.000153 -0.021152  0.088272  0.034271
  4N   1pz       -0.212586  0.001241  0.403997  0.001294 -0.004847 -0.000195
  4N   1px        0.013935  0.075065 -0.026010  0.019336 -0.081997 -0.011966
  4N   1py        0.002537 -0.043553 -0.005027  0.006230  0.045910  0.043867
  4N   3s        -0.000206  0.044760  0.000442 -0.086595  0.177548  0.042624
  4N   2pz       -0.257017 -0.000094  0.529220 -0.003430 -0.005713  0.005137
  4N   2px        0.016888  0.080701 -0.034301 -0.041236 -0.069092  0.070273
  4N   2py        0.002851 -0.102260 -0.006814 -0.051037 -0.102010  0.037216
  4N   1dz2      -0.001136  0.001656 -0.001025  0.004105  0.000459  0.001508
  4N   1dxz      -0.005900  0.000294 -0.007665 -0.000369  0.000926  0.000130
  4N   1dyz      -0.022786 -0.000048 -0.007366  0.000676 -0.000015 -0.000496
  4N   1dx2y2     0.000132  0.006317  0.000467 -0.000544  0.014379  0.005637
  4N   1dxy       0.001571  0.000141  0.000573  0.011448  0.002436 -0.006001
  5H   1s        -0.000126  0.130743  0.001034  0.018598  0.001262  0.015833
  5H   2s        -0.000435  1.659885  0.013161  0.554068  0.065642 -0.174838
  6H   1s        -0.000058  0.016943  0.000060 -0.083408 -0.054431 -0.011130
  6H   2s        -0.000080  0.380564  0.002660 -1.403126 -1.662636 -0.311167
  7H   1s        -0.000043  0.038924  0.000187 -0.020400  0.022655  0.073718
  7H   2s        -0.000154  0.251010  0.001450 -0.464266  0.342688  2.194819
  8H   1s         0.000022  0.002711 -0.000012 -0.090487  0.054286 -0.011783
  8H   2s         0.000148  0.306677  0.002301 -1.266491  1.514433 -0.769665
                     24        25        26        27        28        29   
                   0.22585   0.24576   0.31360   0.35367   0.46100   0.52849
                   0.00000   0.00000   0.00000   0.00000   0.00000   0.00000
                  --------  --------  --------  --------  --------  --------
  0C   1s        -0.058510  0.020925  0.041554 -0.065046  0.095248 -0.000272
  0C   2s         0.071437 -0.042689 -0.156964 -0.003517  0.019463 -0.450418
  0C   1pz       -0.008934 -0.009803  0.005849  0.010704  0.000299 -0.031013
  0C   1px       -0.102223 -0.116800  0.063576  0.172568 -0.031248 -0.446683
  0C   1py       -0.189232 -0.188819  0.148278 -0.046983  0.233976 -0.208536
  0C   3s         1.407915 -0.436557 -0.630329  2.783465 -2.648589  0.229251
  0C   2pz       -0.045136 -0.054214 -0.050299  0.164122 -0.008868  0.031608
  0C   2px       -0.516694 -0.652031 -0.786955  2.622392 -0.568358  0.454062
  0C   2py       -0.966249 -0.955946  0.132634 -0.774238  2.418445  0.209338
  0C   1dz2       0.005798 -0.002555  0.006385 -0.002165 -0.034045  0.059109
  0C   1dxz      -0.000077  0.002475  0.000351 -0.000881  0.003787 -0.008108
  0C   1dyz      -0.002563  0.000537  0.000299  0.000876 -0.000605  0.001035
  0C   1dx2y2     0.015163  0.030835  0.014782 -0.018865  0.002131 -0.026376
  0C   1dxy      -0.034459  0.012884  0.009272  0.009413 -0.019315  0.029908
  1C   1s        -0.055081 -0.019206 -0.015598  0.061049 -0.106384 -0.030005
  1C   2s         0.084532  0.024610 -0.122457 -0.075507  0.128234 -0.354541
  1C   1pz       -0.000500 -0.010578 -0.009734  0.012497 -0.008979  0.017993
  1C   1px        0.026244 -0.188785 -0.156071  0.180492 -0.086719  0.310726
  1C   1py       -0.170868  0.169956  0.054054  0.036693 -0.250963 -0.313678
  1C   3s         0.917451  0.459570  1.232137 -2.347835  2.818976  0.556533
  1C   2pz        0.018442 -0.023163 -0.049448  0.173417 -0.076962 -0.039492
  1C   2px        0.408776 -0.499041 -0.644442  2.689790 -0.764495 -0.605480
  1C   2py       -0.713362  0.827446 -0.585260 -0.317478 -2.261674  0.144052
  1C   1dz2       0.010222  0.003266  0.004354  0.010151  0.018771  0.072619
  1C   1dxz       0.000591 -0.001098 -0.000950 -0.000055 -0.002032 -0.011459
  1C   1dyz       0.001385  0.000859 -0.001100 -0.000676  0.000586 -0.001643
  1C   1dx2y2     0.021479 -0.012986 -0.004086  0.017191 -0.001314 -0.044403
  1C   1dxy       0.028144  0.011786 -0.015893 -0.003690  0.014728 -0.010012
  2N   1s         0.027766  0.055903  0.052670  0.042044 -0.044379  0.016959
  2N   2s        -0.030025 -0.066044 -0.081083 -0.021931  0.081319 -0.096711
  2N   1pz       -0.006093 -0.010943 -0.009774 -0.007222  0.003628  0.001840
  2N   1px       -0.030233 -0.170180 -0.165904 -0.144958  0.004312  0.023250
  2N   1py       -0.349633  0.010974  0.086709  0.200738  0.296512  0.017291
  2N   3s        -0.692186 -1.415395 -1.229993 -1.550676  1.361769 -0.463724
  2N   2pz       -0.032001 -0.043343 -0.073899 -0.073257  0.056377 -0.039466
  2N   2px       -0.278979 -0.657087 -1.187203 -1.188235  0.615853 -0.579885
  2N   2py       -1.173123 -0.011025  0.364503  0.432144  1.372074 -0.130026
  2N   1dz2       0.006328  0.002276  0.021913  0.023190 -0.021921  0.049313
  2N   1dxz      -0.001284 -0.002261 -0.000807 -0.002355  0.002440 -0.009645
  2N   1dyz       0.001514 -0.000708 -0.003922  0.001610 -0.001461  0.001708
  2N   1dx2y2    -0.012421 -0.027645  0.034288 -0.000858  0.004050 -0.066170
  2N   1dxy       0.022747 -0.015099 -0.046922  0.031533 -0.028180  0.029164
  3C   1s         0.049982  0.015345 -0.092803 -0.035459  0.024284 -0.002713
  3C   2s        -0.121244 -0.048319 -0.008549 -0.036706  0.014108 -0.516253
  3C   1pz        0.006990 -0.016718 -0.007173  0.007568 -0.018063  0.002013
  3C   1px        0.109190 -0.265010 -0.158420  0.101453 -0.269669  0.052897
  3C   1py       -0.012151  0.066391  0.289029  0.083733 -0.006042 -0.161553
  3C   3s        -0.678573 -0.268347  2.915332  0.885398 -0.827099  1.361557
  3C   2pz        0.032092 -0.095579  0.070618 -0.093241 -0.087595  0.011305
  3C   2px        0.436143 -1.487579  0.681962 -1.583638 -1.244108  0.023823
  3C   2py        0.288779  0.204243  2.229777  0.931303 -0.522129  0.881914
  3C   1dz2      -0.007121 -0.000757  0.017777  0.013807 -0.009175  0.026481
  3C   1dxz       0.002305  0.001717 -0.002478 -0.001540  0.001854 -0.000536
  3C   1dyz      -0.000852  0.001793  0.000218  0.000231  0.001059 -0.001368
  3C   1dx2y2     0.024376  0.019329 -0.007975 -0.000766  0.009618  0.038944
  3C   1dxy      -0.010906  0.030208  0.007219  0.007549  0.014841 -0.005840
  4N   1s         0.057712 -0.083450  0.086052  0.010979  0.029980  0.036467
  4N   2s        -0.075000  0.109084 -0.062862 -0.047238 -0.065716 -0.114553
  4N   1pz       -0.005521 -0.005100  0.010801 -0.003669 -0.010190 -0.003104
  4N   1px       -0.040833 -0.061975  0.148829 -0.035997 -0.086492 -0.044591
  4N   1py       -0.245992 -0.098284  0.083265 -0.119515 -0.384609 -0.017145
  4N   3s        -1.175018  1.717399 -2.696700  0.072926 -0.669700 -0.722527
  4N   2pz        0.001513 -0.031066  0.093060 -0.024243 -0.033651  0.030127
  4N   2px        0.140847 -0.441642  1.399837 -0.263938 -0.219640  0.491618
  4N   2py       -0.657080 -0.188140  0.083596 -0.576205 -1.624802 -0.218218
  4N   1dz2       0.005065  0.002187  0.045855  0.001475  0.004543  0.031140
  4N   1dxz      -0.001128  0.000546 -0.004579  0.001948 -0.000798 -0.007381
  4N   1dyz       0.000054 -0.000656 -0.001766  0.002211 -0.000958 -0.000724
  4N   1dx2y2    -0.008560  0.013331  0.011846  0.025158 -0.001970 -0.055080
  4N   1dxy       0.001047 -0.006816 -0.010567  0.038328 -0.013538 -0.011799
  5H   1s        -0.018831 -0.123725  0.007743  0.014815 -0.031204 -0.140986
  5H   2s        -0.423515 -0.476069 -0.558333 -0.475373  0.401807 -0.115528
  6H   1s         0.067127 -0.061309 -0.039816 -0.008757  0.218772 -0.247564
  6H   2s        -0.020839  0.523571 -0.252943  1.016253 -1.092288  0.124560
  7H   1s         0.055337  0.045259 -0.063288 -0.008422 -0.093432 -0.255736
  7H   2s        -0.028714 -0.227925  0.406835 -0.749069  0.854266  0.187759
  8H   1s        -0.059836 -0.022019 -0.059345 -0.052151  0.002891 -0.253792
  8H   2s         0.545500  0.224912  1.003638  0.355914 -0.254372  0.376424
                     30        31        32        33        34        35   
                   0.54470   0.56590   0.59138   0.61747   0.63870   0.64710
                   0.00000   0.00000   0.00000   0.00000   0.00000   0.00000
                  --------  --------  --------  --------  --------  --------
  0C   1s         0.000025 -0.021832  0.000035  0.072086  0.000365 -0.017240
  0C   2s         0.000805  0.432228 -0.000253  0.210838 -0.001750  0.279343
  0C   1pz        0.585845 -0.035249 -0.603444 -0.021054 -0.589463  0.018791
  0C   1px       -0.038094 -0.449460  0.039704 -0.336959  0.034887  0.344623
  0C   1py       -0.006403 -0.473613  0.006717 -0.045678  0.003565  0.177421
  0C   3s        -0.000865 -0.637477 -0.001112 -0.994672 -0.004831  0.232930
  0C   2pz       -0.564334  0.052452  0.703342 -0.016168  1.001183  0.005031
  0C   2px        0.036886  0.702815 -0.047303 -0.257600 -0.068925  0.035534
  0C   2py        0.006197  0.512754 -0.006382  0.296591 -0.000538 -0.658857
  0C   1dz2       0.002188 -0.009075 -0.003143 -0.090490  0.002582 -0.014182
  0C   1dxz       0.023438  0.000995 -0.033450  0.009887  0.020186 -0.001747
  0C   1dyz      -0.019301 -0.003874  0.033714 -0.000493  0.021999  0.000928
  0C   1dx2y2    -0.001739  0.010088  0.002573 -0.001155 -0.000164 -0.053740
  0C   1dxy       0.000916 -0.060344 -0.001779 -0.034506 -0.001684 -0.003248
  1C   1s        -0.000014 -0.007197 -0.000022 -0.020977 -0.000581  0.050011
  1C   2s         0.000352  0.030072  0.000368  0.110556 -0.004270  0.468860
  1C   1pz        0.467896  0.005342 -0.364049 -0.021939  0.844503  0.024374
  1C   1px       -0.031479  0.069779  0.024386 -0.375872 -0.061281  0.281004
  1C   1py       -0.005706  0.065503  0.004675  0.355920 -0.006820 -0.292398
  1C   3s         0.000188 -0.282642  0.000445  0.493041  0.015868 -1.229823
  1C   2pz       -0.369963 -0.011372  0.328046 -0.033227 -1.288264 -0.005155
  1C   2px        0.025915 -0.152519 -0.023926 -0.465657  0.087812 -0.002236
  1C   2py        0.004729 -0.107036 -0.005666 -0.403535  0.007916  0.776839
  1C   1dz2      -0.003538 -0.000303  0.005286  0.000138  0.000156 -0.081046
  1C   1dxz      -0.029328  0.000154  0.042663 -0.004038  0.000560  0.011297
  1C   1dyz      -0.004977  0.004962  0.019554  0.001662 -0.033149  0.002629
  1C   1dx2y2     0.001985 -0.011172 -0.002639 -0.062343 -0.000792  0.026176
  1C   1dxy       0.000714  0.073087 -0.001810  0.013615  0.001878  0.025015
  2N   1s        -0.000023  0.062588 -0.000008 -0.021261 -0.000169  0.007288
  2N   2s         0.000145 -0.215300 -0.000110  0.094719  0.001309 -0.113151
  2N   1pz        0.182457 -0.012465  0.047789  0.004544 -0.212829 -0.009827
  2N   1px       -0.011982 -0.187610 -0.003180  0.030234  0.015022 -0.160590
  2N   1py       -0.002035  0.028226 -0.000318  0.210745 -0.000243  0.283131
  2N   3s         0.000735  0.694032  0.000455 -0.211490  0.005141 -0.181400
  2N   2pz        0.086643  0.008565 -0.006263  0.000192  0.094008 -0.004163
  2N   2px       -0.005079  0.120381  0.000565  0.047773 -0.002309 -0.017360
  2N   2py       -0.000370  0.019259 -0.000107 -0.279083  0.002678 -0.377047
  2N   1dz2       0.004782 -0.142145  0.001779  0.040635 -0.006074  0.024423
  2N   1dxz       0.041391  0.017481  0.021081 -0.004654 -0.044998 -0.003361
  2N   1dyz       0.007283  0.004681 -0.035300  0.004963 -0.024890 -0.002542
  2N   1dx2y2    -0.002554  0.013260 -0.001854 -0.016051  0.002355  0.003884
  2N   1dxy      -0.001031  0.030070  0.002155  0.083966  0.002451 -0.026601
  3C   1s         0.000001 -0.034592 -0.000020 -0.018923  0.000242 -0.040578
  3C   2s         0.000775  0.264412 -0.001060 -0.480783  0.005322 -0.491428
  3C   1pz        0.679705 -0.026439  0.747140  0.032628 -0.038574 -0.017870
  3C   1px       -0.045016 -0.439446 -0.048676  0.531820  0.006503 -0.260222
  3C   1py       -0.007436  0.196887 -0.008649 -0.184060  0.000962 -0.003532
  3C   3s        -0.001686 -0.296011  0.002049  1.021267 -0.007022  0.566763
  3C   2pz       -0.779716  0.032813 -0.992357 -0.012584  0.033171  0.024476
  3C   2px        0.051012  0.522589  0.065174 -0.283249 -0.005666  0.358294
  3C   2py        0.007595 -0.104328  0.011287  0.502608 -0.002167  0.015696
  3C   1dz2       0.000108  0.014678  0.001286  0.048207  0.000704  0.087712
  3C   1dxz      -0.001569 -0.003472  0.002203 -0.007519  0.014160 -0.007919
  3C   1dyz       0.017694  0.003205  0.046502 -0.002045 -0.009507 -0.001817
  3C   1dx2y2     0.000280 -0.035874  0.000433 -0.026542 -0.001166  0.028702
  3C   1dxy      -0.001130  0.047111 -0.003097 -0.020918  0.000408  0.006261
  4N   1s        -0.000013 -0.001956  0.000028  0.014817  0.000187 -0.008977
  4N   2s         0.000013 -0.067405 -0.000048 -0.076492 -0.000383 -0.003232
  4N   1pz        0.108070  0.006234  0.044525  0.009460  0.138063  0.013043
  4N   1px       -0.007142  0.100717 -0.002833  0.101640 -0.010772  0.143691
  4N   1py       -0.001586 -0.030878 -0.000275  0.247993 -0.002621  0.180236
  4N   3s         0.001023  0.000076 -0.001143 -0.480974 -0.004216  0.408631
  4N   2pz        0.131291 -0.002067  0.062142  0.024737  0.069243 -0.016335
  4N   2px       -0.009373 -0.052384 -0.003428  0.376613 -0.001811 -0.260558
  4N   2py       -0.001518  0.106409 -0.000697  0.018114 -0.000696  0.001932
  4N   1dz2      -0.004349  0.000867 -0.004790  0.026095 -0.002601 -0.015394
  4N   1dxz      -0.038075  0.001285 -0.037803 -0.000538 -0.030420 -0.002642
  4N   1dyz       0.003176 -0.002843 -0.024550  0.000767  0.040017 -0.001181
  4N   1dx2y2     0.002607  0.027942  0.002173  0.031442  0.003168 -0.054745
  4N   1dxy       0.000205 -0.037940  0.002090  0.026549 -0.001738 -0.039279
  5H   1s         0.000151  0.544823 -0.000226 -0.027870  0.000326 -0.102166
  5H   2s         0.000204 -0.307883  0.000115  0.027483  0.002184 -0.006807
  6H   1s         0.000447  0.187355 -0.000039  0.521628 -0.000409  0.095719
  6H   2s        -0.000084  0.050502 -0.000925 -0.426394 -0.005070  0.227653
  7H   1s         0.000097  0.119156  0.000133  0.042223 -0.005671  0.467993
  7H   2s        -0.000767 -0.092642  0.001521  0.249765  0.001927 -0.337596
  8H   1s         0.000268  0.052966 -0.000588 -0.169116  0.003356 -0.470144
  8H   2s        -0.000600  0.030670 -0.000218  0.085780 -0.001729  0.218246
                     36        37        38        39        40        41   
                   0.66186   0.67722   0.76185   0.80720   0.83057   0.83504
                   0.00000   0.00000   0.00000   0.00000   0.00000   0.00000
                  --------  --------  --------  --------  --------  --------
  0C   1s        -0.003018 -0.010400  0.000065  0.031754 -0.002571  0.023156
  0C   2s        -0.411696  0.066100  0.000452  0.047442 -0.076976 -0.071438
  0C   1pz        0.003434 -0.001141 -0.221301  0.010825  0.003803  0.035835
  0C   1px        0.014171 -0.017180  0.014806  0.240550  0.088625  0.637449
  0C   1py        0.355423 -0.029755  0.001688 -0.488077 -0.182386 -0.559200
  0C   3s         0.914392  0.609902 -0.000021 -0.129067 -1.673016 -1.858533
  0C   2pz        0.015126  0.030868  0.768559 -0.013086 -0.033743 -0.155986
  0C   2px        0.374073  0.476945 -0.050484 -0.506236 -0.762936 -2.810363
  0C   2py       -1.071941 -0.006422 -0.006053  1.902357  1.424014  2.561987
  0C   1dz2       0.025361 -0.005976 -0.000276 -0.019093  0.036034  0.023402
  0C   1dxz      -0.009381  0.003149  0.000409  0.001973 -0.004797 -0.008608
  0C   1dyz      -0.002107  0.005030 -0.010393 -0.005298 -0.004863  0.000797
  0C   1dx2y2    -0.091052  0.023325 -0.000200  0.011966  0.000965 -0.090677
  0C   1dxy      -0.041515  0.078961  0.000458 -0.083811 -0.062703  0.002781
  1C   1s         0.027061  0.035702  0.000058  0.040457  0.010140 -0.020079
  1C   2s        -0.355493 -0.254895  0.000119 -0.042916  0.154031 -0.079263
  1C   1pz        0.020208 -0.009064  0.153781 -0.022243  0.011480  0.045774
  1C   1px        0.244934 -0.208411 -0.010600 -0.285465  0.210292  0.612060
  1C   1py        0.136269  0.431062 -0.002092 -0.211749 -0.194881  0.435718
  1C   3s        -0.195558  0.236119 -0.000167  0.315329  1.163290  2.690380
  1C   2pz       -0.011896  0.041683 -0.409587  0.071887 -0.091296 -0.215073
  1C   2px       -0.123643  0.776084  0.028823  0.944804 -1.316878 -2.878875
  1C   2py        0.011422 -0.859226  0.005433  0.667921 -0.419909 -2.170415
  1C   1dz2       0.007368 -0.032640  0.000557 -0.030913 -0.083075 -0.039087
  1C   1dxz      -0.002592 -0.002231  0.001234  0.006255  0.009930  0.007731
  1C   1dyz       0.003668  0.000190  0.024126  0.004790  0.009659 -0.003832
  1C   1dx2y2    -0.035976 -0.086551  0.000209  0.028047 -0.014895  0.060219
  1C   1dxy       0.053255 -0.022901 -0.001475  0.068050  0.117769 -0.058881
  2N   1s         0.006613 -0.011322  0.000032 -0.008063 -0.025052  0.014193
  2N   2s         0.040303  0.046874 -0.000254  0.050016 -0.021348 -0.057051
  2N   1pz        0.012319  0.001688  0.938103 -0.004433 -0.035229  0.014310
  2N   1px        0.198820  0.002529 -0.061058  0.002686 -0.500949  0.206317
  2N   1py       -0.000599  0.109415 -0.011205 -0.298649 -0.241773  0.069256
  2N   3s        -1.200269  0.328602 -0.000051 -0.174063  0.519165  0.742085
  2N   2pz       -0.054353  0.001170 -1.460736 -0.000220  0.089989  0.000323
  2N   2px       -0.801111  0.091680  0.093988 -0.198439  1.228760 -0.000981
  2N   2py       -0.183801 -0.398508  0.018429  0.925405  0.865576  0.033900
  2N   1dz2       0.077469 -0.003112  0.004536  0.008412  0.013130 -0.046593
  2N   1dxz      -0.002902 -0.005324  0.038404 -0.005411 -0.001708  0.009313
  2N   1dyz       0.000258 -0.001738  0.011323  0.003249  0.001759  0.005916
  2N   1dx2y2     0.085244 -0.079277 -0.002437 -0.074093 -0.008840  0.046280
  2N   1dxy       0.043794 -0.041465 -0.001001  0.038888  0.029259  0.084336
  3C   1s         0.051855  0.044013 -0.000048 -0.029703  0.005313  0.006598
  3C   2s        -0.396601 -0.329681 -0.000381  0.081080  0.004793 -0.098431
  3C   1pz       -0.016874 -0.035163 -0.159188 -0.016682  0.021863  0.005961
  3C   1px       -0.183011 -0.513051  0.010197 -0.126837  0.298663  0.090607
  3C   1py       -0.428544 -0.122202  0.000836 -0.753829  0.210961  0.034249
  3C   3s         0.718027  0.220641  0.002320  0.728125  0.498848  0.275284
  3C   2pz        0.011469  0.058512  0.587850  0.047034 -0.029793 -0.020320
  3C   2px       -0.030942  0.920545 -0.038904  0.208675 -0.440933 -0.305784
  3C   2py        1.188894 -0.182253 -0.002241  2.976252 -0.148614 -0.128135
  3C   1dz2      -0.055851 -0.032362 -0.001416 -0.005922 -0.045982 -0.002959
  3C   1dxz       0.001568  0.006939 -0.012536  0.007927  0.001030  0.000699
  3C   1dyz       0.002481  0.007111  0.001437 -0.001798  0.006966  0.000837
  3C   1dx2y2    -0.075513  0.030797  0.000942  0.111660 -0.077993  0.002592
  3C   1dxy       0.007694  0.103433 -0.000052 -0.009858  0.077838  0.012455
  4N   1s        -0.035748 -0.015985 -0.000036 -0.011400  0.051577  0.001225
  4N   2s         0.153163  0.145424  0.000090  0.094052 -0.212544  0.041046
  4N   1pz        0.000173 -0.040718 -0.099261 -0.006289 -0.019733 -0.005408
  4N   1px        0.008523 -0.669356  0.006681 -0.069648 -0.337453 -0.125186
  4N   1py       -0.096962  0.286703  0.001120 -0.136771  0.126912  0.092413
  4N   3s        -0.397515 -1.166039 -0.001188 -0.867850 -0.206241 -0.962139
  4N   2pz        0.003001  0.022868  0.078832  0.018848  0.072086  0.022107
  4N   2px        0.065384  0.422789 -0.005466  0.247363  1.183433  0.454107
  4N   2py       -0.114132 -0.411227 -0.001108  0.217341 -0.363583 -0.443016
  4N   1dz2       0.067559  0.105937  0.001646  0.043316 -0.063636  0.035145
  4N   1dxz      -0.008091 -0.010279  0.017177 -0.008500  0.010891 -0.004058
  4N   1dyz      -0.005213 -0.006214 -0.019155 -0.001171 -0.003264  0.004111
  4N   1dx2y2     0.006567  0.037124 -0.001438 -0.051401  0.065374 -0.012080
  4N   1dxy      -0.058641 -0.054696  0.001026 -0.013744 -0.057767  0.070570
  5H   1s         0.238404 -0.158302  0.000126 -0.104085 -0.273628  0.232641
  5H   2s        -0.481017  0.260790 -0.000897  0.249068  0.931587 -0.510183
  6H   1s         0.168110 -0.107157  0.000570  0.190785  0.108195  0.216948
  6H   2s         0.255405  0.297811 -0.002003 -1.351592 -0.809580 -2.120177
  7H   1s         0.316877  0.005966  0.000439  0.203933  0.328539 -0.275037
  7H   2s        -0.188624 -0.109831 -0.001571 -1.075634  0.112393  1.909635
  8H   1s         0.475588 -0.078733 -0.000379 -0.241369  0.387498 -0.063941
[...]

Fock matrix formation       ....       8.596 sec  ( 86.9%)
  XC integration            ....       1.707 sec  ( 19.9% of F)
    Basis function eval.    ....       0.641 sec  ( 37.6% of XC)
    Density eval.           ....       0.380 sec  ( 22.3% of XC)
    XC-Functional eval.     ....       0.164 sec  (  9.6% of XC)
    XC-Potential eval.      ....       0.417 sec  ( 24.4% of XC)
Diagonalization             ....       0.008 sec  (  0.1%)
Density matrix formation    ....       0.001 sec  (  0.0%)
Population analysis         ....       0.016 sec  (  0.2%)
Initial guess               ....       0.198 sec  (  2.0%)
Orbital Transformation      ....       0.000 sec  (  0.0%)
Orbital Orthonormalization  ....       0.000 sec  (  0.0%)
DIIS solution               ....       0.004 sec  (  0.0%)
SOSCF solution              ....       0.004 sec  (  0.0%)
Grid generation             ....       0.818 sec  (  8.3%)
------------------------------------------------------------------------------
                        ORCA TD-DFT/TDA CALCULATION
------------------------------------------------------------------------------

Input orbitals are from        ... /Users/lailaal-madhagi/Desktop/Testing_XAS_Analysis_code/Imidazole/Gas//Results_dir_Imidazole_geom_element_N_2019-11-03_16-54-11//GTE1_Imidazole_geom_2019-11-03_16-54-36//TDDFT_N-edge.gbw
CI-vector output               ... /Users/lailaal-madhagi/Desktop/Testing_XAS_Analysis_code/Imidazole/Gas//Results_dir_Imidazole_geom_element_N_2019-11-03_16-54-11//GTE1_Imidazole_geom_2019-11-03_16-54-36//TDDFT_N-edge.cis
Tamm-Dancoff approximation     ... operative
CIS-Integral strategy          ... AO-integrals
Integral handling              ... AO integral Direct
Max. core memory used          ... 512 MB
Reference state                ... RHF
Generation of triplets         ... off
Follow IRoot                   ... off
Number of operators            ... 1
Orbital ranges used for CIS calculation:
 Operator 0:  Orbitals   0...  1  to  18... 77
XAS localization array:
 Operator 0:  Orbitals  -1... -1
-------------------
XC-INTEGRATION GRID
-------------------

General Integration Accuracy     IntAcc      ...  3.670
Radial Grid Type                 RadialGrid  ... Gauss-Chebyshev
Angular Grid (max. acc.)         AngularGrid ... Lebedev-50
Angular grid pruning method      GridPruning ... 3 (G Style)
Weight generation scheme         WeightScheme... Becke
Basis function cutoff            BFCut       ...    1.0000e-11
Integration weight cutoff        WCut        ...    1.0000e-14
Grids for H and He will be reduced by one unit

# of grid points (after initial pruning)     ...   5274 (   0.0 sec)
# of grid points (after weights+screening)   ...   5046 (   0.0 sec)
nearest neighbour list constructed           ...    0.0 sec
Grid point re-assignment to atoms done       ...    0.0 sec
Grid point division into batches done        ...    0.0 sec
Reduced shell lists constructed in    0.0 sec

Total number of grid points                  ...     5046
Total number of batches                      ...       84
Average number of points per batch           ...       60
Average number of grid points per atom       ...      561
Average number of shells per batch           ...    32.68 (86.01%)
Average number of basis functions per batch  ...    69.74 (89.41%)
Average number of large shells per batch     ...    28.46 (87.08%)
Average number of large basis fcns per batch ...    60.81 (87.20%)
Maximum spatial batch extension              ...  19.47, 15.83, 30.56 au
Average spatial batch extension              ...   5.08,  4.58,  7.16 au


---------------
TD-DFT XC SETUP
---------------

DFT calculation                         ... on
Name of the grid file                   ... /Users/lailaal-madhagi/Desktop/Testing_XAS_Analysis_code/Imidazole/Gas//Results_dir_Imidazole_geom_element_N_2019-11-03_16-54-11//GTE1_Imidazole_geom_2019-11-03_16-54-36//TDDFT_N-edge.grid_cis.tmp
Exchange functional (SCF)               ... B88
Exchange functional (TD-DFT)            ... B88
   X-Alpha parameter    XAlpha (SCF)    ...  0.666667
   X-Alpha parameter    XAlpha (TD-DFT) ...  0.666667
   Becke's b parameter  XBeta (SCF)     ...  0.004200
   Becke's b parameter  XBeta (TD-DFT)  ...  0.004200
Correlation functional (SCF)            ... LYP
Correlation functional (TD-DFT)         ... LYP
 LDA part of GGA corr.  LDAOpt (SCF)    ... VWN-5
 LDA part of GGA corr.  LDAOpt (TD-DFT) ... VWN-5
Hybrid DFT                              ... on
   Exchange mixing (SCF)                ...  0.200
   Exchange mixing (TD-DFT)             ...  0.200
   GGA exch. scaling(SCF)               ...  0.720
   GGA exch. scaling (TD-DFT)           ...  0.720
   GGA corr. scaling (SCF)              ...  0.810
   GGA corr. scaling (TD-DFT)           ...  0.810

Building densities             ... done
Calculating rho(r) on the grid ... done
Building xc-kernel on the grid ... done
                    *** TD-DFT CALCULATION INITIALIZED ***


------------------------
DAVIDSON-DIAGONALIZATION
------------------------

Dimension of the eigenvalue problem            ...    120
Number of roots to be determined               ...     20
Maximum size of the expansion space            ...    120
Maximum number of iterations                   ...    100
Convergence tolerance for the residual         ...    2.500e-07
Convergence tolerance for the energies         ...    2.500e-07
Orthogonality tolerance                        ...    1.000e-14
Level Shift                                    ...    0.000e+00
Constructing the preconditioner                ... o.k.
Building the initial guess                     ... o.k.
Number of trial vectors determined             ...    120


                       ****Iteration    0****

   Memory handling for direct AO based CIS:
   Memory per vector needed      ...     1 MB
   Memory needed                 ...    11 MB
   Memory available              ...   512 MB
   Number of vectors per batch   ...   512
   Number of batches             ...     1
   Time for densities:     0.005
   Using LibInt in JK Direct
   Time for J+K (Direct):    17.566
   Time for XC-Integration:     1.007
   Time for Sigma-Completion:     0.045
   Size of expansion space: 60
   Lowest Energy          :    14.259839751699
   Maximum Energy change  :    14.679604667876 (vector 19)
   Maximum residual norm  :     0.000321629860

                       ****Iteration    1****
   Time for densities:     0.001
   Using LibInt in JK Direct
   Time for J+K (Direct):     3.855
   Time for XC-Integration:     0.329
   Time for Sigma-Completion:     0.017
   Size of expansion space: 80
   Lowest Energy          :    14.259657068637
   Maximum Energy change  :     0.000212786952 (vector 18)
   Maximum residual norm  :     0.000000254781

                       ****Iteration    2****
   Time for densities:     0.001
   Using LibInt in JK Direct
   Time for J+K (Direct):     3.933
   Time for XC-Integration:     0.337
   Time for Sigma-Completion:     0.018
   Size of expansion space: 100
   Lowest Energy          :    14.259656964569
   Maximum Energy change  :     0.000000129360 (vector 2)

         *** CONVERGENCE OF ENERGIES REACHED ***

Storing the converged CI vectors               ... /Users/lailaal-madhagi/Desktop/Testing_XAS_Analysis_code/Imidazole/Gas//Results_dir_Imidazole_geom_element_N_2019-11-03_16-54-11//GTE1_Imidazole_geom_2019-11-03_16-54-36//TDDFT_N-edge.cis1

                 *** DAVIDSON DONE ***

Total time for solving the CIS problem:    27.445sec

------------------------------------
TD-DFT/TDA EXCITED STATES (SINGLETS)
------------------------------------

the weight of the individual excitations are printed if larger than 1.0e-02

STATE  1:  E=  14.259657 au    388.025 eV  3129633.0 cm**-1
     1a ->  18a  :     0.724887 (c= -0.85140299)
     1a ->  20a  :     0.273546 (c=  0.52301624)

STATE  2:  E=  14.302263 au    389.184 eV  3138983.9 cm**-1
     1a ->  18a  :     0.274521 (c=  0.52394733)
     1a ->  20a  :     0.724659 (c=  0.85126929)

STATE  3:  E=  14.336064 au    390.104 eV  3146402.3 cm**-1
     0a ->  18a  :     0.998433 (c= -0.99921628)

STATE  4:  E=  14.340154 au    390.215 eV  3147300.1 cm**-1
     1a ->  19a  :     0.995773 (c=  0.99788433)

STATE  5:  E=  14.385916 au    391.461 eV  3157343.5 cm**-1
     0a ->  19a  :     0.989241 (c=  0.99460593)

STATE  6:  E=  14.396086 au    391.737 eV  3159575.6 cm**-1
     1a ->  21a  :     0.869117 (c= -0.93226453)
     1a ->  22a  :     0.126601 (c=  0.35581084)

STATE  7:  E=  14.407704 au    392.054 eV  3162125.5 cm**-1
     0a ->  20a  :     0.999743 (c= -0.99987143)

STATE  8:  E=  14.414470 au    392.238 eV  3163610.5 cm**-1
     1a ->  21a  :     0.125074 (c=  0.35365860)
     1a ->  22a  :     0.856983 (c=  0.92573382)
     1a ->  24a  :     0.011228 (c= -0.10596069)

STATE  9:  E=  14.428272 au    392.613 eV  3166639.7 cm**-1
     1a ->  23a  :     0.991916 (c= -0.99594956)

STATE 10:  E=  14.463474 au    393.571 eV  3174365.6 cm**-1
     1a ->  22a  :     0.010239 (c= -0.10118880)
     1a ->  24a  :     0.958317 (c= -0.97893682)
     1a ->  28a  :     0.010434 (c= -0.10214685)

STATE 11:  E=  14.470025 au    393.749 eV  3175803.3 cm**-1
     0a ->  21a  :     0.988965 (c= -0.99446742)

STATE 12:  E=  14.490085 au    394.295 eV  3180206.0 cm**-1
     0a ->  22a  :     0.989998 (c= -0.99498650)

STATE 13:  E=  14.490175 au    394.298 eV  3180225.9 cm**-1
     1a ->  25a  :     0.985117 (c=  0.99253045)

STATE 14:  E=  14.516084 au    395.003 eV  3185912.2 cm**-1
     0a ->  23a  :     0.800022 (c=  0.89443933)
     0a ->  24a  :     0.170653 (c=  0.41310142)

STATE 15:  E=  14.533680 au    395.482 eV  3189774.0 cm**-1
     0a ->  23a  :     0.177513 (c=  0.42132240)
     0a ->  24a  :     0.784387 (c= -0.88565623)
     0a ->  26a  :     0.019466 (c=  0.13951967)

STATE 16:  E=  14.553029 au    396.008 eV  3194020.6 cm**-1
     1a ->  24a  :     0.010875 (c= -0.10428526)
     1a ->  26a  :     0.976631 (c= -0.98824663)

STATE 17:  E=  14.567111 au    396.391 eV  3197111.3 cm**-1
     0a ->  25a  :     0.973233 (c=  0.98652582)

STATE 18:  E=  14.599042 au    397.260 eV  3204119.4 cm**-1
     1a ->  27a  :     0.990720 (c= -0.99534941)

STATE 19:  E=  14.626477 au    398.007 eV  3210140.7 cm**-1
     0a ->  24a  :     0.028412 (c= -0.16855716)
     0a ->  26a  :     0.956042 (c= -0.97777410)

STATE 20:  E=  14.679524 au    399.450 eV  3221783.1 cm**-1
     0a ->  27a  :     0.988004 (c= -0.99398407)


-----------------------------
TD-DFT/TDA-EXCITATION SPECTRA
-----------------------------

Center of mass = (-21.2383, 13.9879, -0.1527)
Calculating the Dipole integrals                  ... done
Transforming integrals                            ... done
Calculating the Linear Momentum integrals         ... done
Transforming integrals                            ... done
Calculating angular momentum integrals            ... done
Transforming integrals                            ... done

-----------------------------------------------------------------------------
         ABSORPTION SPECTRUM VIA TRANSITION ELECTRIC DIPOLE MOMENTS
-----------------------------------------------------------------------------
State   Energy    Wavelength  fosc         T2        TX        TY        TZ  
        (cm-1)      (nm)                 (au**2)    (au)      (au)      (au) 
-----------------------------------------------------------------------------
   1 3129633.0      3.2   0.033518551   0.00353  -0.00390  -0.00070   0.05925
   2 3138983.9      3.2   0.011715300   0.00123  -0.00231  -0.00040   0.03497
   3 3146402.3      3.2   0.027942431   0.00292   0.00353   0.00062  -0.05395
   4 3147300.1      3.2   0.001890880   0.00020   0.01210  -0.00712   0.00074
   5 3157343.6      3.2   0.019737093   0.00206  -0.04428  -0.00939  -0.00301
   6 3159575.6      3.2   0.000560630   0.00006  -0.00759   0.00080  -0.00049
   7 3162125.5      3.2   0.000008835   0.00000   0.00011   0.00003  -0.00095
   8 3163610.5      3.2   0.002105787   0.00022  -0.01023   0.01068  -0.00055
   9 3166639.7      3.2   0.001199449   0.00012   0.00054  -0.01115  -0.00010
  10 3174365.6      3.2   0.018221661   0.00189   0.01114   0.04200   0.00122
  11 3175803.3      3.1   0.000043719   0.00000  -0.00200  -0.00070  -0.00014
  12 3180206.0      3.1   0.000852084   0.00009   0.00549  -0.00762   0.00027
  13 3180225.9      3.1   0.003563546   0.00037  -0.00889  -0.01701  -0.00077
  14 3185912.2      3.1   0.010486526   0.00108   0.01220   0.03055   0.00116
  15 3189774.0      3.1   0.023036008   0.00238   0.00679  -0.04828  -0.00012
  16 3194020.6      3.1   0.005289257   0.00055  -0.02168  -0.00854  -0.00153
  17 3197111.4      3.1   0.006230800   0.00064   0.02464  -0.00567   0.00154
  18 3204119.5      3.1   0.003342604   0.00034   0.00641   0.01738   0.00061
  19 3210140.7      3.1   0.005517838   0.00057  -0.02304   0.00575  -0.00144
  20 3221783.1      3.1   0.010148893   0.00104  -0.02002   0.02520  -0.00103

-----------------------------------------------------------------------------
         ABSORPTION SPECTRUM VIA TRANSITION VELOCITY DIPOLE MOMENTS
-----------------------------------------------------------------------------
State   Energy    Wavelength   fosc        P2         PX        PY        PZ  
        (cm-1)      (nm)                 (au**2)     (au)      (au)      (au) 
-----------------------------------------------------------------------------
   1 3129633.0      3.2   0.032657778   0.69853   0.05483   0.00979  -0.83392
   2 3138983.9      3.2   0.011461834   0.24590   0.03274   0.00561  -0.49476
   3 3146402.3      3.2   0.027201865   0.58495  -0.04997  -0.00884   0.76314
   4 3147300.1      3.2   0.001791722   0.03854  -0.16592   0.10445  -0.01012
   5 3157343.6      3.2   0.019447990   0.41967   0.63216   0.13488   0.04294
   6 3159575.6      3.2   0.000676654   0.01461   0.11783  -0.02593   0.00739
   7 3162125.5      3.2   0.000009152   0.00020  -0.00163  -0.00040   0.01396
   8 3163610.5      3.2   0.002042670   0.04417   0.14941  -0.14757   0.00809
   9 3166639.7      3.2   0.001072252   0.02321  -0.01837   0.15122   0.00068
  10 3174365.6      3.2   0.018129199   0.39332  -0.16357  -0.60518  -0.01777
  11 3175803.3      3.1   0.000090368   0.00196   0.04209   0.01346   0.00294
  12 3180206.0      3.1   0.000698142   0.01517  -0.07646   0.09651  -0.00385
  13 3180225.9      3.1   0.003594413   0.07813   0.13936   0.24200   0.01179
  14 3185912.2      3.1   0.010140327   0.22080  -0.17938  -0.43397  -0.01693
  15 3189774.0      3.1   0.023032071   0.50211  -0.10033   0.70146   0.00161
  16 3194020.6      3.1   0.005479969   0.11963   0.32171   0.12495   0.02271
  17 3197111.4      3.1   0.006162696   0.13466  -0.35662   0.08358  -0.02224
  18 3204119.5      3.1   0.003706669   0.08117  -0.10068  -0.26635  -0.00958
  19 3210140.7      3.1   0.005479308   0.12021   0.33902  -0.06946   0.02131
  20 3221783.1      3.1   0.010616449   0.23377   0.30290  -0.37653   0.01565

-------------------------------------------------------------------
                             CD SPECTRUM
-------------------------------------------------------------------
State  Energy     Wavelength     R         MX        MY        MZ   
       (cm-1)       (nm)     (1e40*cgs)   (au)      (au)      (au)  
-------------------------------------------------------------------
   1 3129633.0      3.2      0.00000  -0.36486  -0.87993  -0.03432
   2 3138983.9      3.2      0.00014  -0.21655  -0.52311  -0.02026
   3 3146402.3      3.2      0.00005   0.19034  -0.79271   0.00328
   4 3147300.1      3.2     -0.00010   0.00222  -0.00002  -0.03665
   5 3157343.6      3.2      0.00001   0.00106   0.00048  -0.01712
   6 3159575.6      3.2      0.00001   0.00167   0.00024  -0.02572
   7 3162125.5      3.2      0.00000   0.00353  -0.01436  -0.00000
   8 3163610.5      3.2     -0.00001  -0.00588  -0.00105   0.08942
   9 3166639.7      3.2     -0.00002   0.01003   0.00190  -0.15180
  10 3174365.6      3.2     -0.00014  -0.04649  -0.00821   0.70744
  11 3175803.3      3.1      0.00000  -0.00023  -0.00005   0.00350
  12 3180206.0      3.1     -0.00006  -0.00940  -0.00171   0.14297
  13 3180225.9      3.1      0.00004   0.02008   0.00337  -0.30669
  14 3185912.2      3.1     -0.00001   0.02667   0.00478  -0.40512
  15 3189774.0      3.1      0.00007  -0.04947  -0.00880   0.75131
  16 3194020.6      3.1      0.00008   0.01790   0.00327  -0.27158
  17 3197111.4      3.1     -0.00004  -0.01143  -0.00232   0.17458
  18 3204119.5      3.1     -0.00011  -0.02123  -0.00363   0.32394
  19 3210140.7      3.1      0.00007   0.01024   0.00203  -0.15622
  20 3221783.1      3.1      0.00010   0.03121   0.00542  -0.47361

Total run time:       27.643 sec

           *** ORCA-CIS/TD-DFT FINISHED WITHOUT ERROR ***

-----------------------
CIS/TD-DFT TOTAL ENERGY
-----------------------

    E(SCF)  =   -226.076632389 Eh
    DE(CIS) =     14.259656965 Eh (Root  1)
    ----------------------------- ---------
    E(tot)  =   -211.816975424 Eh


-------------------------   --------------------
FINAL SINGLE POINT ENERGY      -211.816975423932
-------------------------   --------------------


                            ***************************************
                            *     ORCA property calculations      *
                            ***************************************

                                    ---------------------
                                    Active property flags
                                    ---------------------
   (+) Dipole Moment


------------------------------------------------------------------------------
                       ORCA ELECTRIC PROPERTIES CALCULATION
------------------------------------------------------------------------------

Dipole Moment Calculation                       ... on
Quadrupole Moment Calculation                   ... off
Polarizability Calculation                      ... off
GBWName                                         ... /Users/lailaal-madhagi/Desktop/Testing_XAS_Analysis_code/Imidazole/Gas//Results_dir_Imidazole_geom_element_N_2019-11-03_16-54-11//GTE1_Imidazole_geom_2019-11-03_16-54-36//TDDFT_N-edge.gbw
Electron density file                           ... /Users/lailaal-madhagi/Desktop/Testing_XAS_Analysis_code/Imidazole/Gas//Results_dir_Imidazole_geom_element_N_2019-11-03_16-54-11//GTE1_Imidazole_geom_2019-11-03_16-54-36//TDDFT_N-edge.scfp.tmp
The origin for moment calculation is the CENTER OF MASS  = (-21.238253, 13.987913 -0.152673)

-------------
DIPOLE MOMENT
-------------
                                X             Y             Z
Electronic contribution:      0.35672      -0.68882       0.01523
Nuclear contribution   :     -1.81106       0.76814      -0.10959
                        -----------------------------------------
Total Dipole Moment    :     -1.45434       0.07932      -0.09436
                        -----------------------------------------
Magnitude (a.u.)       :      1.45955
Magnitude (Debye)      :      3.70989



--------------------
Rotational spectrum 
--------------------
 
Rotational constants in cm-1:     0.324595     0.312037     0.159096 
Rotational constants in MHz :  9731.119603  9354.631688  4769.581218 

 Dipole components along the rotational axes: 
x,y,z [a.u.] :    -1.434447     0.269559     0.000462 
x,y,z [Debye]:    -3.646074     0.685164     0.001175 

 

Timings for individual modules:

Sum of individual times         ...       39.040 sec (=   0.651 min)
GTO integral calculation        ...        0.296 sec (=   0.005 min)   0.8 %
SCF iterations                  ...        9.914 sec (=   0.165 min)  25.4 %
CIS module                      ...       28.830 sec (=   0.481 min)  73.8 %
                             ****ORCA TERMINATED NORMALLY****
TOTAL RUN TIME: 0 days 0 hours 0 minutes 39 seconds 177 msec
