16
	Energy:      24.6849388
C         -1.45870        0.89216       -0.19421
C         -0.06986        1.13936       -0.31797
C         -1.95849       -0.39360        0.00028
C         -1.09047       -1.47372        0.07762
C          0.28150       -1.27277       -0.03922
C          0.82084        0.01292       -0.23635
N          2.23997        0.10048       -0.34217
H          2.76444        0.96692       -0.48584
H          2.81215       -0.75430       -0.27330
N          0.35650        2.50063       -0.51700
O         -0.45254        3.37800       -0.57292
O          1.50664        2.78765       -0.62968
H          0.93517       -2.13414        0.02502
H         -3.02561       -0.55140        0.09135
H         -1.48104       -2.47193        0.22879
H         -2.17352        1.70335       -0.24809
