
                                 *****************
                                 * O   R   C   A *
                                 *****************

           --- An Ab Initio, DFT and Semiempirical electronic structure package ---

                  #######################################################
                  #                        -***-                        #
                  #          Department of theory and spectroscopy      #
                  #               Directorship: Frank Neese             #
                  #        Max Planck Institute fuer Kohlenforschung    #
                  #                Kaiser Wilhelm Platz 1               #
                  #                 D-45470 Muelheim/Ruhr               #
                  #                      Germany                        #
                  #                                                     #
                  #                  All rights reserved                #
                  #                        -***-                        #
                  #######################################################


                         Program Version 4.1.0  - RELEASE  -


 With contributions from (in alphabetic order):
   Daniel Aravena         : Magnetic Properties
   Michael Atanasov       : Ab Initio Ligand Field Theory
   Alexander A. Auer      : GIAO ZORA
   Ute Becker             : Parallelization
   Giovanni Bistoni       : ED, Open-shell LED
   Martin Brehm           : Molecular dynamics
   Dmytro Bykov           : SCF Hessian
   Vijay G. Chilkuri      : MRCI spin determinant printing
   Dipayan Datta          : RHF DLPNO-CCSD density
   Achintya Kumar Dutta   : EOM-CC, STEOM-CC
   Dmitry Ganyushin       : Spin-Orbit,Spin-Spin,Magnetic field MRCI
   Miquel Garcia          : C-PCM Hessian
   Yang Guo               : DLPNO-NEVPT2, CIM, IAO-localization
   Andreas Hansen         : Spin unrestricted coupled pair/coupled cluster methods
   Benjamin Helmich-Paris : CASSCF linear response (MC-RPA)
   Lee Huntington         : MR-EOM, pCC
   Robert Izsak           : Overlap fitted RIJCOSX, COSX-SCS-MP3, EOM
   Christian Kollmar      : KDIIS, OOCD, Brueckner-CCSD(T), CCSD density
   Simone Kossmann        : Meta GGA functionals, TD-DFT gradient, OOMP2, MP2 Hessian
   Martin Krupicka        : AUTO-CI
   Lucas Lang             : DCDCAS
   Dagmar Lenk            : GEPOL surface, SMD
   Dimitrios Liakos       : Extrapolation schemes; parallel MDCI
   Dimitrios Manganas     : ROCIS; embedding schemes
   Dimitrios Pantazis     : SARC Basis sets
   Taras Petrenko         : DFT Hessian,TD-DFT gradient, ASA, ECA, R-Raman, ABS, FL, XAS/XES, NRVS
   Peter Pinski           : DLPNO-MP2, DLPNO-MP2 Gradient
   Christoph Reimann      : Effective Core Potentials
   Marius Retegan         : Local ZFS, SOC
   Christoph Riplinger    : Optimizer, TS searches, QM/MM, DLPNO-CCSD(T), (RO)-DLPNO pert. Triples
   Tobias Risthaus        : Range-separated hybrids, TD-DFT gradient, RPA, STAB
   Michael Roemelt        : Restricted open shell CIS
   Masaaki Saitow         : Open-shell DLPNO
   Barbara Sandhoefer     : DKH picture change effects
   Avijit Sen             : IP-ROCIS
   Kantharuban Sivalingam : CASSCF convergence, NEVPT2, FIC-MRCI
   Bernardo de Souza      : ESD, SOC TD-DFT
   Georgi Stoychev        : AutoAux, RI-MP2 NMR
   Willem Van den Heuvel  : Paramagnetic NMR
   Boris Wezisla          : Elementary symmetry handling
   Frank Wennmohs         : Technical directorship


 We gratefully acknowledge several colleagues who have allowed us to
 interface, adapt or use parts of their codes:
   Stefan Grimme, W. Hujo, H. Kruse,             : VdW corrections, initial TS optimization,
                  C. Bannwarth                     DFT functionals, gCP, sTDA/sTD-DF
   Ed Valeev                                     : LibInt (2-el integral package), F12 methods
   Garnet Chan, S. Sharma, J. Yang, R. Olivares  : DMRG
   Ulf Ekstrom                                   : XCFun DFT Library
   Mihaly Kallay                                 : mrcc  (arbitrary order and MRCC methods)
   Andreas Klamt, Michael Diedenhofen            : otool_cosmo (COSMO solvation model)
   Jiri Pittner, Ondrej Demel                    : Mk-CCSD
   Frank Weinhold                                : gennbo (NPA and NBO analysis)
   Christopher J. Cramer and Donald G. Truhlar   : smd solvation model
   Lars Goerigk                                  : TD-DFT with DH, B97 family of functionals
   V. Asgeirsson, H. Jonsson                     : NEB implementation
   FAccTs GmbH                                   : IRC, NEB, NEB-TS, Multilevel


 Your calculation uses the libint2 library for the computation of 2-el integrals
 For citations please refer to: http://libint.valeyev.net

 This ORCA versions uses:
   CBLAS   interface :  Fast vector & matrix operations
   LAPACKE interface :  Fast linear algebra routines
   SCALAPACK package :  Parallel linear algebra routines




***************************************
The coordinates will be read from file: /Users/lailaal-madhagi/Desktop/Testing_XAS_Analysis_code/CarbonMonoxide/CarbonMonoxide_geom.xyz
***************************************


----- Orbital basis set information -----
Your calculation utilizes the basis: 6-31G*
   H-He, Li-Ne : W. J. Hehre, R. Ditchfield and J.A. Pople, J. Chem. Phys. 56, 2257 (1972).
                 Note: He and Ne are unpublished basis sets taken from the Gaussian program.
                 Note: Li and B from J. D. Dill and J. A. Pople, J. Chem. Phys. 62, 2921 (1975).
   Na - Ar     : M. M. Francl, W. J. Pietro, W. J. Hehre, J. S. Binkley, M. S. Gordon, 
                 D. J. DeFrees and J. A. Pople, J. Chem. Phys. 77, 3654 (1982).
   K - Zn      : V. A. Rassolov, J. A. Pople, M. A. Ratner, and T. L. Windus, J. Chem. Phys. 109, 1223 (1998).

================================================================================
                                        WARNINGS
                       Please study these warnings very carefully!
================================================================================


WARNING: Geometry Optimization
  ===> : Switching off AutoStart
         For restart on a previous wavefunction, please use MOREAD

INFO   : the flag for use of LIBINT has been found!

================================================================================
                                       INPUT FILE
================================================================================
NAME = /Users/lailaal-madhagi/Desktop/Testing_XAS_Analysis_code/CarbonMonoxide//Results_dir_CarbonMonoxide_geom_element_C_2019-11-10_00-49-59//GTE1_CarbonMonoxide_geom_2019-11-10_00-50-26//opt.inp
|  1> ! B3LYP 6-31G* TIGHTSCF Grid3 FinalGrid5 Opt 
|  2> !NormalPrint 
|  3> %output 
|  4> Print[P_Basis] 2 
|  5> Print[P_MOS] 1 
|  6> end 
|  7> *xyzfile 0 1 /Users/lailaal-madhagi/Desktop/Testing_XAS_Analysis_code/CarbonMonoxide/CarbonMonoxide_geom.xyz                           ****END OF INPUT****
================================================================================

                       *****************************
                       * Geometry Optimization Run *
                       *****************************

Geometry optimization settings:
Update method            Update   .... BFGS
Choice of coordinates    CoordSys .... Z-matrix Internals
Initial Hessian          InHess   .... Almoef's Model

Convergence Tolerances:
Energy Change            TolE     ....  5.0000e-06 Eh
Max. Gradient            TolMAXG  ....  3.0000e-04 Eh/bohr
RMS Gradient             TolRMSG  ....  1.0000e-04 Eh/bohr
Max. Displacement        TolMAXD  ....  4.0000e-03 bohr
RMS Displacement         TolRMSD  ....  2.0000e-03 bohr

------------------------------------------------------------------------------
                        ORCA OPTIMIZATION COORDINATE SETUP
------------------------------------------------------------------------------

The optimization will be done in new redundant internal coordinates
Making redundant internal coordinates   ...  (new redundants) done
Evaluating the initial hessian          ...  (Almloef) done
Evaluating the coordinates              ...  done
Calculating the B-matrix                .... done
Calculating the G-matrix                .... done
Diagonalizing the G-matrix              .... done
The first mode is                       ....    0
The number of degrees of freedom        ....    1

    -----------------------------------------------------------------
                    Redundant Internal Coordinates


    -----------------------------------------------------------------
         Definition                    Initial Value    Approx d2E/dq
    -----------------------------------------------------------------
      1. B(O   1,C   0)                  1.1281         1.464543   
    -----------------------------------------------------------------

Number of atoms                         .... 2
Number of degrees of freedom            .... 1

         *************************************************************
         *                GEOMETRY OPTIMIZATION CYCLE   1            *
         *************************************************************
---------------------------------
CARTESIAN COORDINATES (ANGSTROEM)
---------------------------------
  C     -1.755750   -0.005000    0.305690
  O     -0.665490    0.134780    0.051860

----------------------------
CARTESIAN COORDINATES (A.U.)
----------------------------
  NO LB      ZA    FRAG     MASS         X           Y           Z
   0 C     6.0000    0    12.011   -3.317887   -0.009449    0.577670
   1 O     8.0000    0    15.999   -1.257594    0.254697    0.098001

--------------------------------
INTERNAL COORDINATES (ANGSTROEM)
--------------------------------
 C      0   0   0     0.000000000000     0.00000000     0.00000000
 O      1   0   0     1.128111246686     0.00000000     0.00000000

---------------------------
INTERNAL COORDINATES (A.U.)
---------------------------
 C      0   0   0     0.000000000000     0.00000000     0.00000000
 O      1   0   0     2.131821304833     0.00000000     0.00000000

---------------------
BASIS SET INFORMATION
---------------------
There are 2 groups of distinct atoms

 Group   1 Type C   : 10s4p1d contracted to 3s2p1d pattern {631/31/1}
 Group   2 Type O   : 10s4p1d contracted to 3s2p1d pattern {631/31/1}

Atom   0C    basis set group =>   1
Atom   1O    basis set group =>   2

-------------------------
BASIS SET IN INPUT FORMAT
-------------------------

 # Basis set for element : C 
 NewGTO C 
 S 6 
   1    3047.5249000000      0.0018347002
   2     457.3695100000      0.0140373012
   3     103.9486900000      0.0688426061
   4      29.2101550000      0.2321844206
   5       9.2866630000      0.4679413416
   6       3.1639270000      0.3623120322
 S 3 
   1       7.8682724000     -0.1193324086
   2       1.8812885000     -0.1608542116
   3       0.5442493000      1.1434564826
 P 3 
   1       7.8682724000      0.0689990956
   2       1.8812885000      0.3164239798
   3       0.5442493000      0.7443082524
 S 1 
   1       0.1687144000      1.0000000000
 P 1 
   1       0.1687144000      1.0000000000
 D 1 
   1       0.8000000000      1.0000000000
  end;

 # Basis set for element : O 
 NewGTO O 
 S 6 
   1    5484.6717000000      0.0018310998
   2     825.2349500000      0.0139500985
   3     188.0469600000      0.0684450927
   4      52.9645000000      0.2327142753
   5      16.8975700000      0.4701929501
   6       5.7996353000      0.3585208619
 S 3 
   1      15.5396160000     -0.1107775038
   2       3.5999336000     -0.1480263051
   3       1.0137618000      1.1307670390
 P 3 
   1      15.5396160000      0.0708742995
   2       3.5999336000      0.3397527978
   3       1.0137618000      0.7271585953
 S 1 
   1       0.2700058000      1.0000000000
 P 1 
   1       0.2700058000      1.0000000000
 D 1 
   1       0.8000000000      1.0000000000
  end;

------------------------------------------------------------------------------
                           ORCA GTO INTEGRAL CALCULATION
------------------------------------------------------------------------------

                         BASIS SET STATISTICS AND STARTUP INFO

 # of primitive gaussian shells          ...   30
 # of primitive gaussian functions       ...   54
 # of contracted shells                  ...   12
 # of contracted basis functions         ...   28
 Highest angular momentum                ...    2
 Maximum contraction depth               ...    6
 Integral package used                   ... LIBINT
 Integral threshhold            Thresh   ...  2.500e-11
 Primitive cut-off              TCut     ...  2.500e-12


------------------------------ INTEGRAL EVALUATION ----------------------------


 * One electron integrals 
 Pre-screening matrix                    ... done
 Shell pair data                         ... done (   0.001 sec)

-------------------------------------------------------------------------------
                                 ORCA SCF
-------------------------------------------------------------------------------

------------
SCF SETTINGS
------------
Hamiltonian:
 Density Functional     Method          .... DFT(GTOs)
 Exchange Functional    Exchange        .... B88
   X-Alpha parameter    XAlpha          ....  0.666667
   Becke's b parameter  XBeta           ....  0.004200
 Correlation Functional Correlation     .... LYP
 LDA part of GGA corr.  LDAOpt          .... VWN-5
 Gradients option       PostSCFGGA      .... off
 Hybrid DFT is turned on
   Fraction HF Exchange ScalHFX         ....  0.200000
   Scaling of DF-GGA-X  ScalDFX         ....  0.720000
   Scaling of DF-GGA-C  ScalDFC         ....  0.810000
   Scaling of DF-LDA-C  ScalLDAC        ....  1.000000
   Perturbative correction              ....  0.000000
   Density functional embedding theory  .... OFF
   NL short-range parameter             ....  4.800000


General Settings:
 Integral files         IntName         .... /Users/lailaal-madhagi/Desktop/Testing_XAS_Analysis_code/CarbonMonoxide//Results_dir_CarbonMonoxide_geom_element_C_2019-11-10_00-49-59//GTE1_CarbonMonoxide_geom_2019-11-10_00-50-26//opt
 Hartree-Fock type      HFTyp           .... RHF
 Total Charge           Charge          ....    0
 Multiplicity           Mult            ....    1
 Number of Electrons    NEL             ....   14
 Basis Dimension        Dim             ....   28
 Nuclear Repulsion      ENuc            ....     22.5159584864 Eh

Convergence Acceleration:
 DIIS                   CNVDIIS         .... on
   Start iteration      DIISMaxIt       ....    12
   Startup error        DIISStart       ....  0.200000
   # of expansion vecs  DIISMaxEq       ....     5
   Bias factor          DIISBfac        ....   1.050
   Max. coefficient     DIISMaxC        ....  10.000
 Newton-Raphson         CNVNR           .... off
 SOSCF                  CNVSOSCF        .... on
   Start iteration      SOSCFMaxIt      ....   150
   Startup grad/error   SOSCFStart      ....  0.003300
 Level Shifting         CNVShift        .... on
   Level shift para.    LevelShift      ....    0.2500
   Turn off err/grad.   ShiftErr        ....    0.0010
 Zerner damping         CNVZerner       .... off
 Static damping         CNVDamp         .... on
   Fraction old density DampFac         ....    0.7000
   Max. Damping (<1)    DampMax         ....    0.9800
   Min. Damping (>=0)   DampMin         ....    0.0000
   Turn off err/grad.   DampErr         ....    0.1000
 Fernandez-Rico         CNVRico         .... off

SCF Procedure:
 Maximum # iterations   MaxIter         ....   125
 SCF integral mode      SCFMode         .... Direct
   Integral package                     .... LIBINT
 Reset frequency        DirectResetFreq ....    20
 Integral Threshold     Thresh          ....  2.500e-11 Eh
 Primitive CutOff       TCut            ....  2.500e-12 Eh

Convergence Tolerance:
 Convergence Check Mode ConvCheckMode   .... Total+1el-Energy
 Convergence forced     ConvForced      .... 0
 Energy Change          TolE            ....  1.000e-08 Eh
 1-El. energy change                    ....  1.000e-05 Eh
 Orbital Gradient       TolG            ....  1.000e-05
 Orbital Rotation angle TolX            ....  1.000e-05
 DIIS Error             TolErr          ....  5.000e-07


Diagonalization of the overlap matrix:
Smallest eigenvalue                        ... 1.512e-02
Time for diagonalization                   ...    0.001 sec
Threshold for overlap eigenvalues          ... 1.000e-08
Number of eigenvalues below threshold      ... 0
Time for construction of square roots      ...    0.000 sec
Total time needed                          ...    0.001 sec

-------------------
DFT GRID GENERATION
-------------------

General Integration Accuracy     IntAcc      ...  4.340
Radial Grid Type                 RadialGrid  ... Gauss-Chebyshev
Angular Grid (max. acc.)         AngularGrid ... Lebedev-194
Angular grid pruning method      GridPruning ... 3 (G Style)
Weight generation scheme         WeightScheme... Becke
Basis function cutoff            BFCut       ...    1.0000e-11
Integration weight cutoff        WCut        ...    1.0000e-14
Grids for H and He will be reduced by one unit

# of grid points (after initial pruning)     ...   6632 (   0.0 sec)
# of grid points (after weights+screening)   ...   6610 (   0.0 sec)
nearest neighbour list constructed           ...    0.0 sec
Grid point re-assignment to atoms done       ...    0.0 sec
Grid point division into batches done        ...    0.0 sec
Reduced shell lists constructed in    0.0 sec

Total number of grid points                  ...     6610
Total number of batches                      ...      104
Average number of points per batch           ...       63
Average number of grid points per atom       ...     3305
Average number of shells per batch           ...     9.90 (82.46%)
Average number of basis functions per batch  ...    23.80 (85.00%)
Average number of large shells per batch     ...     9.18 (92.78%)
Average number of large basis fcns per batch ...    22.34 (93.88%)
Maximum spatial batch extension              ...  16.31, 21.21, 21.21 au
Average spatial batch extension              ...   4.35,  5.19,  5.10 au

Time for grid setup =    0.059 sec

------------------------------
INITIAL GUESS: MODEL POTENTIAL
------------------------------
Loading Hartree-Fock densities                     ... done
Calculating cut-offs                               ... done
Setting up the integral package                    ... done
Initializing the effective Hamiltonian             ... done
Starting the Coulomb interaction                   ... done (   0.0 sec)
Reading the grid                                   ... done
Mapping shells                                     ... done
Starting the XC term evaluation                    ... done (   0.0 sec)
  promolecular density results
     # of electrons  =     13.999994053
     EX              =    -13.251528160
     EC              =     -0.483471690
     EX+EC           =    -13.734999850
Transforming the Hamiltonian                       ... done (   0.0 sec)
Diagonalizing the Hamiltonian                      ... done (   0.0 sec)
Back transforming the eigenvectors                 ... done (   0.0 sec)
Now organizing SCF variables                       ... done
                      ------------------
                      INITIAL GUESS DONE (   0.2 sec)
                      ------------------
--------------
SCF ITERATIONS
--------------
               ***  Starting incremental Fock matrix formation  ***

                         ----------------------------
                         !        ITERATION     0   !
                         ----------------------------
   Total Energy        :    -113.218033918021 Eh
   Energy Change       :    -113.218033918021 Eh
   MAX-DP              :       0.067117207422
   RMS-DP              :       0.004784163373
   Actual Damping      :       0.7000
   Actual Level Shift  :       0.2500 Eh
   Int. Num. El.       :    13.99998403 (UP=    6.99999201 DN=    6.99999201)
   Exchange            :   -10.74798983
   Correlation         :    -0.57761823


                         ----------------------------
                         !        ITERATION     1   !
                         ----------------------------
   Total Energy        :    -113.236853018529 Eh
   Energy Change       :      -0.018819100509 Eh
   MAX-DP              :       0.033864120623
   RMS-DP              :       0.002369501997
   Actual Damping      :       0.7000
   Actual Level Shift  :       0.2500 Eh
   Int. Num. El.       :    13.99998398 (UP=    6.99999199 DN=    6.99999199)
   Exchange            :   -10.66880952
   Correlation         :    -0.57535890

                               ***Turning on DIIS***

                         ----------------------------
                         !        ITERATION     2   !
                         ----------------------------
   Total Energy        :    -113.241324376349 Eh
   Energy Change       :      -0.004471357820 Eh
   MAX-DP              :       0.073923282429
   RMS-DP              :       0.003817131827
   Actual Damping      :       0.0000
   Actual Level Shift  :       0.2500 Eh
   Int. Num. El.       :    13.99998389 (UP=    6.99999194 DN=    6.99999194)
   Exchange            :   -10.62924689
   Correlation         :    -0.57413624
   DIIS-Error          :       0.019892807475


                         ----------------------------
                         !        ITERATION     3   !
                         ----------------------------
   Total Energy        :    -113.253678553593 Eh
   Energy Change       :      -0.012354177244 Eh
   MAX-DP              :       0.021547226940
   RMS-DP              :       0.001572480173
   Actual Damping      :       0.0000
   Actual Level Shift  :       0.2500 Eh
   Int. Num. El.       :    13.99998375 (UP=    6.99999187 DN=    6.99999187)
   Exchange            :   -10.59759564
   Correlation         :    -0.57294157
   DIIS-Error          :       0.025422358731
   DIIS coefficients:
      0.50292   0.49708


                         ----------------------------
                         !        ITERATION     4   !
                         ----------------------------
   Total Energy        :    -113.253917093061 Eh
   Energy Change       :      -0.000238539468 Eh
   MAX-DP              :       0.013320021604
   RMS-DP              :       0.000836838794
   Actual Damping      :       0.0000
   Actual Level Shift  :       0.2500 Eh
   Int. Num. El.       :    13.99998383 (UP=    6.99999191 DN=    6.99999191)
   Exchange            :   -10.62217124
   Correlation         :    -0.57369252
   DIIS-Error          :       0.020840022905
   DIIS coefficients:
      0.19574   0.33998   0.46428


                         ----------------------------
                         !        ITERATION     5   !
                         ----------------------------
   Total Energy        :    -113.254335647441 Eh
   Energy Change       :      -0.000418554379 Eh
   MAX-DP              :       0.003579931456
   RMS-DP              :       0.000211953012
   Actual Damping      :       0.0000
   Actual Level Shift  :       0.2500 Eh
   Int. Num. El.       :    13.99998385 (UP=    6.99999193 DN=    6.99999193)
   Exchange            :   -10.61866172
   Correlation         :    -0.57364981
   DIIS-Error          :       0.005909960427
   DIIS coefficients:
      0.04457   0.11478  -0.11659   0.95724

                      *** Initiating the SOSCF procedure ***
                           *** Shutting down DIIS ***
                      *** Re-Reading the Fockian *** 
                      *** Removing any level shift *** 

                         ----------------------------
                         !        ITERATION     6   !
                         ----------------------------
   Total Energy        :    -113.254366670911 Eh
   Energy Change       :      -0.000031023470 Eh
   MAX-DP              :       0.000857402116
   RMS-DP              :       0.000058945823
   Orbital gradient    :       0.000305970249
   Orbital Rotation    :       0.000305970249
   Actual Damping      :       0.0000
   Int. Num. El.       :    13.99998385 (UP=    6.99999193 DN=    6.99999193)
   Exchange            :   -10.61730213
   Correlation         :    -0.57361556

               *** Restarting incremental Fock matrix formation ***

                         ----------------------------
                         !        ITERATION     7   !
                         ----------------------------
   Total Energy        :    -113.254369143798 Eh
   Energy Change       :      -0.000002472887 Eh
   MAX-DP              :       0.000699379958
   RMS-DP              :       0.000062946496
   Orbital gradient    :       0.000252617982
   Orbital Rotation    :       0.000557908873
   Actual Damping      :       0.0000
   Int. Num. El.       :    13.99998385 (UP=    6.99999193 DN=    6.99999193)
   Exchange            :   -10.61683707
   Correlation         :    -0.57360224


                         ----------------------------
                         !        ITERATION     8   !
                         ----------------------------
   Total Energy        :    -113.254368256786 Eh
   Energy Change       :       0.000000887012 Eh
   MAX-DP              :       0.000480784013
   RMS-DP              :       0.000040461791
   Orbital gradient    :       0.000529123091
   Orbital Rotation    :       0.000349891200
   Actual Damping      :       0.0000
   Int. Num. El.       :    13.99998385 (UP=    6.99999192 DN=    6.99999192)
   Exchange            :   -10.61618862
   Correlation         :    -0.57358402


                         ----------------------------
                         !        ITERATION     9   !
                         ----------------------------
   Total Energy        :    -113.254369373129 Eh
   Energy Change       :      -0.000001116343 Eh
   MAX-DP              :       0.000017015408
   RMS-DP              :       0.000001293939
   Orbital gradient    :       0.000004784748
   Orbital Rotation    :       0.000007433118
   Actual Damping      :       0.0000
   Int. Num. El.       :    13.99998385 (UP=    6.99999192 DN=    6.99999192)
   Exchange            :   -10.61664506
   Correlation         :    -0.57359628

                 **** Energy Check signals convergence ****
              ***Rediagonalizing the Fockian in SOSCF/NRSCF***

               *****************************************************
               *                     SUCCESS                       *
               *           SCF CONVERGED AFTER  10 CYCLES          *
               *****************************************************

Setting up the final grid:

General Integration Accuracy     IntAcc      ...  5.010
Radial Grid Type                 RadialGrid  ... Gauss-Chebyshev
Angular Grid (max. acc.)         AngularGrid ... Lebedev-434
Angular grid pruning method      GridPruning ... 3 (G Style)
Weight generation scheme         WeightScheme... Becke
Basis function cutoff            BFCut       ...    1.0000e-11
Integration weight cutoff        WCut        ...    1.0000e-14
Grids for H and He will be reduced by one unit

# of grid points (after initial pruning)     ...  21540 (   0.0 sec)
# of grid points (after weights+screening)   ...  21473 (   0.0 sec)
nearest neighbour list constructed           ...    0.0 sec
Grid point re-assignment to atoms done       ...    0.0 sec
Grid point division into batches done        ...    0.2 sec
Reduced shell lists constructed in    0.2 sec

Total number of grid points                  ...    21473
Total number of batches                      ...      336
Average number of points per batch           ...       63
Average number of grid points per atom       ...    10736
Average number of shells per batch           ...     9.23 (76.93%)
Average number of basis functions per batch  ...    22.19 (79.26%)
Average number of large shells per batch     ...     8.56 (92.70%)
Average number of large basis fcns per batch ...    20.84 (93.92%)
Maximum spatial batch extension              ...  19.80, 19.91, 21.21 au
Average spatial batch extension              ...   3.33,  3.50,  3.54 au

Final grid set up in    0.2 sec
Final integration                            ... done (   0.0 sec)
Change in XC energy                          ...    -0.000060806
Integrated number of electrons               ...    14.000000291
Previous integrated no of electrons          ...    13.999983848

----------------
TOTAL SCF ENERGY
----------------

Total Energy       :         -113.25443018 Eh           -3081.80972 eV

Components:
Nuclear Repulsion  :           22.51595849 Eh             612.69038 eV
Electronic Energy  :         -135.77038867 Eh           -3694.50010 eV
One Electron Energy:         -198.36873020 Eh           -5397.88757 eV
Two Electron Energy:           62.59834153 Eh            1703.38747 eV

Virial components:
Potential Energy   :         -225.87268717 Eh           -6146.30829 eV
Kinetic Energy     :          112.61825699 Eh            3064.49857 eV
Virial Ratio       :            2.00564893


DFT components:
N(Alpha)           :        7.000000145681 electrons
N(Beta)            :        7.000000145681 electrons
N(Total)           :       14.000000291361 electrons
E(X)               :      -10.616702164827 Eh       
E(C)               :       -0.573597473346 Eh       
E(XC)              :      -11.190299638173 Eh       
DFET-embed. en.    :        0.000000000000 Eh       

---------------
SCF CONVERGENCE
---------------

  Last Energy change         ...   -1.8957e-10  Tolerance :   1.0000e-08
  Last MAX-Density change    ...    5.0318e-06  Tolerance :   1.0000e-07
  Last RMS-Density change    ...    2.5953e-07  Tolerance :   5.0000e-09
  Last Orbital Gradient      ...    1.4585e-06  Tolerance :   1.0000e-05
  Last Orbital Rotation      ...    1.0715e-06  Tolerance :   1.0000e-05

             **** THE GBW FILE WAS UPDATED (/Users/lailaal-madhagi/Desktop/Testing_XAS_Analysis_code/CarbonMonoxide//Results_dir_CarbonMonoxide_geom_element_C_2019-11-10_00-49-59//GTE1_CarbonMonoxide_geom_2019-11-10_00-50-26//opt.gbw) ****
             **** DENSITY FILE WAS UPDATED (/Users/lailaal-madhagi/Desktop/Testing_XAS_Analysis_code/CarbonMonoxide//Results_dir_CarbonMonoxide_geom_element_C_2019-11-10_00-49-59//GTE1_CarbonMonoxide_geom_2019-11-10_00-50-26//opt.scfp.tmp) ****
             **** ENERGY FILE WAS UPDATED (/Users/lailaal-madhagi/Desktop/Testing_XAS_Analysis_code/CarbonMonoxide//Results_dir_CarbonMonoxide_geom_element_C_2019-11-10_00-49-59//GTE1_CarbonMonoxide_geom_2019-11-10_00-50-26//opt.en.tmp) ****
----------------
ORBITAL ENERGIES
----------------

  NO   OCC          E(Eh)            E(eV) 
   0   2.0000     -19.249339      -523.8011 
   1   2.0000     -10.294303      -280.1222 
   2   2.0000      -1.159367       -31.5480 
   3   2.0000      -0.565781       -15.3957 
   4   2.0000      -0.466777       -12.7016 
   5   2.0000      -0.466774       -12.7016 
   6   2.0000      -0.366377        -9.9696 
   7   0.0000      -0.013955        -0.3797 
   8   0.0000      -0.013954        -0.3797 
   9   0.0000       0.268322         7.3014 
  10   0.0000       0.515184        14.0189 
  11   0.0000       0.515186        14.0189 
  12   0.0000       0.588394        16.0110 
  13   0.0000       0.768379        20.9087 
  14   0.0000       0.837653        22.7937 
  15   0.0000       0.920518        25.0486 
  16   0.0000       0.920521        25.0487 
  17   0.0000       1.479631        40.2628 
  18   0.0000       1.479634        40.2629 
  19   0.0000       1.513525        41.1851 
  20   0.0000       1.551862        42.2283 
  21   0.0000       1.551864        42.2284 
  22   0.0000       1.951842        53.1123 
  23   0.0000       1.951847        53.1125 
  24   0.0000       2.443862        66.5009 
  25   0.0000       2.613523        71.1176 
  26   0.0000       2.613526        71.1177 
  27   0.0000       2.972761        80.8929 
------------------
MOLECULAR ORBITALS
------------------
                      0         1         2         3         4         5   
                 -19.24934 -10.29430  -1.15937  -0.56578  -0.46678  -0.46677
                   2.00000   2.00000   2.00000   2.00000   2.00000   2.00000
                  --------  --------  --------  --------  --------  --------
  0C   1s        -0.000285 -0.995198 -0.115719  0.131262  0.000001 -0.000001
  0C   2s         0.000424 -0.033931  0.217440 -0.280973 -0.000002  0.000002
  0C   1pz       -0.000215  0.001392 -0.049675  0.025852  0.066047 -0.301568
  0C   1px        0.000924 -0.005981  0.213364 -0.111042 -0.024230 -0.077695
  0C   1py        0.000118 -0.000767  0.027355 -0.014237  0.308928  0.058380
  0C   3s        -0.008058  0.004395  0.047979 -0.198306 -0.000001  0.000001
  0C   2pz        0.001140  0.000496  0.003238 -0.005627  0.026179 -0.119533
  0C   2px       -0.004897 -0.002130 -0.013907  0.024166 -0.009604 -0.030796
  0C   2py       -0.000628 -0.000273 -0.001783  0.003098  0.122449  0.023140
  0C   1dz2      -0.000615  0.001151 -0.015264  0.002683 -0.003238  0.014783
  0C   1dxz      -0.000546  0.001023 -0.013557  0.002383  0.008715 -0.034462
  0C   1dyz      -0.000070  0.000131 -0.001738  0.000306 -0.007714 -0.006352
  0C   1dx2y2     0.001153 -0.002160  0.028636 -0.005033 -0.007761 -0.010355
  0C   1dxy       0.000301 -0.000563  0.007466 -0.001312  0.037177  0.005886
  1O   1s        -0.995068  0.000318 -0.201631 -0.113566 -0.000000  0.000001
  1O   2s        -0.029443  0.000132  0.444386  0.268763  0.000001 -0.000002
  1O   1pz       -0.000590  0.000368  0.040482 -0.110714  0.117655 -0.537199
  1O   1px        0.002533 -0.001580 -0.173880  0.475527 -0.043163 -0.138402
  1O   1py        0.000325 -0.000203 -0.022292  0.060965  0.550319  0.103994
  1O   3s         0.017387  0.008181  0.351861  0.407554  0.000000 -0.000001
  1O   2pz        0.001036  0.001470  0.008385 -0.053667  0.070392 -0.321404
  1O   2px       -0.004451 -0.006312 -0.036017  0.230507 -0.025824 -0.082806
  1O   2py       -0.000571 -0.000809 -0.004618  0.029553  0.329253  0.062220
  1O   1dz2       0.000116 -0.000876 -0.004736  0.010422  0.002745 -0.012537
  1O   1dxz       0.000103 -0.000778 -0.004206  0.009256 -0.007390  0.029224
  1O   1dyz       0.000013 -0.000100 -0.000539  0.001187  0.006541  0.005388
  1O   1dx2y2    -0.000218  0.001643  0.008885 -0.019552  0.006581  0.008781
  1O   1dxy      -0.000057  0.000428  0.002316 -0.005097 -0.031529 -0.004992
                      6         7         8         9        10        11   
                  -0.36638  -0.01396  -0.01395   0.26832   0.51518   0.51519
                   2.00000   0.00000   0.00000   0.00000   0.00000   0.00000
                  --------  --------  --------  --------  --------  --------
  0C   1s        -0.144039 -0.000000 -0.000000  0.030223  0.000000  0.000000
  0C   2s         0.259329 -0.000001 -0.000000  0.083378 -0.000002  0.000000
  0C   1pz        0.099550  0.168212  0.509257  0.036158  0.963410  0.124633
  0C   1px       -0.427590 -0.027934  0.138601 -0.155322  0.236935 -0.097193
  0C   1py       -0.054820  0.523356 -0.156283 -0.019916 -0.098582  0.984397
  0C   3s         0.621895  0.000000  0.000001 -2.036137 -0.000002 -0.000004
  0C   2pz        0.030486  0.185908  0.562830  0.427289 -1.110647 -0.143678
  0C   2px       -0.130939 -0.030875  0.153180 -1.835291 -0.273151  0.112042
  0C   2py       -0.016787  0.578414 -0.172724 -0.235296  0.113648 -1.134840
  0C   1dz2       0.013707  0.001228  0.003719  0.000948 -0.010291 -0.001332
  0C   1dxz       0.012174 -0.003164 -0.008638  0.000841  0.024059  0.003901
  0C   1dyz       0.001561  0.001816 -0.001841  0.000108  0.003879 -0.005648
  0C   1dx2y2    -0.025716  0.001721 -0.002873 -0.001778  0.006612 -0.005917
  0C   1dxy      -0.006704 -0.009413  0.002508 -0.000463 -0.001807  0.025746
  1O   1s         0.012684  0.000000  0.000000 -0.099915 -0.000000 -0.000000
  1O   2s        -0.040723 -0.000001 -0.000000  0.173298  0.000001  0.000001
  1O   1pz       -0.062739 -0.125347 -0.379483  0.023751  0.069372  0.008975
  1O   1px        0.269482  0.020817 -0.103280 -0.102017  0.017060 -0.006999
  1O   1py        0.034550 -0.389987  0.116457 -0.013079 -0.007098  0.070883
  1O   3s        -0.017812  0.000000 -0.000001  2.152304  0.000003  0.000003
  1O   2pz       -0.033562 -0.134450 -0.407047  0.191853  0.053684  0.006945
  1O   2px        0.144160  0.022328 -0.110783 -0.824056  0.013201 -0.005418
  1O   2py        0.018483 -0.418313  0.124917 -0.105652 -0.005494  0.054850
  1O   1dz2       0.002541  0.001223  0.003701 -0.024381  0.031589  0.004086
  1O   1dxz       0.002257 -0.003149 -0.008598 -0.021655 -0.073851 -0.011974
  1O   1dyz       0.000289  0.001809 -0.001832 -0.002776 -0.011910  0.017336
  1O   1dx2y2    -0.004767  0.001713 -0.002860  0.045742 -0.020293  0.018165
  1O   1dxy      -0.001243 -0.009368  0.002496  0.011925  0.005546 -0.079031
                     12        13        14        15        16        17   
                   0.58839   0.76838   0.83765   0.92052   0.92052   1.47963
                   0.00000   0.00000   0.00000   0.00000   0.00000   0.00000
                  --------  --------  --------  --------  --------  --------
  0C   1s         0.075095  0.053873 -0.073720  0.000001 -0.000000 -0.000002
  0C   2s        -1.205392 -1.096284 -0.390113  0.000008  0.000001 -0.000004
  0C   1pz       -0.155042  0.194919 -0.045301  0.106873  0.038860  0.000002
  0C   1px        0.665934 -0.837228  0.194590  0.019406  0.022851 -0.000008
  0C   1py        0.085379 -0.107340  0.024949  0.042699 -0.107657 -0.000001
  0C   3s         1.614102  0.331272 -0.517193  0.000007  0.000001 -0.000148
  0C   2pz        0.096244 -0.089156  0.098008 -0.557960 -0.202881  0.000023
  0C   2px       -0.413384  0.382953 -0.421018 -0.101318 -0.119291 -0.000093
  0C   2py       -0.053000  0.049099 -0.053984 -0.222916  0.562037 -0.000011
  0C   1dz2      -0.010501 -0.047852  0.105108  0.023179  0.008429 -0.358287
  0C   1dxz      -0.009327 -0.042501  0.093354 -0.055058 -0.018041 -0.162084
  0C   1dyz      -0.001196 -0.005449  0.011969 -0.002023 -0.016162  0.513003
  0C   1dx2y2     0.019704  0.089777 -0.197194 -0.007490 -0.019716 -0.252376
  0C   1dxy       0.005137  0.023405 -0.051409 -0.024304  0.056330  0.060557
  1O   1s         0.022003 -0.068354 -0.031839  0.000001  0.000000  0.000002
  1O   2s        -0.091400  0.262992  0.164777 -0.000008  0.000002 -0.000098
  1O   1pz        0.025992  0.041683 -0.190515 -0.846183 -0.307686  0.000002
  1O   1px       -0.111637 -0.179043  0.818241 -0.153678 -0.180912  0.000005
  1O   1py       -0.014312 -0.022954  0.104897 -0.338068  0.852369  0.000002
  1O   3s        -0.331151  0.119229  0.507195 -0.000003 -0.000003  0.000245
  1O   2pz       -0.095210  0.190959  0.299435  1.209645  0.439844  0.000015
  1O   2px        0.408944 -0.820209 -1.286045  0.219689  0.258622 -0.000078
  1O   2py        0.052429 -0.105158 -0.164869  0.483281 -1.218488 -0.000012
  1O   1dz2       0.014502  0.084296 -0.052090 -0.008986 -0.003269 -0.315457
  1O   1dxz       0.012881  0.074871 -0.046267  0.021346  0.006994 -0.142709
  1O   1dyz       0.001651  0.009599 -0.005932  0.000787  0.006264  0.451673
  1O   1dx2y2    -0.027208 -0.158151  0.097735  0.002902  0.007644 -0.222203
  1O   1dxy      -0.007093 -0.041230  0.025479  0.009425 -0.021846  0.053316
                     18        19        20        21        22        23   
                   1.47963   1.51352   1.55186   1.55186   1.95184   1.95185
                   0.00000   0.00000   0.00000   0.00000   0.00000   0.00000
                  --------  --------  --------  --------  --------  --------
  0C   1s         0.000002  0.032618 -0.000001 -0.000000  0.000000 -0.000000
  0C   2s         0.000005  0.096685 -0.000002 -0.000000  0.000008 -0.000008
  0C   1pz       -0.000002 -0.043335  0.274095 -0.008035 -0.000001  0.000001
  0C   1px        0.000011  0.186159  0.061729 -0.037614  0.000006 -0.000007
  0C   1py        0.000001  0.023869  0.016228  0.278786  0.000001 -0.000000
  0C   3s         0.000182  2.539518 -0.000051 -0.000018  0.000017 -0.000018
  0C   2pz       -0.000027 -0.369994 -0.133123  0.003905 -0.000001  0.000003
  0C   2px        0.000115  1.589198 -0.030016  0.018257  0.000011 -0.000012
  0C   2py        0.000016  0.203747 -0.007887 -0.135409  0.000002  0.000000
  0C   1dz2       0.446753 -0.113953  0.238212 -0.006982  0.396010 -0.457699
  0C   1dxz       0.064158 -0.101190 -0.559747 -0.001556  0.173720 -0.061372
  0C   1dyz       0.436316 -0.012972 -0.067593  0.142107 -0.524586 -0.481016
  0C   1dx2y2     0.251496  0.213653 -0.128566  0.158095  0.276441 -0.255643
  0C   1dxy       0.166900  0.055695 -0.052034 -0.590449 -0.057375 -0.178639
  1O   1s        -0.000003 -0.035472  0.000001  0.000000  0.000000 -0.000000
  1O   2s         0.000120  1.699112 -0.000034 -0.000012  0.000011 -0.000012
  1O   1pz        0.000001  0.009834  0.182049 -0.005337  0.000001  0.000001
  1O   1px       -0.000005 -0.042231  0.041003 -0.024982  0.000003 -0.000004
  1O   1py        0.000003 -0.005414  0.010779  0.185173  0.000001  0.000002
  1O   3s        -0.000302 -4.249260  0.000085  0.000030 -0.000034  0.000036
  1O   2pz       -0.000023 -0.311890  0.050780 -0.001486 -0.000005  0.000002
  1O   2px        0.000096  1.339653  0.011408 -0.006976  0.000012 -0.000012
  1O   2py        0.000008  0.171756  0.003003  0.051636 -0.000000 -0.000005
  1O   1dz2       0.393340 -0.071285 -0.219058  0.006423 -0.434038  0.501655
  1O   1dxz       0.056488 -0.063273  0.514752  0.001431 -0.190394  0.067268
  1O   1dyz       0.384147 -0.008113  0.062161 -0.130679  0.574961  0.527212
  1O   1dx2y2     0.221424  0.133629  0.118224 -0.145388 -0.302986  0.280192
  1O   1dxy       0.146941  0.034842  0.047850  0.542979  0.062888  0.195803
                     24        25        26        27   
                   2.44386   2.61352   2.61353   2.97276
                   0.00000   0.00000   0.00000   0.00000
                  --------  --------  --------  --------
  0C   1s        -0.079674 -0.000000  0.000000 -0.121088
  0C   2s        -0.185583 -0.000006  0.000005 -1.829367
  0C   1pz       -0.033662 -0.355716  0.010033  0.351868
  0C   1px        0.144583 -0.082792 -0.044123 -1.511348
  0C   1py        0.018536 -0.000233  0.362410 -0.193766
  0C   3s         0.192215 -0.000004  0.000005 -1.535808
  0C   2pz       -0.060358 -0.305699  0.008622  0.188800
  0C   2px        0.259252 -0.071149 -0.037920 -0.810940
  0C   2py        0.033238 -0.000200  0.311452 -0.103968
  0C   1dz2      -0.481585  0.409730 -0.011558  0.300786
  0C   1dxz      -0.427738 -0.961009  0.058004  0.267157
  0C   1dyz      -0.054839 -0.130114 -0.237330  0.034251
  0C   1dx2y2     0.903513 -0.236390 -0.258761 -0.564311
  0C   1dxy       0.235545 -0.030981  1.019021 -0.147113
  1O   1s         0.025165 -0.000000  0.000000 -0.066620
  1O   2s        -0.838179  0.000001  0.000000 -0.505485
  1O   1pz       -0.159224  0.075437 -0.002128  0.112008
  1O   1px        0.683910  0.017553  0.009360 -0.481106
  1O   1py        0.087684  0.000049 -0.076850 -0.061682
  1O   3s         0.212480  0.000008 -0.000010  3.359951
  1O   2pz        0.099479  0.539753 -0.015226  0.438580
  1O   2px       -0.427283  0.125613  0.066963 -1.883809
  1O   2py       -0.054781  0.000351 -0.549910 -0.241521
  1O   1dz2      -0.087614  0.417977 -0.011789 -0.652166
  1O   1dxz      -0.077820 -0.980370  0.059176 -0.579236
  1O   1dyz      -0.009976 -0.132732 -0.242116 -0.074263
  1O   1dx2y2     0.164374 -0.241145 -0.263981  1.223533
  1O   1dxy       0.042851 -0.031603  1.039545  0.318980



                    ********************************
                    * MULLIKEN POPULATION ANALYSIS *
                    ********************************

-----------------------
MULLIKEN ATOMIC CHARGES
-----------------------
   0 C :    0.148874
   1 O :   -0.148874
Sum of atomic charges:   -0.0000000

--------------------------------
MULLIKEN REDUCED ORBITAL CHARGES
--------------------------------
  0 C s       :     3.786782  s :     3.786782
      pz      :     0.538706  p :     1.991591
      px      :     0.929806
      py      :     0.523079
      dz2     :     0.008363  d :     0.072753
      dxz     :     0.021532
      dyz     :     0.001445
      dx2y2   :     0.020628
      dxy     :     0.020785
  1 O s       :     3.804765  s :     3.804765
      pz      :     1.448341  p :     4.312364
      px      :     1.414314
      py      :     1.449709
      dz2     :     0.003228  d :     0.031745
      dxz     :     0.010395
      dyz     :     0.000744
      dx2y2   :     0.006734
      dxy     :     0.010644

------------------------
MULLIKEN OVERLAP CHARGES
------------------------
B(  0-C ,  1-O ) :   1.1982 


                     *******************************
                     * LOEWDIN POPULATION ANALYSIS *
                     *******************************

----------------------
LOEWDIN ATOMIC CHARGES
----------------------
   0 C :   -0.013231
   1 O :    0.013231

-------------------------------
LOEWDIN REDUCED ORBITAL CHARGES
-------------------------------
  0 C s       :     3.552931  s :     3.552931
      pz      :     0.580314  p :     2.314232
      px      :     1.177458
      py      :     0.556461
      dz2     :     0.017758  d :     0.146069
      dxz     :     0.040931
      dyz     :     0.002639
      dx2y2   :     0.046628
      dxy     :     0.038111
  1 O s       :     3.550205  s :     3.550205
      pz      :     1.410356  p :     4.380620
      px      :     1.566120
      py      :     1.404144
      dz2     :     0.007261  d :     0.055944
      dxz     :     0.014584
      dyz     :     0.000887
      dx2y2   :     0.020335
      dxy     :     0.012877

---------------------------------
LOEWDIN BOND ORDERS (THRESH 0.05)
---------------------------------
B(  0-C ,  1-O ) :   3.0670 

------------------------------------------
LOEWDIN REDUCED ORBITAL POPULATIONS PER MO
-------------------------------------------
THRESHOLD FOR PRINTING IS 0.1%
                      0         1         2         3         4         5   
                 -19.24934 -10.29430  -1.15937  -0.56578  -0.46678  -0.46677
                   2.00000   2.00000   2.00000   2.00000   2.00000   2.00000
                  --------  --------  --------  --------  --------  --------
 0 C  s               0.0      98.9      18.8      13.2       0.0       0.0
 0 C  pz              0.0       0.0       0.8       0.2       1.2      24.7
 0 C  px              0.1       0.0      15.6       4.1       0.2       1.6
 0 C  py              0.0       0.0       0.3       0.1      26.0       0.9
 0 C  dz2             0.0       0.0       0.4       0.0       0.0       0.3
 0 C  dxz             0.0       0.0       0.3       0.0       0.1       1.5
 0 C  dx2y2           0.1       0.0       1.5       0.0       0.1       0.1
 0 C  dxy             0.0       0.0       0.1       0.0       1.7       0.0
 1 O  s              99.7       0.1      55.2      20.3       0.0       0.0
 1 O  pz              0.0       0.0       0.3       3.1       3.0      63.5
 1 O  px              0.0       0.5       6.1      57.4       0.4       4.2
 1 O  py              0.0       0.0       0.1       0.9      66.6       2.4
 1 O  dz2             0.0       0.1       0.1       0.1       0.0       0.1
 1 O  dxz             0.0       0.1       0.0       0.1       0.0       0.5
 1 O  dx2y2           0.0       0.3       0.2       0.5       0.0       0.0
 1 O  dxy             0.0       0.0       0.0       0.0       0.6       0.0

                      6         7         8         9        10        11   
                  -0.36638  -0.01396  -0.01395   0.26832   0.51518   0.51519
                   2.00000   0.00000   0.00000   0.00000   0.00000   0.00000
                  --------  --------  --------  --------  --------  --------
 0 C  s              46.8       0.0       0.0      16.9       0.0       0.0
 0 C  pz              2.0       6.4      58.6       2.9      88.5       1.5
 0 C  px             37.2       0.2       4.3      53.9       5.4       0.9
 0 C  py              0.6      61.9       5.5       0.9       0.9      92.4
 0 C  dz2             0.1       0.0       0.3       2.0       0.1       0.0
 0 C  dxz             0.1       0.2       1.5       1.5       0.4       0.0
 0 C  dx2y2           0.5       0.1       0.2       6.9       0.0       0.0
 0 C  dxy             0.0       1.8       0.1       0.5       0.0       0.5
 1 O  s               2.2       0.0       0.0      13.6       0.0       0.0
 1 O  pz              0.5       2.5      22.8       0.0       2.5       0.0
 1 O  px              9.7       0.1       1.7       0.8       0.1       0.0
 1 O  py              0.2      24.1       2.1       0.0       0.0       2.6
 1 O  dz2             0.0       0.0       0.4       0.0       0.3       0.0
 1 O  dxz             0.0       0.3       1.9       0.0       1.6       0.0
 1 O  dx2y2           0.0       0.1       0.2       0.0       0.1       0.1
 1 O  dxy             0.0       2.3       0.2       0.0       0.0       1.9

                     12        13        14        15        16        17   
                   0.58839   0.76838   0.83765   0.92052   0.92052   1.47963
                   0.00000   0.00000   0.00000   0.00000   0.00000   0.00000
                  --------  --------  --------  --------  --------  --------
 0 C  s              63.4      18.5       0.6       0.0       0.0       0.0
 0 C  pz              1.6       1.2       0.5       2.8       0.4       0.0
 0 C  px             29.8      21.7       8.9       0.1       0.1       0.0
 0 C  py              0.5       0.4       0.1       0.4       2.8       0.0
 0 C  dz2             0.0       0.8       1.6       0.0       0.0      14.7
 0 C  dxz             0.0       0.6       1.3       0.1       0.0       3.0
 0 C  dyz             0.0       0.0       0.0       0.0       0.0      30.0
 0 C  dx2y2           0.0       2.7       5.8       0.0       0.0       7.3
 0 C  dxy             0.0       0.2       0.4       0.0       0.1       0.4
 1 O  s               1.3       3.4       3.6       0.0       0.0       0.0
 1 O  pz              0.2       0.9       3.9      79.8      10.6       0.0
 1 O  px              3.0      16.9      72.0       2.6       3.6       0.0
 1 O  py              0.0       0.3       1.2      12.7      81.0       0.0
 1 O  dz2             0.0       5.9       0.0       0.2       0.0      11.8
 1 O  dxz             0.0       4.6       0.0       0.9       0.1       2.4
 1 O  dyz             0.0       0.1       0.0       0.0       0.1      24.2
 1 O  dx2y2           0.1      20.7       0.0       0.0       0.1       5.9
 1 O  dxy             0.0       1.4       0.0       0.2       1.0       0.3

                     18        19        20        21        22        23   
                   1.47963   1.51352   1.55186   1.55186   1.95184   1.95185
                   0.00000   0.00000   0.00000   0.00000   0.00000   0.00000
                  --------  --------  --------  --------  --------  --------
 0 C  s               0.0       5.9       0.0       0.0       0.0       0.0
 0 C  pz              0.0       0.1       2.8       0.0       0.0       0.0
 0 C  px              0.0       2.1       0.1       0.1       0.0       0.0
 0 C  py              0.0       0.0       0.0       2.9       0.0       0.0
 0 C  dz2            22.8       0.3       7.3       0.0      12.9      17.2
 0 C  dxz             0.5       0.2      40.0       0.0       2.5       0.3
 0 C  dyz            21.7       0.0       0.6       2.6      22.7      19.1
 0 C  dx2y2           7.2       1.1       2.1       3.2       6.3       5.4
 0 C  dxy             3.2       0.1       0.3      44.5       0.3       2.6
 1 O  s               0.0      73.6       0.0       0.0       0.0       0.0
 1 O  pz              0.0       0.0       1.9       0.0       0.0       0.0
 1 O  px              0.0       0.8       0.1       0.0       0.0       0.0
 1 O  py              0.0       0.0       0.0       2.0       0.0       0.0
 1 O  dz2            18.4       2.8       6.4       0.0      16.0      21.4
 1 O  dxz             0.4       2.2      35.5       0.0       3.1       0.4
 1 O  dyz            17.5       0.0       0.5       2.3      28.1      23.6
 1 O  dx2y2           5.8       9.9       1.9       2.8       7.8       6.7
 1 O  dxy             2.6       0.7       0.3      39.5       0.3       3.3

                     24        25        26        27   
                   2.44386   2.61352   2.61353   2.97276
                   0.00000   0.00000   0.00000   0.00000
                  --------  --------  --------  --------
 0 C  s               0.9       0.0       0.0      16.1
 0 C  pz              0.1       3.0       0.0       0.6
 0 C  px              1.8       0.2       0.0      11.6
 0 C  py              0.0       0.0       3.2       0.2
 0 C  dz2            12.0       6.5       0.0       0.7
 0 C  dxz             9.5      35.5       0.1       0.5
 0 C  dyz             0.2       0.7       2.2       0.0
 0 C  dx2y2          42.4       2.1       2.6       2.3
 0 C  dxy             2.9       0.0      40.0       0.2
 1 O  s              11.5       0.0       0.0      15.4
 1 O  pz              0.7       3.2       0.0       0.4
 1 O  px             12.2       0.2       0.1       7.5
 1 O  py              0.2       0.0       3.4       0.1
 1 O  dz2             1.0       7.0       0.0       8.0
 1 O  dxz             0.8      38.5       0.1       6.3
 1 O  dyz             0.0       0.7       2.3       0.1
 1 O  dx2y2           3.6       2.3       2.8      28.0
 1 O  dxy             0.2       0.0      43.3       1.9


                      *****************************
                      * MAYER POPULATION ANALYSIS *
                      *****************************

  NA   - Mulliken gross atomic population
  ZA   - Total nuclear charge
  QA   - Mulliken gross atomic charge
  VA   - Mayer's total valence
  BVA  - Mayer's bonded valence
  FA   - Mayer's free valence

  ATOM       NA         ZA         QA         VA         BVA        FA
  0 C      5.8511     6.0000     0.1489     2.4196     2.4196    -0.0000
  1 O      8.1489     8.0000    -0.1489     2.4196     2.4196    -0.0000

  Mayer bond orders larger than 0.1
B(  0-C ,  1-O ) :   2.4196 

-------
TIMINGS
-------

Total SCF time: 0 days 0 hours 0 min 3 sec 

Total time                  ....       3.070 sec
Sum of individual times     ....       2.814 sec  ( 91.6%)

Fock matrix formation       ....       2.395 sec  ( 78.0%)
  XC integration            ....       0.296 sec  ( 12.4% of F)
    Basis function eval.    ....       0.091 sec  ( 30.8% of XC)
    Density eval.           ....       0.071 sec  ( 24.1% of XC)
    XC-Functional eval.     ....       0.062 sec  ( 20.9% of XC)
    XC-Potential eval.      ....       0.038 sec  ( 12.8% of XC)
Diagonalization             ....       0.002 sec  (  0.1%)
Density matrix formation    ....       0.000 sec  (  0.0%)
Population analysis         ....       0.006 sec  (  0.2%)
Initial guess               ....       0.124 sec  (  4.0%)
Orbital Transformation      ....       0.000 sec  (  0.0%)
Orbital Orthonormalization  ....       0.000 sec  (  0.0%)
DIIS solution               ....       0.002 sec  (  0.1%)
SOSCF solution              ....       0.001 sec  (  0.0%)
Grid generation             ....       0.283 sec  (  9.2%)

-------------------------   --------------------
FINAL SINGLE POINT ENERGY      -113.254430179388
-------------------------   --------------------

------------------------------------------------------------------------------
                         ORCA SCF GRADIENT CALCULATION
------------------------------------------------------------------------------

Gradient of the Kohn-Sham DFT energy:
Kohn-Sham wavefunction type      ... RKS
Hartree-Fock exchange scaling    ...    0.200
Number of operators              ...    1
Number of atoms                  ...    2
Basis set dimensions             ...   28
Integral neglect threshold       ... 2.5e-11
Integral primitive cutoff        ... 2.5e-12

Nuclear repulsion gradient       ... done
One Electron Gradient            ... done
Pre-screening matrix             ... done
Starting the two electron gradient:
Two electron gradient done
Exchange-correlation gradient    ... done

------------------
CARTESIAN GRADIENT
------------------

   1   C   :    0.023413347    0.002999141   -0.005452829
   2   O   :   -0.023413347   -0.002999141    0.005452829

Difference to translation invariance:
           :   -0.0000000000   -0.0000000000    0.0000000000

Norm of the cartesian gradient     ...    0.0342611445
RMS gradient                       ...    0.0139870537
MAX gradient                       ...    0.0234133470

-------
TIMINGS
-------

Total SCF gradient time            ...        1.215 sec

One electron gradient       ....       0.012 sec  (  1.0%)
Prescreening matrices       ....       0.021 sec  (  1.8%)
Two electron gradient       ....       0.050 sec  (  4.1%)
XC gradient                 ....       0.492 sec  ( 40.5%)
------------------------------------------------------------------------------
                         ORCA GEOMETRY RELAXATION STEP
------------------------------------------------------------------------------

Reading the OPT-File                    .... done
Getting information on internals        .... done
Copying old internal coords+grads       .... done
Making the new internal coordinates     .... (new redundants).... done
Validating the new internal coordinates .... (new redundants).... done
Calculating the B-matrix                .... done
Calculating the G,G- and P matrices     .... done
Transforming gradient to internals      .... done
Projecting the internal gradient        .... done
Number of atoms                         ....   2
Number of internal coordinates          ....   1
Current Energy                          ....  -113.254430179 Eh
Current gradient norm                   ....     0.034261144 Eh/bohr
Maximum allowed component of the step   ....  0.300
Current trust radius                    ....  0.300
Evaluating the initial hessian          ....  (Almloef) done
Projecting the Hessian                  .... done
Forming the augmented Hessian           .... done
Diagonalizing the augmented Hessian     .... done
Last element of RFO vector              ....  0.999863286
Lowest eigenvalues of augmented Hessian:
 -0.000400638
Length of the computed step             ....  0.016537346
The final length of the internal step   ....  0.016537346
Converting the step to cartesian space:
 Initial RMS(Int)=    0.0165373460
Transforming coordinates:
 Iter   0:  RMS(Cart)=    0.0047739206 RMS(Int)=    0.0165373460
 Iter   1:  RMS(Cart)=    0.0000000000 RMS(Int)=    0.0000000000
done
Storing new coordinates                 .... done

                                .--------------------.
          ----------------------|Geometry convergence|-------------------------
          Item                value                   Tolerance       Converged
          ---------------------------------------------------------------------
          RMS gradient        0.0242262874            0.0001000000      NO
          MAX gradient        0.0242262874            0.0003000000      NO
          RMS step            0.0165373460            0.0020000000      NO
          MAX step            0.0165373460            0.0040000000      NO
          ........................................................
          Max(Bonds)      0.0088      Max(Angles)    0.00
          Max(Dihed)        0.00      Max(Improp)    0.00
          ---------------------------------------------------------------------

The optimization has not yet converged - more geometry cycles are needed


    ---------------------------------------------------------------------------
                         Redundant Internal Coordinates
                            (Angstroem and degrees)

        Definition                    Value    dE/dq     Step     New-Value
    ----------------------------------------------------------------------------
     1. B(O   1,C   0)                1.1281 -0.024226  0.0088    1.1369   
    ----------------------------------------------------------------------------

         *************************************************************
         *                GEOMETRY OPTIMIZATION CYCLE   2            *
         *************************************************************
---------------------------------
CARTESIAN COORDINATES (ANGSTROEM)
---------------------------------
  C     -1.759979   -0.005542    0.306675
  O     -0.661261    0.135322    0.050875

----------------------------
CARTESIAN COORDINATES (A.U.)
----------------------------
  NO LB      ZA    FRAG     MASS         X           Y           Z
   0 C     6.0000    0    12.011   -3.325878   -0.010473    0.579531
   1 O     8.0000    0    15.999   -1.249603    0.255722    0.096141

--------------------------------
INTERNAL COORDINATES (ANGSTROEM)
--------------------------------
 C      0   0   0     0.000000000000     0.00000000     0.00000000
 O      1   0   0     1.136862433298     0.00000000     0.00000000

---------------------------
INTERNAL COORDINATES (A.U.)
---------------------------
 C      0   0   0     0.000000000000     0.00000000     0.00000000
 O      1   0   0     2.148358650877     0.00000000     0.00000000


Diagonalization of the overlap matrix:
Smallest eigenvalue                        ... 1.542e-02
Time for diagonalization                   ...    0.000 sec
Threshold for overlap eigenvalues          ... 1.000e-08
Number of eigenvalues below threshold      ... 0
Time for construction of square roots      ...    0.002 sec
Total time needed                          ...    0.002 sec

-------------------
DFT GRID GENERATION
-------------------

General Integration Accuracy     IntAcc      ...  4.340
Radial Grid Type                 RadialGrid  ... Gauss-Chebyshev
Angular Grid (max. acc.)         AngularGrid ... Lebedev-194
Angular grid pruning method      GridPruning ... 3 (G Style)
Weight generation scheme         WeightScheme... Becke
Basis function cutoff            BFCut       ...    1.0000e-11
Integration weight cutoff        WCut        ...    1.0000e-14
Grids for H and He will be reduced by one unit

# of grid points (after initial pruning)     ...   6632 (   0.0 sec)
# of grid points (after weights+screening)   ...   6610 (   0.0 sec)
nearest neighbour list constructed           ...    0.0 sec
Grid point re-assignment to atoms done       ...    0.0 sec
Grid point division into batches done        ...    0.0 sec
Reduced shell lists constructed in    0.0 sec

Total number of grid points                  ...     6610
Total number of batches                      ...      104
Average number of points per batch           ...       63
Average number of grid points per atom       ...     3305
Average number of shells per batch           ...     9.90 (82.46%)
Average number of basis functions per batch  ...    23.80 (85.00%)
Average number of large shells per batch     ...     9.16 (92.59%)
Average number of large basis fcns per batch ...    22.32 (93.80%)
Maximum spatial batch extension              ...  16.31, 21.21, 21.21 au
Average spatial batch extension              ...   4.36,  5.19,  5.11 au

Time for grid setup =    0.036 sec

--------------
SCF ITERATIONS
--------------
ITER       Energy         Delta-E        Max-DP      RMS-DP      [F,P]     Damp
               ***  Starting incremental Fock matrix formation  ***
                      *** Initiating the SOSCF procedure ***
                      *** Re-Reading the Fockian *** 
                      *** Removing any level shift *** 
ITER      Energy       Delta-E        Grad      Rot      Max-DP    RMS-DP
  0   -113.25453903 -113.2545390324  0.002227  0.002227  0.003715  0.000428
               *** Restarting incremental Fock matrix formation ***
  1   -113.25458307  -0.0000440414  0.000953  0.001901  0.003319  0.000272
  2   -113.25456928   0.0000137963  0.002193  0.001533  0.002184  0.000177
  3   -113.25458954  -0.0000202583  0.000229  0.000247  0.001081  0.000061
  4   -113.25458971  -0.0000001711  0.000148  0.000101  0.000436  0.000025
                  ***Gradient check signals convergence***
              ***Rediagonalizing the Fockian in SOSCF/NRSCF***

               *****************************************************
               *                     SUCCESS                       *
               *           SCF CONVERGED AFTER   5 CYCLES          *
               *****************************************************

Setting up the final grid:

General Integration Accuracy     IntAcc      ...  5.010
Radial Grid Type                 RadialGrid  ... Gauss-Chebyshev
Angular Grid (max. acc.)         AngularGrid ... Lebedev-434
Angular grid pruning method      GridPruning ... 3 (G Style)
Weight generation scheme         WeightScheme... Becke
Basis function cutoff            BFCut       ...    1.0000e-11
Integration weight cutoff        WCut        ...    1.0000e-14
Grids for H and He will be reduced by one unit

# of grid points (after initial pruning)     ...  21540 (   0.0 sec)
# of grid points (after weights+screening)   ...  21473 (   0.0 sec)
nearest neighbour list constructed           ...    0.0 sec
Grid point re-assignment to atoms done       ...    0.0 sec
Grid point division into batches done        ...    0.2 sec
Reduced shell lists constructed in    0.3 sec

Total number of grid points                  ...    21473
Total number of batches                      ...      336
Average number of points per batch           ...       63
Average number of grid points per atom       ...    10736
Average number of shells per batch           ...     9.22 (76.81%)
Average number of basis functions per batch  ...    22.17 (79.16%)
Average number of large shells per batch     ...     8.55 (92.72%)
Average number of large basis fcns per batch ...    20.81 (93.90%)
Maximum spatial batch extension              ...  19.78, 19.91, 21.21 au
Average spatial batch extension              ...   3.34,  3.50,  3.54 au

Final grid set up in    0.3 sec
Final integration                            ... done (   0.1 sec)
Change in XC energy                          ...    -0.000059235
Integrated number of electrons               ...    13.999999181
Previous integrated no of electrons          ...    13.999984223
Total Energy       :         -113.25464907 Eh           -3081.81568 eV
  Last Energy change         ...   -1.3089e-07  Tolerance :   1.0000e-08
  Last MAX-Density change    ...    1.1913e-06  Tolerance :   1.0000e-07
             **** THE GBW FILE WAS UPDATED (/Users/lailaal-madhagi/Desktop/Testing_XAS_Analysis_code/CarbonMonoxide//Results_dir_CarbonMonoxide_geom_element_C_2019-11-10_00-49-59//GTE1_CarbonMonoxide_geom_2019-11-10_00-50-26//opt.gbw) ****
             **** DENSITY FILE WAS UPDATED (/Users/lailaal-madhagi/Desktop/Testing_XAS_Analysis_code/CarbonMonoxide//Results_dir_CarbonMonoxide_geom_element_C_2019-11-10_00-49-59//GTE1_CarbonMonoxide_geom_2019-11-10_00-50-26//opt.scfp.tmp) ****
             **** ENERGY FILE WAS UPDATED (/Users/lailaal-madhagi/Desktop/Testing_XAS_Analysis_code/CarbonMonoxide//Results_dir_CarbonMonoxide_geom_element_C_2019-11-10_00-49-59//GTE1_CarbonMonoxide_geom_2019-11-10_00-50-26//opt.en.tmp) ****
Total SCF time: 0 days 0 hours 0 min 2 sec 

-------------------------   --------------------
FINAL SINGLE POINT ENERGY      -113.254649072806
-------------------------   --------------------

------------------------------------------------------------------------------
                         ORCA SCF GRADIENT CALCULATION
------------------------------------------------------------------------------

Gradient of the Kohn-Sham DFT energy:
Kohn-Sham wavefunction type      ... RKS
Hartree-Fock exchange scaling    ...    0.200
Number of operators              ...    1
Number of atoms                  ...    2
Basis set dimensions             ...   28
Integral neglect threshold       ... 2.5e-11
Integral primitive cutoff        ... 2.5e-12

Nuclear repulsion gradient       ... done
One Electron Gradient            ... done
Pre-screening matrix             ... done
Starting the two electron gradient:
Two electron gradient done
Exchange-correlation gradient    ... done

------------------
CARTESIAN GRADIENT
------------------

   1   C   :    0.002389601    0.000304406   -0.000557899
   2   O   :   -0.002389601   -0.000304406    0.000557899

Difference to translation invariance:
           :   -0.0000000000   -0.0000000000    0.0000000000

Norm of the cartesian gradient     ...    0.0034968860
RMS gradient                       ...    0.0014275977
MAX gradient                       ...    0.0023896006

-------
TIMINGS
-------

Total SCF gradient time            ...        0.397 sec

One electron gradient       ....       0.003 sec  (  0.8%)
Prescreening matrices       ....       0.017 sec  (  4.3%)
Two electron gradient       ....       0.059 sec  ( 14.9%)
XC gradient                 ....       0.185 sec  ( 46.6%)
------------------------------------------------------------------------------
                         ORCA GEOMETRY RELAXATION STEP
------------------------------------------------------------------------------

Reading the OPT-File                    .... done
Getting information on internals        .... done
Copying old internal coords+grads       .... done
Making the new internal coordinates     .... (new redundants).... done
Validating the new internal coordinates .... (new redundants).... done
Calculating the B-matrix                .... done
Calculating the G,G- and P matrices     .... done
Transforming gradient to internals      .... done
Projecting the internal gradient        .... done
Number of atoms                         ....   2
Number of internal coordinates          ....   1
Current Energy                          ....  -113.254649073 Eh
Current gradient norm                   ....     0.003496886 Eh/bohr
Maximum allowed component of the step   ....  0.300
Current trust radius                    ....  0.300
Updating the Hessian (BFGS)             .... done
Forming the augmented Hessian           .... done
Diagonalizing the augmented Hessian     .... done
Last element of RFO vector              ....  0.999998233
Lowest eigenvalues of augmented Hessian:
 -0.000004648
Length of the computed step             ....  0.001879746
The final length of the internal step   ....  0.001879746
Converting the step to cartesian space:
 Initial RMS(Int)=    0.0018797455
Transforming coordinates:
 Iter   0:  RMS(Cart)=    0.0005426358 RMS(Int)=    0.0018797455
 Iter   1:  RMS(Cart)=    0.0000000000 RMS(Int)=    0.0000000000
done
Storing new coordinates                 .... done

                                .--------------------.
          ----------------------|Geometry convergence|-------------------------
          Item                value                   Tolerance       Converged
          ---------------------------------------------------------------------
          Energy change      -0.0002188934            0.0000050000      NO
          RMS gradient        0.0024726705            0.0001000000      NO
          MAX gradient        0.0024726705            0.0003000000      NO
          RMS step            0.0018797455            0.0020000000      YES
          MAX step            0.0018797455            0.0040000000      YES
          ........................................................
          Max(Bonds)      0.0010      Max(Angles)    0.00
          Max(Dihed)        0.00      Max(Improp)    0.00
          ---------------------------------------------------------------------

The optimization has not yet converged - more geometry cycles are needed


    ---------------------------------------------------------------------------
                         Redundant Internal Coordinates
                            (Angstroem and degrees)

        Definition                    Value    dE/dq     Step     New-Value
    ----------------------------------------------------------------------------
     1. B(O   1,C   0)                1.1369 -0.002473  0.0010    1.1379   
    ----------------------------------------------------------------------------

         *************************************************************
         *                GEOMETRY OPTIMIZATION CYCLE   3            *
         *************************************************************
---------------------------------
CARTESIAN COORDINATES (ANGSTROEM)
---------------------------------
  C     -1.760459   -0.005604    0.306786
  O     -0.660781    0.135384    0.050764

----------------------------
CARTESIAN COORDINATES (A.U.)
----------------------------
  NO LB      ZA    FRAG     MASS         X           Y           Z
   0 C     6.0000    0    12.011   -3.326786   -0.010590    0.579742
   1 O     8.0000    0    15.999   -1.248694    0.255838    0.095929

--------------------------------
INTERNAL COORDINATES (ANGSTROEM)
--------------------------------
 C      0   0   0     0.000000000000     0.00000000     0.00000000
 O      1   0   0     1.137857151782     0.00000000     0.00000000

---------------------------
INTERNAL COORDINATES (A.U.)
---------------------------
 C      0   0   0     0.000000000000     0.00000000     0.00000000
 O      1   0   0     2.150238396392     0.00000000     0.00000000


Diagonalization of the overlap matrix:
Smallest eigenvalue                        ... 1.546e-02
Time for diagonalization                   ...    0.000 sec
Threshold for overlap eigenvalues          ... 1.000e-08
Number of eigenvalues below threshold      ... 0
Time for construction of square roots      ...    0.000 sec
Total time needed                          ...    0.001 sec

-------------------
DFT GRID GENERATION
-------------------

General Integration Accuracy     IntAcc      ...  4.340
Radial Grid Type                 RadialGrid  ... Gauss-Chebyshev
Angular Grid (max. acc.)         AngularGrid ... Lebedev-194
Angular grid pruning method      GridPruning ... 3 (G Style)
Weight generation scheme         WeightScheme... Becke
Basis function cutoff            BFCut       ...    1.0000e-11
Integration weight cutoff        WCut        ...    1.0000e-14
Grids for H and He will be reduced by one unit

# of grid points (after initial pruning)     ...   6632 (   0.0 sec)
# of grid points (after weights+screening)   ...   6610 (   0.0 sec)
nearest neighbour list constructed           ...    0.0 sec
Grid point re-assignment to atoms done       ...    0.0 sec
Grid point division into batches done        ...    0.0 sec
Reduced shell lists constructed in    0.0 sec

Total number of grid points                  ...     6610
Total number of batches                      ...      104
Average number of points per batch           ...       63
Average number of grid points per atom       ...     3305
Average number of shells per batch           ...     9.90 (82.46%)
Average number of basis functions per batch  ...    23.80 (85.00%)
Average number of large shells per batch     ...     9.15 (92.49%)
Average number of large basis fcns per batch ...    22.31 (93.76%)
Maximum spatial batch extension              ...  16.31, 21.21, 21.21 au
Average spatial batch extension              ...   4.36,  5.19,  5.11 au

Time for grid setup =    0.025 sec

--------------
SCF ITERATIONS
--------------
ITER       Energy         Delta-E        Max-DP      RMS-DP      [F,P]     Damp
               ***  Starting incremental Fock matrix formation  ***
                      *** Initiating the SOSCF procedure ***
                      *** Re-Reading the Fockian *** 
                      *** Removing any level shift *** 
ITER      Energy       Delta-E        Grad      Rot      Max-DP    RMS-DP
  0   -113.25459184 -113.2545918433  0.000241  0.000241  0.000423  0.000049
               *** Restarting incremental Fock matrix formation ***
  1   -113.25459241  -0.0000005623  0.000109  0.000217  0.000379  0.000031
  2   -113.25459222   0.0000001820  0.000251  0.000175  0.000250  0.000020
  3   -113.25459249  -0.0000002657  0.000026  0.000028  0.000121  0.000007
  4   -113.25459249  -0.0000000022  0.000017  0.000011  0.000049  0.000003
                 **** Energy Check signals convergence ****
              ***Rediagonalizing the Fockian in SOSCF/NRSCF***

               *****************************************************
               *                     SUCCESS                       *
               *           SCF CONVERGED AFTER   5 CYCLES          *
               *****************************************************

Setting up the final grid:

General Integration Accuracy     IntAcc      ...  5.010
Radial Grid Type                 RadialGrid  ... Gauss-Chebyshev
Angular Grid (max. acc.)         AngularGrid ... Lebedev-434
Angular grid pruning method      GridPruning ... 3 (G Style)
Weight generation scheme         WeightScheme... Becke
Basis function cutoff            BFCut       ...    1.0000e-11
Integration weight cutoff        WCut        ...    1.0000e-14
Grids for H and He will be reduced by one unit

# of grid points (after initial pruning)     ...  21540 (   0.0 sec)
# of grid points (after weights+screening)   ...  21473 (   0.0 sec)
nearest neighbour list constructed           ...    0.0 sec
Grid point re-assignment to atoms done       ...    0.0 sec
Grid point division into batches done        ...    0.2 sec
Reduced shell lists constructed in    0.2 sec

Total number of grid points                  ...    21473
Total number of batches                      ...      336
Average number of points per batch           ...       63
Average number of grid points per atom       ...    10736
Average number of shells per batch           ...     9.22 (76.85%)
Average number of basis functions per batch  ...    22.17 (79.19%)
Average number of large shells per batch     ...     8.54 (92.57%)
Average number of large basis fcns per batch ...    20.80 (93.83%)
Maximum spatial batch extension              ...  19.78, 19.91, 21.21 au
Average spatial batch extension              ...   3.34,  3.50,  3.54 au

Final grid set up in    0.2 sec
Final integration                            ... done (   0.1 sec)
Change in XC energy                          ...    -0.000058975
Integrated number of electrons               ...    13.999999062
Previous integrated no of electrons          ...    13.999984365
Total Energy       :         -113.25465147 Eh           -3081.81574 eV
  Last Energy change         ...   -1.6460e-09  Tolerance :   1.0000e-08
  Last MAX-Density change    ...    1.0023e-07  Tolerance :   1.0000e-07
             **** THE GBW FILE WAS UPDATED (/Users/lailaal-madhagi/Desktop/Testing_XAS_Analysis_code/CarbonMonoxide//Results_dir_CarbonMonoxide_geom_element_C_2019-11-10_00-49-59//GTE1_CarbonMonoxide_geom_2019-11-10_00-50-26//opt.gbw) ****
             **** DENSITY FILE WAS UPDATED (/Users/lailaal-madhagi/Desktop/Testing_XAS_Analysis_code/CarbonMonoxide//Results_dir_CarbonMonoxide_geom_element_C_2019-11-10_00-49-59//GTE1_CarbonMonoxide_geom_2019-11-10_00-50-26//opt.scfp.tmp) ****
             **** ENERGY FILE WAS UPDATED (/Users/lailaal-madhagi/Desktop/Testing_XAS_Analysis_code/CarbonMonoxide//Results_dir_CarbonMonoxide_geom_element_C_2019-11-10_00-49-59//GTE1_CarbonMonoxide_geom_2019-11-10_00-50-26//opt.en.tmp) ****
Total SCF time: 0 days 0 hours 0 min 1 sec 
[...]
  1O   1py        0.013582  0.033515  0.102565 -0.271156  0.877217  0.000002
  1O   3s         0.313642 -0.024856  0.504473 -0.000001 -0.000003  0.000346
  1O   2pz        0.091687 -0.154648  0.316984  1.233975  0.342780  0.000023
  1O   2px       -0.393812  0.664253 -1.361422  0.237929  0.239563 -0.000111
  1O   2py       -0.050489  0.085164 -0.174533  0.385185 -1.246106 -0.000016
  1O   1dz2      -0.014036 -0.087225 -0.041311 -0.009715 -0.002701 -0.325979
  1O   1dxz      -0.012467 -0.077473 -0.036693  0.023015  0.005604 -0.143938
  1O   1dyz      -0.001598 -0.009933 -0.004705  0.001340  0.006522  0.439212
  1O   1dx2y2     0.026334  0.163648  0.077512  0.003678  0.007799 -0.228003
  1O   1dxy       0.006865  0.042663  0.020207  0.008119 -0.023740  0.048892
                     18        19        20        21        22        23   
                   1.48294   1.51104   1.54438   1.54438   1.94648   1.94648
                   0.00000   0.00000   0.00000   0.00000   0.00000   0.00000
                  --------  --------  --------  --------  --------  --------
  0C   1s        -0.000003  0.030628  0.000001 -0.000000 -0.000000  0.000000
  0C   2s        -0.000005  0.077957  0.000002 -0.000000 -0.000008  0.000007
  0C   1pz        0.000003 -0.043069 -0.269686 -0.002828  0.000001 -0.000001
  0C   1px       -0.000014  0.185019 -0.061399 -0.035846 -0.000007  0.000007
  0C   1py       -0.000002  0.023723 -0.010798  0.274451 -0.000001  0.000000
  0C   3s        -0.000233  2.510961  0.000055 -0.000019 -0.000019  0.000019
  0C   2pz        0.000034 -0.366659  0.131785  0.001385  0.000001 -0.000004
  0C   2px       -0.000147  1.574872  0.030041  0.017505 -0.000012  0.000013
  0C   2py       -0.000020  0.201910  0.005282 -0.134121 -0.000002 -0.000000
  0C   1dz2      -0.438682 -0.111938 -0.238504 -0.002501 -0.403313  0.445691
  0C   1dxz      -0.059756 -0.099390  0.560093 -0.012099 -0.173842  0.057095
  0C   1dyz      -0.453721 -0.012739  0.070315  0.140929  0.510224  0.489194
  0C   1dx2y2    -0.245473  0.209825  0.131629  0.155780 -0.280128  0.247715
  0C   1dxy      -0.169583  0.054697  0.040949 -0.591825  0.053017  0.178638
  1O   1s         0.000003 -0.035603 -0.000001  0.000000  0.000000  0.000000
  1O   2s        -0.000156  1.699179  0.000037 -0.000013 -0.000013  0.000012
  1O   1pz       -0.000002  0.012298 -0.175525 -0.001841 -0.000000 -0.000001
  1O   1px        0.000007 -0.052817 -0.039966 -0.023330 -0.000003  0.000004
  1O   1py       -0.000002 -0.006772 -0.007029  0.178635 -0.000001 -0.000002
  1O   3s         0.000388 -4.200649 -0.000092  0.000031  0.000038 -0.000037
  1O   2pz        0.000030 -0.312040 -0.055834 -0.000583  0.000006 -0.000002
  1O   2px       -0.000124  1.340300 -0.012681 -0.007429 -0.000013  0.000013
  1O   2py       -0.000012  0.171839 -0.002232  0.056806 -0.000000  0.000005
  1O   1dz2      -0.383040 -0.072580  0.219185  0.002300  0.445144 -0.491922
  1O   1dxz      -0.052177 -0.064412 -0.514740  0.011120  0.191865 -0.063020
  1O   1dyz      -0.396167 -0.008258 -0.064622 -0.129513 -0.563142 -0.539937
  1O   1dx2y2    -0.214333  0.136019 -0.120964 -0.143167  0.309180 -0.273408
  1O   1dxy      -0.148069  0.035465 -0.037632  0.543895 -0.058520 -0.197175
                     24        25        26        27   
                   2.42318   2.60301   2.60302   2.95675
                   0.00000   0.00000   0.00000   0.00000
                  --------  --------  --------  --------
  0C   1s        -0.075932  0.000000  0.000000  0.110545
  0C   2s        -0.183972  0.000008  0.000005  1.770937
  0C   1pz       -0.031692  0.340347  0.011740 -0.345971
  0C   1px        0.136119  0.079496 -0.041726  1.486020
  0C   1py        0.017451 -0.001957  0.346815  0.190518
  0C   3s         0.224346  0.000005  0.000005  1.522066
  0C   2pz       -0.064705  0.302956  0.010451 -0.188576
  0C   2px        0.277922  0.070760 -0.037143  0.809975
  0C   2py        0.035632 -0.001742  0.308713  0.103844
  0C   1dz2      -0.480014 -0.405703 -0.013997 -0.302085
  0C   1dxz      -0.426342  0.951371  0.063426 -0.268311
  0C   1dyz      -0.054660  0.130335 -0.234229 -0.034399
  0C   1dx2y2     0.900564  0.235718 -0.254791  0.566748
  0C   1dxy       0.234776  0.024339  1.009377  0.147749
  1O   1s         0.027679  0.000000  0.000000  0.066352
  1O   2s        -0.802377  0.000000  0.000001  0.528415
  1O   1pz       -0.157082 -0.065412 -0.002257 -0.106145
  1O   1px        0.674709 -0.015274  0.008022  0.455925
  1O   1py        0.086504  0.000377 -0.066649  0.058454
  1O   3s         0.155277 -0.000011 -0.000010 -3.313853
  1O   2pz        0.092932 -0.531254 -0.018329 -0.434142
  1O   2px       -0.399166 -0.124069  0.065144  1.864749
  1O   2py       -0.051176  0.003057 -0.541348  0.239077
  1O   1dz2      -0.083373 -0.413780 -0.014274  0.649129
  1O   1dxz      -0.074052  0.970332  0.064693  0.576537
  1O   1dyz      -0.009493  0.132929 -0.238902  0.073917
  1O   1dx2y2     0.156417  0.240408 -0.259876 -1.217833
  1O   1dxy       0.040777  0.024821  1.029488 -0.317494



                    ********************************
                    * MULLIKEN POPULATION ANALYSIS *
                    ********************************

-----------------------
MULLIKEN ATOMIC CHARGES
-----------------------
   0 C :    0.157072
   1 O :   -0.157072
Sum of atomic charges:    0.0000000

--------------------------------
MULLIKEN REDUCED ORBITAL CHARGES
--------------------------------
  0 C s       :     3.787955  s :     3.787955
      pz      :     0.537160  p :     1.983510
      px      :     0.924673
      py      :     0.521677
      dz2     :     0.008255  d :     0.071463
      dxz     :     0.021053
      dyz     :     0.001408
      dx2y2   :     0.020482
      dxy     :     0.020264
  1 O s       :     3.811623  s :     3.811623
      pz      :     1.450233  p :     4.314170
      px      :     1.412176
      py      :     1.451761
      dz2     :     0.003189  d :     0.031279
      dxz     :     0.010223
      dyz     :     0.000731
      dx2y2   :     0.006677
      dxy     :     0.010459

------------------------
MULLIKEN OVERLAP CHARGES
------------------------
B(  0-C ,  1-O ) :   1.1806 


                     *******************************
                     * LOEWDIN POPULATION ANALYSIS *
                     *******************************

----------------------
LOEWDIN ATOMIC CHARGES
----------------------
   0 C :   -0.005592
   1 O :    0.005592

-------------------------------
LOEWDIN REDUCED ORBITAL CHARGES
-------------------------------
  0 C s       :     3.558386  s :     3.558386
      pz      :     0.578263  p :     2.304194
      px      :     1.171359
      py      :     0.554573
      dz2     :     0.017478  d :     0.143011
      dxz     :     0.039859
      dyz     :     0.002559
      dx2y2   :     0.046142
      dxy     :     0.036974
  1 O s       :     3.557144  s :     3.557144
      pz      :     1.413280  p :     4.382409
      px      :     1.561771
      py      :     1.407358
      dz2     :     0.007125  d :     0.054855
      dxz     :     0.014290
      dyz     :     0.000868
      dx2y2   :     0.019963
      dxy     :     0.012609

---------------------------------
LOEWDIN BOND ORDERS (THRESH 0.05)
---------------------------------
B(  0-C ,  1-O ) :   3.0523 

------------------------------------------
LOEWDIN REDUCED ORBITAL POPULATIONS PER MO
-------------------------------------------
THRESHOLD FOR PRINTING IS 0.1%
                      0         1         2         3         4         5   
                 -19.24958 -10.29744  -1.15382  -0.56576  -0.46345  -0.46345
                   2.00000   2.00000   2.00000   2.00000   2.00000   2.00000
                  --------  --------  --------  --------  --------  --------
 0 C  s               0.0      98.9      18.6      13.9       0.0       0.0
 0 C  pz              0.0       0.0       0.8       0.2       1.6      24.2
 0 C  px              0.1       0.0      15.4       4.1       0.1       1.7
 0 C  py              0.0       0.0       0.3       0.1      25.5       1.3
 0 C  dz2             0.0       0.0       0.4       0.0       0.0       0.3
 0 C  dxz             0.0       0.0       0.3       0.0       0.1       1.4
 0 C  dx2y2           0.1       0.0       1.5       0.0       0.1       0.1
 0 C  dxy             0.0       0.0       0.1       0.0       1.6       0.1
 1 O  s              99.7       0.1      55.7      20.1       0.0       0.0
 1 O  pz              0.0       0.0       0.3       3.1       4.1      62.5
 1 O  px              0.0       0.5       6.0      56.8       0.3       4.3
 1 O  py              0.0       0.0       0.1       0.9      65.8       3.4
 1 O  dz2             0.0       0.1       0.1       0.1       0.0       0.1
 1 O  dxz             0.0       0.1       0.0       0.1       0.0       0.5
 1 O  dx2y2           0.0       0.3       0.2       0.5       0.0       0.0
 1 O  dxy             0.0       0.0       0.0       0.0       0.5       0.0

                      6         7         8         9        10        11   
                  -0.36734  -0.01785  -0.01785   0.26722   0.51548   0.51548
                   2.00000   0.00000   0.00000   0.00000   0.00000   0.00000
                  --------  --------  --------  --------  --------  --------
 0 C  s              46.4       0.0       0.0      16.5       0.0       0.0
 0 C  pz              2.0      10.6      54.5       2.9      88.5       1.7
 0 C  px             37.1       0.0       4.5      53.8       5.4       0.9
 0 C  py              0.6      58.0       9.6       0.9       1.1      92.5
 0 C  dz2             0.1       0.0       0.2       2.0       0.1       0.0
 0 C  dxz             0.1       0.3       1.3       1.6       0.4       0.0
 0 C  dx2y2           0.5       0.0       0.2       7.0       0.0       0.0
 0 C  dxy             0.0       1.6       0.2       0.5       0.0       0.5
 1 O  s               2.2       0.0       0.0      13.7       0.0       0.0
 1 O  pz              0.5       4.1      21.2       0.1       2.4       0.0
 1 O  px             10.1       0.0       1.7       1.0       0.1       0.0
 1 O  py              0.2      22.5       3.7       0.0       0.0       2.5
 1 O  dz2             0.0       0.1       0.3       0.0       0.3       0.0
 1 O  dxz             0.0       0.4       1.7       0.0       1.5       0.0
 1 O  dyz             0.0       0.1       0.1       0.0       0.0       0.1
 1 O  dx2y2           0.0       0.1       0.2       0.1       0.1       0.1
 1 O  dxy             0.0       2.1       0.3       0.0       0.0       1.7

                     12        13        14        15        16        17   
                   0.58793   0.75462   0.83617   0.92024   0.92025   1.48294
                   0.00000   0.00000   0.00000   0.00000   0.00000   0.00000
                  --------  --------  --------  --------  --------  --------
 0 C  s              63.8      18.2       1.1       0.0       0.0       0.0
 0 C  pz              1.6       1.4       0.3       2.8       0.2       0.0
 0 C  px             29.7      25.3       6.0       0.1       0.1       0.0
 0 C  py              0.5       0.4       0.1       0.3       2.9       0.0
 0 C  dz2             0.0       0.9       1.4       0.0       0.0      15.8
 0 C  dxz             0.0       0.7       1.1       0.2       0.0       3.1
 0 C  dyz             0.0       0.0       0.0       0.0       0.0      28.7
 0 C  dx2y2           0.0       3.2       4.8       0.0       0.0       7.7
 0 C  dxy             0.0       0.2       0.3       0.0       0.2       0.4
 1 O  s               1.3       2.7       4.4       0.0       0.0       0.0
 1 O  pz              0.1       0.8       4.1      84.0       6.5       0.0
 1 O  px              2.7      14.4      75.0       3.1       3.2       0.0
 1 O  py              0.0       0.2       1.2       8.2      85.7       0.0
 1 O  dz2             0.0       5.7       0.0       0.2       0.0      12.6
 1 O  dxz             0.0       4.5       0.0       0.9       0.1       2.4
 1 O  dyz             0.0       0.1       0.0       0.0       0.1      22.8
 1 O  dx2y2           0.1      20.0       0.2       0.0       0.1       6.1
 1 O  dxy             0.0       1.4       0.0       0.1       1.0       0.3

                     18        19        20        21        22        23   
                   1.48294   1.51104   1.54438   1.54438   1.94648   1.94648
                   0.00000   0.00000   0.00000   0.00000   0.00000   0.00000
                  --------  --------  --------  --------  --------  --------
 0 C  s               0.0       5.9       0.0       0.0       0.0       0.0
 0 C  pz              0.0       0.1       2.8       0.0       0.0       0.0
 0 C  px              0.0       2.1       0.1       0.0       0.0       0.0
 0 C  py              0.0       0.0       0.0       2.9       0.0       0.0
 0 C  dz2            21.9       0.3       7.3       0.0      13.5      16.4
 0 C  dxz             0.4       0.2      40.0       0.0       2.5       0.3
 0 C  dyz            23.4       0.0       0.6       2.5      21.5      19.8
 0 C  dx2y2           6.8       0.9       2.2       3.1       6.5       5.1
 0 C  dxy             3.3       0.1       0.2      44.7       0.2       2.6
 1 O  s               0.0      73.6       0.0       0.0       0.0       0.0
 1 O  pz              0.0       0.1       1.8       0.0       0.0       0.0
 1 O  px              0.0       0.9       0.1       0.0       0.0       0.0
 1 O  py              0.0       0.0       0.0       1.9       0.0       0.0
 1 O  dz2            17.3       2.8       6.5       0.0      17.0      20.7
 1 O  dxz             0.3       2.2      35.6       0.0       3.2       0.3
 1 O  dyz            18.6       0.0       0.6       2.3      27.2      25.0
 1 O  dx2y2           5.4      10.0       2.0       2.8       8.2       6.4
 1 O  dxy             2.6       0.7       0.2      39.8       0.3       3.3

                     24        25        26        27   
                   2.42318   2.60301   2.60302   2.95675
                   0.00000   0.00000   0.00000   0.00000
                  --------  --------  --------  --------
 0 C  s               1.0       0.0       0.0      15.6
 0 C  pz              0.1       2.9       0.0       0.6
 0 C  px              1.8       0.2       0.0      11.4
 0 C  py              0.0       0.0       3.0       0.2
 0 C  dz2            12.2       6.5       0.0       0.7
 0 C  dxz             9.6      35.6       0.2       0.5
 0 C  dyz             0.2       0.7       2.2       0.0
 0 C  dx2y2          42.9       2.2       2.6       2.4
 0 C  dxy             2.9       0.0      40.0       0.2
 1 O  s              10.9       0.0       0.0      15.5
 1 O  pz              0.7       3.2       0.0       0.4
 1 O  px             12.0       0.2       0.0       7.4
 1 O  py              0.2       0.0       3.3       0.1
 1 O  dz2             1.0       7.0       0.0       8.1
 1 O  dxz             0.8      38.5       0.2       6.4
 1 O  dyz             0.0       0.7       2.3       0.1
 1 O  dx2y2           3.6       2.4       2.8      28.5
 1 O  dxy             0.2       0.0      43.4       1.9


                      *****************************
                      * MAYER POPULATION ANALYSIS *
                      *****************************

  NA   - Mulliken gross atomic population
  ZA   - Total nuclear charge
  QA   - Mulliken gross atomic charge
  VA   - Mayer's total valence
  BVA  - Mayer's bonded valence
  FA   - Mayer's free valence

  ATOM       NA         ZA         QA         VA         BVA        FA
  0 C      5.8429     6.0000     0.1571     2.4132     2.4132     0.0000
  1 O      8.1571     8.0000    -0.1571     2.4132     2.4132    -0.0000

  Mayer bond orders larger than 0.1
B(  0-C ,  1-O ) :   2.4132 

-------
TIMINGS
-------

Total SCF time: 0 days 0 hours 0 min 1 sec 

Total time                  ....       1.886 sec
Sum of individual times     ....       1.549 sec  ( 82.1%)

Fock matrix formation       ....       1.196 sec  ( 63.4%)
  XC integration            ....       0.202 sec  ( 16.9% of F)
    Basis function eval.    ....       0.060 sec  ( 29.7% of XC)
    Density eval.           ....       0.048 sec  ( 23.9% of XC)
    XC-Functional eval.     ....       0.047 sec  ( 23.0% of XC)
    XC-Potential eval.      ....       0.026 sec  ( 13.0% of XC)
Diagonalization             ....       0.000 sec  (  0.0%)
Density matrix formation    ....       0.000 sec  (  0.0%)
Population analysis         ....       0.005 sec  (  0.3%)
Initial guess               ....       0.001 sec  (  0.0%)
Orbital Transformation      ....       0.000 sec  (  0.0%)
Orbital Orthonormalization  ....       0.000 sec  (  0.0%)
DIIS solution               ....       0.000 sec  (  0.0%)
SOSCF solution              ....       0.001 sec  (  0.0%)
Grid generation             ....       0.347 sec  ( 18.4%)

-------------------------   --------------------
FINAL SINGLE POINT ENERGY      -113.254651470922
-------------------------   --------------------

                                *** OPTIMIZATION RUN DONE ***

                            ***************************************
                            *     ORCA property calculations      *
                            ***************************************

                                    ---------------------
                                    Active property flags
                                    ---------------------
   (+) Dipole Moment


------------------------------------------------------------------------------
                       ORCA ELECTRIC PROPERTIES CALCULATION
------------------------------------------------------------------------------

Dipole Moment Calculation                       ... on
Quadrupole Moment Calculation                   ... off
Polarizability Calculation                      ... off
GBWName                                         ... /Users/lailaal-madhagi/Desktop/Testing_XAS_Analysis_code/CarbonMonoxide//Results_dir_CarbonMonoxide_geom_element_C_2019-11-10_00-49-59//GTE1_CarbonMonoxide_geom_2019-11-10_00-50-26//opt.gbw
Electron density file                           ... /Users/lailaal-madhagi/Desktop/Testing_XAS_Analysis_code/CarbonMonoxide//Results_dir_CarbonMonoxide_geom_element_C_2019-11-10_00-49-59//GTE1_CarbonMonoxide_geom_2019-11-10_00-50-26//opt.scfp.tmp
The origin for moment calculation is the CENTER OF MASS  = (-2.139799,  0.141592  0.303393)

-------------
DIPOLE MOMENT
-------------
                                X             Y             Z
Electronic contribution:      0.01771       0.00227      -0.00412
Nuclear contribution   :      0.00697       0.00089      -0.00162
                        -----------------------------------------
Total Dipole Moment    :      0.02468       0.00316      -0.00575
                        -----------------------------------------
Magnitude (a.u.)       :      0.02554
Magnitude (Debye)      :      0.06491



--------------------
Rotational spectrum 
--------------------
 
Rotational constants in cm-1:     0.000000     1.897736     1.897736 
Rotational constants in MHz :     0.000000 56892.702604 56892.702604 

 Dipole components along the rotational axes: 
x,y,z [a.u.] :     0.025539    -0.000000     0.000000 
x,y,z [Debye]:     0.064914    -0.000001     0.000000 

 

Timings for individual modules:

Sum of individual times         ...       18.301 sec (=   0.305 min)
GTO integral calculation        ...        2.883 sec (=   0.048 min)  15.8 %
SCF iterations                  ...       10.774 sec (=   0.180 min)  58.9 %
SCF Gradient evaluation         ...        3.134 sec (=   0.052 min)  17.1 %
Geometry relaxation             ...        1.510 sec (=   0.025 min)   8.3 %
                             ****ORCA TERMINATED NORMALLY****
TOTAL RUN TIME: 0 days 0 hours 0 minutes 19 seconds 967 msec
