
                                 *****************
                                 * O   R   C   A *
                                 *****************

           --- An Ab Initio, DFT and Semiempirical electronic structure package ---

                  #######################################################
                  #                        -***-                        #
                  #          Department of theory and spectroscopy      #
                  #               Directorship: Frank Neese             #
                  #        Max Planck Institute fuer Kohlenforschung    #
                  #                Kaiser Wilhelm Platz 1               #
                  #                 D-45470 Muelheim/Ruhr               #
                  #                      Germany                        #
                  #                                                     #
                  #                  All rights reserved                #
                  #                        -***-                        #
                  #######################################################


                         Program Version 4.1.0  - RELEASE  -


 With contributions from (in alphabetic order):
   Daniel Aravena         : Magnetic Properties
   Michael Atanasov       : Ab Initio Ligand Field Theory
   Alexander A. Auer      : GIAO ZORA
   Ute Becker             : Parallelization
   Giovanni Bistoni       : ED, Open-shell LED
   Martin Brehm           : Molecular dynamics
   Dmytro Bykov           : SCF Hessian
   Vijay G. Chilkuri      : MRCI spin determinant printing
   Dipayan Datta          : RHF DLPNO-CCSD density
   Achintya Kumar Dutta   : EOM-CC, STEOM-CC
   Dmitry Ganyushin       : Spin-Orbit,Spin-Spin,Magnetic field MRCI
   Miquel Garcia          : C-PCM Hessian
   Yang Guo               : DLPNO-NEVPT2, CIM, IAO-localization
   Andreas Hansen         : Spin unrestricted coupled pair/coupled cluster methods
   Benjamin Helmich-Paris : CASSCF linear response (MC-RPA)
   Lee Huntington         : MR-EOM, pCC
   Robert Izsak           : Overlap fitted RIJCOSX, COSX-SCS-MP3, EOM
   Christian Kollmar      : KDIIS, OOCD, Brueckner-CCSD(T), CCSD density
   Simone Kossmann        : Meta GGA functionals, TD-DFT gradient, OOMP2, MP2 Hessian
   Martin Krupicka        : AUTO-CI
   Lucas Lang             : DCDCAS
   Dagmar Lenk            : GEPOL surface, SMD
   Dimitrios Liakos       : Extrapolation schemes; parallel MDCI
   Dimitrios Manganas     : ROCIS; embedding schemes
   Dimitrios Pantazis     : SARC Basis sets
   Taras Petrenko         : DFT Hessian,TD-DFT gradient, ASA, ECA, R-Raman, ABS, FL, XAS/XES, NRVS
   Peter Pinski           : DLPNO-MP2, DLPNO-MP2 Gradient
   Christoph Reimann      : Effective Core Potentials
   Marius Retegan         : Local ZFS, SOC
   Christoph Riplinger    : Optimizer, TS searches, QM/MM, DLPNO-CCSD(T), (RO)-DLPNO pert. Triples
   Tobias Risthaus        : Range-separated hybrids, TD-DFT gradient, RPA, STAB
   Michael Roemelt        : Restricted open shell CIS
   Masaaki Saitow         : Open-shell DLPNO
   Barbara Sandhoefer     : DKH picture change effects
   Avijit Sen             : IP-ROCIS
   Kantharuban Sivalingam : CASSCF convergence, NEVPT2, FIC-MRCI
   Bernardo de Souza      : ESD, SOC TD-DFT
   Georgi Stoychev        : AutoAux, RI-MP2 NMR
   Willem Van den Heuvel  : Paramagnetic NMR
   Boris Wezisla          : Elementary symmetry handling
   Frank Wennmohs         : Technical directorship


 We gratefully acknowledge several colleagues who have allowed us to
 interface, adapt or use parts of their codes:
   Stefan Grimme, W. Hujo, H. Kruse,             : VdW corrections, initial TS optimization,
                  C. Bannwarth                     DFT functionals, gCP, sTDA/sTD-DF
   Ed Valeev                                     : LibInt (2-el integral package), F12 methods
   Garnet Chan, S. Sharma, J. Yang, R. Olivares  : DMRG
   Ulf Ekstrom                                   : XCFun DFT Library
   Mihaly Kallay                                 : mrcc  (arbitrary order and MRCC methods)
   Andreas Klamt, Michael Diedenhofen            : otool_cosmo (COSMO solvation model)
   Jiri Pittner, Ondrej Demel                    : Mk-CCSD
   Frank Weinhold                                : gennbo (NPA and NBO analysis)
   Christopher J. Cramer and Donald G. Truhlar   : smd solvation model
   Lars Goerigk                                  : TD-DFT with DH, B97 family of functionals
   V. Asgeirsson, H. Jonsson                     : NEB implementation
   FAccTs GmbH                                   : IRC, NEB, NEB-TS, Multilevel


 Your calculation uses the libint2 library for the computation of 2-el integrals
 For citations please refer to: http://libint.valeyev.net

 This ORCA versions uses:
   CBLAS   interface :  Fast vector & matrix operations
   LAPACKE interface :  Fast linear algebra routines
   SCALAPACK package :  Parallel linear algebra routines




***************************************
The coordinates will be read from file: /Users/lailaal-madhagi/Desktop/Testing_XAS_Analysis_code/PhenylAlanine/PhenylAlanine_geom.xyz
***************************************


----- Orbital basis set information -----
Your calculation utilizes the basis: 6-31G*
   H-He, Li-Ne : W. J. Hehre, R. Ditchfield and J.A. Pople, J. Chem. Phys. 56, 2257 (1972).
                 Note: He and Ne are unpublished basis sets taken from the Gaussian program.
                 Note: Li and B from J. D. Dill and J. A. Pople, J. Chem. Phys. 62, 2921 (1975).
   Na - Ar     : M. M. Francl, W. J. Pietro, W. J. Hehre, J. S. Binkley, M. S. Gordon, 
                 D. J. DeFrees and J. A. Pople, J. Chem. Phys. 77, 3654 (1982).
   K - Zn      : V. A. Rassolov, J. A. Pople, M. A. Ratner, and T. L. Windus, J. Chem. Phys. 109, 1223 (1998).

================================================================================
                                        WARNINGS
                       Please study these warnings very carefully!
================================================================================


WARNING: Geometry Optimization
  ===> : Switching off AutoStart
         For restart on a previous wavefunction, please use MOREAD

INFO   : the flag for use of LIBINT has been found!

================================================================================
                                       INPUT FILE
================================================================================
NAME = /Users/lailaal-madhagi/Desktop/Testing_XAS_Analysis_code/PhenylAlanine//Results_dir_PhenylAlanine_geom_element_C_2019-11-17_21-07-00//GTE1_PhenylAlanine_geom_2019-11-17_21-07-40//opt.inp
|  1> ! B3LYP 6-31G* TIGHTSCF Grid3 FinalGrid5 Opt 
|  2> !NormalPrint 
|  3> %output 
|  4> Print[P_Basis] 2 
|  5> Print[P_MOS] 1 
|  6> end 
|  7> *xyzfile 0 1 /Users/lailaal-madhagi/Desktop/Testing_XAS_Analysis_code/PhenylAlanine/PhenylAlanine_geom.xyz                           ****END OF INPUT****
================================================================================

                       *****************************
                       * Geometry Optimization Run *
                       *****************************

Geometry optimization settings:
Update method            Update   .... BFGS
Choice of coordinates    CoordSys .... Z-matrix Internals
Initial Hessian          InHess   .... Almoef's Model

Convergence Tolerances:
Energy Change            TolE     ....  5.0000e-06 Eh
Max. Gradient            TolMAXG  ....  3.0000e-04 Eh/bohr
RMS Gradient             TolRMSG  ....  1.0000e-04 Eh/bohr
Max. Displacement        TolMAXD  ....  4.0000e-03 bohr
RMS Displacement         TolRMSD  ....  2.0000e-03 bohr

------------------------------------------------------------------------------
                        ORCA OPTIMIZATION COORDINATE SETUP
------------------------------------------------------------------------------

The optimization will be done in new redundant internal coordinates
Making redundant internal coordinates   ...  (new redundants) done
Evaluating the initial hessian          ...  (Almloef) done
Evaluating the coordinates              ...  done
Calculating the B-matrix                .... done
Calculating the G-matrix                .... done
Diagonalizing the G-matrix              .... done
Small eigenvalue found = 9.525e-03
Small eigenvalue found = 2.728e-02
The first mode is                       ....   50
The number of degrees of freedom        ....   63

    -----------------------------------------------------------------
                    Redundant Internal Coordinates


    -----------------------------------------------------------------
         Definition                    Initial Value    Approx d2E/dq
    -----------------------------------------------------------------
      1. B(C   1,C   0)                  1.4117         0.576846   
      2. B(C   2,C   0)                  1.3992         0.604109   
      3. B(C   3,C   2)                  1.3947         0.614146   
      4. B(C   4,C   3)                  1.3940         0.615713   
      5. B(C   5,C   4)                  1.3973         0.608268   
      6. B(C   5,C   1)                  1.4094         0.581830   
      7. B(H   7,C   0)                  1.0699         0.387632   
      8. B(H   8,C   2)                  1.0827         0.369906   
      9. B(H   9,C   4)                  1.0825         0.370185   
     10. B(H  10,C   5)                  1.0835         0.368797   
     11. B(C  11,C   6)                  1.5140         0.396192   
     12. B(O  12,C  11)                  1.3477         0.653694   
     13. B(O  13,C  11)                  1.2227         1.034507   
     14. B(N  14,C   6)                  1.4655         0.424019   
     15. B(H  15,N  14)                  1.0458         0.379353   
     16. B(H  16,N  14)                  1.0392         0.388649   
     17. B(H  17,O  12)                  0.9677         0.505431   
     18. B(C  18,C   6)                  1.5536         0.342506   
     19. B(C  18,C   1)                  1.5255         0.379847   
     20. B(H  19,C   6)                  1.1146         0.328948   
     21. B(H  20,C  18)                  1.1126         0.331400   
     22. B(H  21,C  18)                  1.1129         0.331038   
     23. B(H  22,C   3)                  1.0826         0.369978   
     24. A(C   2,C   0,H   7)          116.3876         0.355774   
     25. A(C   1,C   0,C   2)          120.6887         0.426488   
     26. A(C   1,C   0,H   7)          122.9236         0.353000   
     27. A(C   0,C   1,C  18)          125.9284         0.392843   
     28. A(C   5,C   1,C  18)          116.1272         0.393436   
     29. A(C   0,C   1,C   5)          117.9440         0.423630   
     30. A(C   0,C   2,C   3)          120.3603         0.431308   
     31. A(C   3,C   2,H   8)          119.7988         0.353949   
     32. A(C   0,C   2,H   8)          119.8408         0.352963   
     33. A(C   2,C   3,H  22)          120.1018         0.353961   
     34. A(C   2,C   3,C   4)          119.7962         0.432786   
     35. A(C   4,C   3,H  22)          120.1020         0.354114   
     36. A(C   5,C   4,H   9)          119.9449         0.353418   
     37. A(C   3,C   4,H   9)          120.0112         0.354147   
     38. A(C   3,C   4,C   5)          120.0439         0.432038   
     39. A(C   1,C   5,C   4)          121.1668         0.427671   
     40. A(C   4,C   5,H  10)          118.6565         0.353193   
     41. A(C   1,C   5,H  10)          120.1767         0.350550   
     42. A(C  18,C   6,H  19)          104.6336         0.315062   
     43. A(N  14,C   6,H  19)          105.9941         0.324301   
     44. A(C  11,C   6,H  19)          105.9435         0.322636   
     45. A(N  14,C   6,C  18)          113.4803         0.363558   
     46. A(C  11,C   6,C  18)          114.1172         0.361615   
     47. A(C  11,C   6,N  14)          111.7524         0.372758   
     48. A(C   6,C  11,O  12)          121.5276         0.401965   
     49. A(O  12,C  11,O  13)          119.2163         0.474702   
     50. A(C   6,C  11,O  13)          119.2556         0.436231   
     51. A(C  11,O  12,H  17)          121.6080         0.371685   
     52. A(H  15,N  14,H  16)          109.0520         0.291976   
     53. A(C   6,N  14,H  16)          113.3514         0.330506   
     54. A(C   6,N  14,H  15)          109.9371         0.329186   
     55. A(C   1,C  18,H  20)          106.2895         0.320808   
     56. A(C   1,C  18,C   6)          123.0753         0.359028   
     57. A(H  20,C  18,H  21)          107.0397         0.283344   
     58. A(C   6,C  18,H  21)          106.1494         0.315386   
     59. A(C   1,C  18,H  21)          106.8848         0.320751   
     60. A(C   6,C  18,H  20)          106.5169         0.315442   
     61. D(C   5,C   1,C   0,H   7)   -179.7985         0.022850   
     62. D(C   5,C   1,C   0,C   2)      0.0844         0.022850   
     63. D(C  18,C   1,C   0,H   7)     -0.0736         0.022850   
     64. D(C  18,C   1,C   0,C   2)    179.8093         0.022850   
     65. D(C   3,C   2,C   0,C   1)     -0.0019         0.025177   
     66. D(C   3,C   2,C   0,H   7)    179.8884         0.025177   
     67. D(H   8,C   2,C   0,H   7)     -0.0736         0.025177   
     68. D(H   8,C   2,C   0,C   1)   -179.9639         0.025177   
     69. D(C   4,C   3,C   2,H   8)    179.9211         0.026070   
     70. D(H  22,C   3,C   2,C   0)   -179.9979         0.026070   
     71. D(H  22,C   3,C   2,H   8)     -0.0358         0.026070   
     72. D(C   4,C   3,C   2,C   0)     -0.0410         0.026070   
     73. D(C   5,C   4,C   3,H  22)    179.9557         0.026211   
     74. D(C   5,C   4,C   3,C   2)     -0.0012         0.026211   
     75. D(H   9,C   4,C   3,C   2)   -179.9764         0.026211   
     76. D(H   9,C   4,C   3,H  22)     -0.0195         0.026211   
     77. D(H  10,C   5,C   4,H   9)      0.0099         0.025545   
     78. D(C   1,C   5,C   4,H   9)   -179.9375         0.025545   
     79. D(C   1,C   5,C   4,C   3)      0.0873         0.025545   
     80. D(H  10,C   5,C   1,C  18)      0.1742         0.023265   
     81. D(C   4,C   5,C   1,C  18)   -179.8792         0.023265   
     82. D(H  10,C   5,C   4,C   3)   -179.9653         0.025545   
     83. D(C   4,C   5,C   1,C   0)     -0.1272         0.023265   
     84. D(H  10,C   5,C   1,C   0)    179.9262         0.023265   
     85. D(O  13,C  11,C   6,H  19)     -0.2009         0.011660   
     86. D(O  13,C  11,C   6,C  18)    114.3666         0.011660   
     87. D(O  13,C  11,C   6,N  14)   -115.1946         0.011660   
     88. D(O  12,C  11,C   6,H  19)    179.5374         0.011660   
     89. D(O  12,C  11,C   6,N  14)     64.5437         0.011660   
     90. D(O  12,C  11,C   6,C  18)    -65.8951         0.011660   
     91. D(H  17,O  12,C  11,C   6)    179.9720         0.031610   
     92. D(H  17,O  12,C  11,O  13)     -0.2896         0.031610   
     93. D(H  16,N  14,C   6,H  19)   -175.6982         0.015329   
     94. D(H  16,N  14,C   6,C  18)     70.0309         0.015329   
     95. D(H  16,N  14,C   6,C  11)    -60.7356         0.015329   
     96. D(H  15,N  14,C   6,H  19)     61.9703         0.015329   
     97. D(H  15,N  14,C   6,C  18)    -52.3005         0.015329   
     98. D(H  15,N  14,C   6,C  11)    176.9329         0.015329   
     99. D(H  21,C  18,C   6,H  19)     59.0436         0.009486   
    100. D(H  21,C  18,C   6,N  14)    174.1253         0.009486   
    101. D(H  21,C  18,C   6,C  11)    -56.2935         0.009486   
    102. D(H  20,C  18,C   6,H  19)    -54.7894         0.009486   
    103. D(H  20,C  18,C   6,N  14)     60.2924         0.009486   
    104. D(H  20,C  18,C   6,C  11)   -170.1264         0.009486   
    105. D(C   1,C  18,C   6,H  19)   -177.6274         0.009486   
    106. D(C   1,C  18,C   6,N  14)    -62.5456         0.009486   
    107. D(C   1,C  18,C   6,C  11)     67.0356         0.009486   
    108. D(H  21,C  18,C   1,C   5)    -55.8663         0.010767   
    109. D(H  21,C  18,C   1,C   0)    124.4044         0.010767   
    110. D(H  20,C  18,C   1,C   5)     58.1968         0.010767   
    111. D(H  20,C  18,C   1,C   0)   -121.5326         0.010767   
    112. D(C   6,C  18,C   1,C   5)   -178.8616         0.010767   
    113. D(C   6,C  18,C   1,C   0)      1.4090         0.010767   
    -----------------------------------------------------------------

Number of atoms                         .... 23
Number of degrees of freedom            .... 113

         *************************************************************
         *                GEOMETRY OPTIMIZATION CYCLE   1            *
         *************************************************************
---------------------------------
CARTESIAN COORDINATES (ANGSTROEM)
---------------------------------
  C     -2.707050    0.796170    0.092800
  C     -1.510620    1.528490   -0.066140
  C     -2.677540   -0.536090    0.519270
  C     -1.461630   -1.161460    0.794240
  C     -0.269470   -0.455140    0.642370
  C     -0.294010    0.875250    0.215870
  C     -2.641560    3.858020   -0.854770
  H     -3.673540    1.211880   -0.101790
  H     -3.603420   -1.085030    0.635980
  H      0.676250   -0.937220    0.854450
  H      0.645890    1.402750    0.104910
  C     -3.506030    4.182360    0.345100
  O     -4.185890    3.223100    1.003800
  O     -3.593380    5.342050    0.722690
  N     -3.437080    3.350290   -1.975980
  H     -2.820760    3.185120   -2.804600
  H     -3.949250    2.473690   -1.754040
  H     -4.738450    3.429040    1.771090
  C     -1.403380    2.979000   -0.526110
  H     -2.214660    4.829430   -1.196120
  H     -0.769860    2.970340   -1.440700
  H     -0.835110    3.525920    0.259070
  H     -1.443670   -2.192510    1.123950

----------------------------
CARTESIAN COORDINATES (A.U.)
----------------------------
  NO LB      ZA    FRAG     MASS         X           Y           Z
   0 C     6.0000    0    12.011   -5.115583    1.504543    0.175367
   1 C     6.0000    0    12.011   -2.854658    2.888427   -0.124986
   2 C     6.0000    0    12.011   -5.059817   -1.013063    0.981278
   3 C     6.0000    0    12.011   -2.762080   -2.194841    1.500896
   4 C     6.0000    0    12.011   -0.509225   -0.860090    1.213903
   5 C     6.0000    0    12.011   -0.555598    1.653983    0.407935
   6 C     6.0000    0    12.011   -4.991825    7.290601   -1.615281
   7 H     1.0000    0     1.008   -6.941985    2.290121   -0.192355
   8 H     1.0000    0     1.008   -6.809477   -2.050410    1.201828
   9 H     1.0000    0     1.008    1.277927   -1.771089    1.614676
  10 H     1.0000    0     1.008    1.220555    2.650813    0.198251
  11 C     6.0000    0    12.011   -6.625437    7.903515    0.652144
  12 O     8.0000    0    15.999   -7.910186    6.090776    1.896907
  13 O     8.0000    0    15.999   -6.790504   10.095011    1.365686
  14 N     7.0000    0    14.007   -6.495140    6.331131   -3.734061
  15 H     1.0000    0     1.008   -5.330464    6.019005   -5.299926
  16 H     1.0000    0     1.008   -7.463001    4.674597   -3.314655
  17 H     1.0000    0     1.008   -8.954373    6.479947    3.346875
  18 C     6.0000    0    12.011   -2.652004    5.629494   -0.994204
  19 H     1.0000    0     1.008   -4.185101    9.126300   -2.260339
  20 H     1.0000    0     1.008   -1.454825    5.613129   -2.722528
  21 H     1.0000    0     1.008   -1.578129    6.663023    0.489571
  22 H     1.0000    0     1.008   -2.728141   -4.143243    2.123958

--------------------------------
INTERNAL COORDINATES (ANGSTROEM)
--------------------------------
 C      0   0   0     0.000000000000     0.00000000     0.00000000
 C      1   0   0     1.411736254015     0.00000000     0.00000000
 C      1   2   0     1.399165540099   120.68872820     0.00000000
 C      3   1   2     1.394680345420   120.36034380     0.00000000
 C      4   3   1     1.393986335980   119.79621951   359.95900560
 C      5   4   3     1.397298111965   120.04385218     0.00000000
 C      2   1   3     2.706967414174    97.18869257   180.49228118
 H      1   2   3     1.069945322108   122.92359856   180.11708789
 H      3   1   2     1.082686529934   119.84083007   180.03607945
 H      5   4   3     1.082481118173   120.01123689   180.02364363
 H      6   5   4     1.083503752462   118.65653303   180.03469308
 C      7   2   1     1.513998954227   101.07077263    60.05493828
 O     12   7   2     1.347692493561   121.52759781   320.40259154
 O     12   7   2     1.222736736465   119.25559648   140.66428736
 N      7   2   1     1.465521643443    98.71553508   305.72247302
 H     15   7   2     1.045821483667   109.93709806   282.61658147
 H     15   7   2     1.039231943553   113.35136449    44.94806300
 H     13  12   7     0.967712654304   121.60804191   179.97195086
 C      2   1   3     1.525467822866   125.92835795   179.80932184
 H      7   2   1     1.114630351552   132.78118177   184.27841273
 H     19   2   1     1.112608401056   106.28945339   238.46744364
 H     19   2   1     1.112906065982   106.88480353   124.40435651
 H      4   3   1     1.082633524421   120.10179339   180.00210226

---------------------------
INTERNAL COORDINATES (A.U.)
---------------------------
 C      0   0   0     0.000000000000     0.00000000     0.00000000
 C      1   0   0     2.667794893416     0.00000000     0.00000000
 C      1   2   0     2.644039686807   120.68872820     0.00000000
 C      3   1   2     2.635563897206   120.36034380     0.00000000
 C      4   3   1     2.634252409431   119.79621951   359.95900560
 C      5   4   3     2.640510759058   120.04385218     0.00000000
 C      2   1   3     5.115427066238    97.18869257   180.49228118
 H      1   2   3     2.021903637054   122.92359856   180.11708789
 H      3   1   2     2.045981030460   119.84083007   180.03607945
 H      5   4   3     2.045592858487   120.01123689   180.02364363
 H      6   5   4     2.047525357230   118.65653303   180.03469308
 C      7   2   1     2.861043390532   101.07077263    60.05493828
 O     12   7   2     2.546769725571   121.52759781   320.40259154
 O     12   7   2     2.310637565803   119.25559648   140.66428736
 N      7   2   1     2.769434549442    98.71553508   305.72247302
 H     15   7   2     1.976316189102   109.93709806   282.61658147
 H     15   7   2     1.963863762937   113.35136449    44.94806300
 H     13  12   7     1.828711892964   121.60804191   179.97195086
 C      2   1   3     2.882716411326   125.92835795   179.80932184
 H      7   2   1     2.106346104989   132.78118177   184.27841273
 H     19   2   1     2.102525172296   106.28945339   238.46744364
 H     19   2   1     2.103087677486   106.88480353   124.40435651
 H      4   3   1     2.045880864557   120.10179339   180.00210226

---------------------
BASIS SET INFORMATION
---------------------
There are 4 groups of distinct atoms

 Group   1 Type C   : 10s4p1d contracted to 3s2p1d pattern {631/31/1}
 Group   2 Type H   : 4s contracted to 2s pattern {31}
 Group   3 Type O   : 10s4p1d contracted to 3s2p1d pattern {631/31/1}
 Group   4 Type N   : 10s4p1d contracted to 3s2p1d pattern {631/31/1}

Atom   0C    basis set group =>   1
Atom   1C    basis set group =>   1
Atom   2C    basis set group =>   1
Atom   3C    basis set group =>   1
Atom   4C    basis set group =>   1
Atom   5C    basis set group =>   1
Atom   6C    basis set group =>   1
Atom   7H    basis set group =>   2
Atom   8H    basis set group =>   2
Atom   9H    basis set group =>   2
Atom  10H    basis set group =>   2
Atom  11C    basis set group =>   1
Atom  12O    basis set group =>   3
Atom  13O    basis set group =>   3
Atom  14N    basis set group =>   4
Atom  15H    basis set group =>   2
Atom  16H    basis set group =>   2
Atom  17H    basis set group =>   2
Atom  18C    basis set group =>   1
Atom  19H    basis set group =>   2
Atom  20H    basis set group =>   2
Atom  21H    basis set group =>   2
Atom  22H    basis set group =>   2

-------------------------
BASIS SET IN INPUT FORMAT
-------------------------

 # Basis set for element : H 
 NewGTO H 
 S 3 
   1      18.7311370000      0.0334945995
   2       2.8253937000      0.2347269467
   3       0.6401217000      0.8137573184
 S 1 
   1       0.1612778000      1.0000000000
  end;

 # Basis set for element : C 
 NewGTO C 
 S 6 
   1    3047.5249000000      0.0018347002
   2     457.3695100000      0.0140373012
   3     103.9486900000      0.0688426061
   4      29.2101550000      0.2321844206
   5       9.2866630000      0.4679413416
   6       3.1639270000      0.3623120322
 S 3 
   1       7.8682724000     -0.1193324086
   2       1.8812885000     -0.1608542116
   3       0.5442493000      1.1434564826
 P 3 
   1       7.8682724000      0.0689990956
   2       1.8812885000      0.3164239798
   3       0.5442493000      0.7443082524
 S 1 
   1       0.1687144000      1.0000000000
 P 1 
   1       0.1687144000      1.0000000000
 D 1 
   1       0.8000000000      1.0000000000
  end;

 # Basis set for element : N 
 NewGTO N 
 S 6 
   1    4173.5110000000      0.0018347994
   2     627.4579000000      0.0139949958
   3     142.9021000000      0.0685869792
   4      40.2343300000      0.2322409295
   5      12.8202100000      0.4690698576
   6       4.3904370000      0.3604548906
 S 3 
   1      11.6263580000     -0.1149610229
   2       2.7162800000     -0.1691180337
   3       0.7722180000      1.1458522281
 P 3 
   1      11.6263580000      0.0675800232
   2       2.7162800000      0.3239071114
   3       0.7722180000      0.7408952549
 S 1 
   1       0.2120313000      1.0000000000
 P 1 
   1       0.2120313000      1.0000000000
 D 1 
   1       0.8000000000      1.0000000000
  end;

 # Basis set for element : O 
 NewGTO O 
 S 6 
   1    5484.6717000000      0.0018310998
   2     825.2349500000      0.0139500985
   3     188.0469600000      0.0684450927
   4      52.9645000000      0.2327142753
   5      16.8975700000      0.4701929501
   6       5.7996353000      0.3585208619
 S 3 
   1      15.5396160000     -0.1107775038
   2       3.5999336000     -0.1480263051
   3       1.0137618000      1.1307670390
 P 3 
   1      15.5396160000      0.0708742995
   2       3.5999336000      0.3397527978
   3       1.0137618000      0.7271585953
 S 1 
   1       0.2700058000      1.0000000000
 P 1 
   1       0.2700058000      1.0000000000
 D 1 
   1       0.8000000000      1.0000000000
  end;

------------------------------------------------------------------------------
                           ORCA GTO INTEGRAL CALCULATION
------------------------------------------------------------------------------

                         BASIS SET STATISTICS AND STARTUP INFO

 # of primitive gaussian shells          ...  224
 # of primitive gaussian functions       ...  368
 # of contracted shells                  ...   94
 # of contracted basis functions         ...  190
 Highest angular momentum                ...    2
 Maximum contraction depth               ...    6
 Integral package used                   ... LIBINT
 Integral threshhold            Thresh   ...  2.500e-11
 Primitive cut-off              TCut     ...  2.500e-12


------------------------------ INTEGRAL EVALUATION ----------------------------


 * One electron integrals 
 Pre-screening matrix                    ... done
 Shell pair data                         ... done (   0.004 sec)

-------------------------------------------------------------------------------
                                 ORCA SCF
-------------------------------------------------------------------------------

------------
SCF SETTINGS
------------
Hamiltonian:
 Density Functional     Method          .... DFT(GTOs)
 Exchange Functional    Exchange        .... B88
   X-Alpha parameter    XAlpha          ....  0.666667
   Becke's b parameter  XBeta           ....  0.004200
 Correlation Functional Correlation     .... LYP
 LDA part of GGA corr.  LDAOpt          .... VWN-5
 Gradients option       PostSCFGGA      .... off
 Hybrid DFT is turned on
   Fraction HF Exchange ScalHFX         ....  0.200000
   Scaling of DF-GGA-X  ScalDFX         ....  0.720000
   Scaling of DF-GGA-C  ScalDFC         ....  0.810000
   Scaling of DF-LDA-C  ScalLDAC        ....  1.000000
   Perturbative correction              ....  0.000000
   Density functional embedding theory  .... OFF
   NL short-range parameter             ....  4.800000


General Settings:
 Integral files         IntName         .... /Users/lailaal-madhagi/Desktop/Testing_XAS_Analysis_code/PhenylAlanine//Results_dir_PhenylAlanine_geom_element_C_2019-11-17_21-07-00//GTE1_PhenylAlanine_geom_2019-11-17_21-07-40//opt
 Hartree-Fock type      HFTyp           .... RHF
 Total Charge           Charge          ....    0
 Multiplicity           Mult            ....    1
 Number of Electrons    NEL             ....   88
 Basis Dimension        Dim             ....  190
 Nuclear Repulsion      ENuc            ....    676.8524585046 Eh

Convergence Acceleration:
 DIIS                   CNVDIIS         .... on
   Start iteration      DIISMaxIt       ....    12
   Startup error        DIISStart       ....  0.200000
   # of expansion vecs  DIISMaxEq       ....     5
   Bias factor          DIISBfac        ....   1.050
   Max. coefficient     DIISMaxC        ....  10.000
 Newton-Raphson         CNVNR           .... off
 SOSCF                  CNVSOSCF        .... on
   Start iteration      SOSCFMaxIt      ....   150
   Startup grad/error   SOSCFStart      ....  0.003300
 Level Shifting         CNVShift        .... on
   Level shift para.    LevelShift      ....    0.2500
   Turn off err/grad.   ShiftErr        ....    0.0010
 Zerner damping         CNVZerner       .... off
 Static damping         CNVDamp         .... on
   Fraction old density DampFac         ....    0.7000
   Max. Damping (<1)    DampMax         ....    0.9800
   Min. Damping (>=0)   DampMin         ....    0.0000
   Turn off err/grad.   DampErr         ....    0.1000
 Fernandez-Rico         CNVRico         .... off

SCF Procedure:
 Maximum # iterations   MaxIter         ....   125
 SCF integral mode      SCFMode         .... Direct
   Integral package                     .... LIBINT
 Reset frequency        DirectResetFreq ....    20
 Integral Threshold     Thresh          ....  2.500e-11 Eh
 Primitive CutOff       TCut            ....  2.500e-12 Eh

Convergence Tolerance:
 Convergence Check Mode ConvCheckMode   .... Total+1el-Energy
 Convergence forced     ConvForced      .... 0
 Energy Change          TolE            ....  1.000e-08 Eh
 1-El. energy change                    ....  1.000e-05 Eh
 Orbital Gradient       TolG            ....  1.000e-05
 Orbital Rotation angle TolX            ....  1.000e-05
 DIIS Error             TolErr          ....  5.000e-07


Diagonalization of the overlap matrix:
Smallest eigenvalue                        ... 4.860e-04
Time for diagonalization                   ...    0.012 sec
Threshold for overlap eigenvalues          ... 1.000e-08
Number of eigenvalues below threshold      ... 0
Time for construction of square roots      ...    0.003 sec
Total time needed                          ...    0.015 sec

-------------------
DFT GRID GENERATION
-------------------

General Integration Accuracy     IntAcc      ...  4.340
Radial Grid Type                 RadialGrid  ... Gauss-Chebyshev
Angular Grid (max. acc.)         AngularGrid ... Lebedev-194
Angular grid pruning method      GridPruning ... 3 (G Style)
Weight generation scheme         WeightScheme... Becke
Basis function cutoff            BFCut       ...    1.0000e-11
Integration weight cutoff        WCut        ...    1.0000e-14
Grids for H and He will be reduced by one unit

# of grid points (after initial pruning)     ...  56346 (   0.1 sec)
# of grid points (after weights+screening)   ...  50946 (   0.2 sec)
nearest neighbour list constructed           ...    0.0 sec
Grid point re-assignment to atoms done       ...    0.0 sec
Grid point division into batches done        ...    0.1 sec
Reduced shell lists constructed in    0.4 sec

Total number of grid points                  ...    50946
Total number of batches                      ...      807
Average number of points per batch           ...       63
Average number of grid points per atom       ...     2215
Average number of shells per batch           ...    56.78 (60.41%)
Average number of basis functions per batch  ...   115.60 (60.84%)
Average number of large shells per batch     ...    40.48 (71.28%)
Average number of large basis fcns per batch ...    82.79 (71.61%)
Maximum spatial batch extension              ...  19.04, 19.20, 19.99 au
Average spatial batch extension              ...   2.91,  2.87,  2.93 au

Time for grid setup =    0.665 sec

------------------------------
INITIAL GUESS: MODEL POTENTIAL
------------------------------
Loading Hartree-Fock densities                     ... done
Calculating cut-offs                               ... done
Setting up the integral package                    ... done
Initializing the effective Hamiltonian             ... done
Starting the Coulomb interaction                   ... done (   0.2 sec)
Reading the grid                                   ... done
Mapping shells                                     ... done
Starting the XC term evaluation                    ... done (   0.5 sec)
  promolecular density results
     # of electrons  =     87.992417383
     EX              =    -72.479571522
     EC              =     -2.981568683
     EX+EC           =    -75.461140205
Transforming the Hamiltonian                       ... done (   0.0 sec)
Diagonalizing the Hamiltonian                      ... done (   0.0 sec)
Back transforming the eigenvectors                 ... done (   0.0 sec)
Now organizing SCF variables                       ... done
                      ------------------
                      INITIAL GUESS DONE (   1.4 sec)
                      ------------------
--------------
SCF ITERATIONS
--------------
               ***  Starting incremental Fock matrix formation  ***

                         ----------------------------
                         !        ITERATION     0   !
                         ----------------------------
   Total Energy        :    -554.037880674021 Eh
   Energy Change       :    -554.037880674021 Eh
   MAX-DP              :       0.100505990089
   RMS-DP              :       0.002470114766
   Actual Damping      :       0.7000
   Actual Level Shift  :       0.2500 Eh
   Int. Num. El.       :    87.99959164 (UP=   43.99979582 DN=   43.99979582)
   Exchange            :   -59.49331403
   Correlation         :    -3.55532936


                         ----------------------------
                         !        ITERATION     1   !
                         ----------------------------
   Total Energy        :    -554.218755151360 Eh
   Energy Change       :      -0.180874477338 Eh
   MAX-DP              :       0.055766154670
   RMS-DP              :       0.001653000237
   Actual Damping      :       0.7000
   Actual Level Shift  :       0.2500 Eh
   Int. Num. El.       :    87.99955831 (UP=   43.99977915 DN=   43.99977915)
   Exchange            :   -59.01265867
   Correlation         :    -3.53808546

                               ***Turning on DIIS***

                         ----------------------------
                         !        ITERATION     2   !
                         ----------------------------
   Total Energy        :    -554.287378783274 Eh
   Energy Change       :      -0.068623631914 Eh
   MAX-DP              :       0.064485194348
   RMS-DP              :       0.002590710241
   Actual Damping      :       0.0000
   Actual Level Shift  :       0.2500 Eh
   Int. Num. El.       :    87.99952467 (UP=   43.99976233 DN=   43.99976233)
   Exchange            :   -58.71268155
   Correlation         :    -3.52646299
   DIIS-Error          :       0.037401207959


                         ----------------------------
                         !        ITERATION     3   !
                         ----------------------------
   Total Energy        :    -554.397391454045 Eh
   Energy Change       :      -0.110012670772 Eh
   MAX-DP              :       0.037740108778
   RMS-DP              :       0.001143295884
   Actual Damping      :       0.0000
   Actual Level Shift  :       0.2500 Eh
   Int. Num. El.       :    87.99944334 (UP=   43.99972167 DN=   43.99972167)
   Exchange            :   -58.29554195
   Correlation         :    -3.50880376
   DIIS-Error          :       0.061854895385
   DIIS coefficients:
      0.58857   0.41143


                         ----------------------------
                         !        ITERATION     4   !
                         ----------------------------
   Total Energy        :    -554.420449295150 Eh
   Energy Change       :      -0.023057841104 Eh
   MAX-DP              :       0.011358808375
   RMS-DP              :       0.000394055183
   Actual Damping      :       0.0000
   Actual Level Shift  :       0.2500 Eh
   Int. Num. El.       :    87.99945085 (UP=   43.99972543 DN=   43.99972543)
   Exchange            :   -58.48177320
   Correlation         :    -3.51644391
   DIIS-Error          :       0.015776589801
   DIIS coefficients:
      0.26663   0.08906   0.64431


                         ----------------------------
                         !        ITERATION     5   !
                         ----------------------------
   Total Energy        :    -554.422086502753 Eh
   Energy Change       :      -0.001637207603 Eh
   MAX-DP              :       0.004268776722
   RMS-DP              :       0.000117152677
   Actual Damping      :       0.0000
   Actual Level Shift  :       0.2500 Eh
   Int. Num. El.       :    87.99945901 (UP=   43.99972950 DN=   43.99972950)
   Exchange            :   -58.51307663
   Correlation         :    -3.51825776
   DIIS-Error          :       0.006043605209
   DIIS coefficients:
      0.06989   0.00057   0.19252   0.73703

                      *** Initiating the SOSCF procedure ***
                           *** Shutting down DIIS ***
                      *** Re-Reading the Fockian *** 
                      *** Removing any level shift *** 

                         ----------------------------
                         !        ITERATION     6   !
                         ----------------------------
   Total Energy        :    -554.422181930658 Eh
   Energy Change       :      -0.000095427905 Eh
   MAX-DP              :       0.001063856973
   RMS-DP              :       0.000038515629
   Orbital gradient    :       0.000235132550
   Orbital Rotation    :       0.000235132550
   Actual Damping      :       0.0000
   Int. Num. El.       :    87.99946454 (UP=   43.99973227 DN=   43.99973227)
   Exchange            :   -58.52234221
   Correlation         :    -3.51857789

               *** Restarting incremental Fock matrix formation ***

                         ----------------------------
                         !        ITERATION     7   !
                         ----------------------------
   Total Energy        :    -554.422189250037 Eh
   Energy Change       :      -0.000007319380 Eh
   MAX-DP              :       0.000958000960
   RMS-DP              :       0.000025716338
   Orbital gradient    :       0.000164092271
   Orbital Rotation    :       0.000512744269
   Actual Damping      :       0.0000
   Int. Num. El.       :    87.99946479 (UP=   43.99973239 DN=   43.99973239)
   Exchange            :   -58.52350968
   Correlation         :    -3.51860732


                         ----------------------------
                         !        ITERATION     8   !
                         ----------------------------
   Total Energy        :    -554.422188041537 Eh
   Energy Change       :       0.000001208501 Eh
   MAX-DP              :       0.000637032527
   RMS-DP              :       0.000012305360
   Orbital gradient    :       0.000404338850
   Orbital Rotation    :       0.000481918486
   Actual Damping      :       0.0000
   Int. Num. El.       :    87.99946537 (UP=   43.99973269 DN=   43.99973269)
   Exchange            :   -58.52280263
   Correlation         :    -3.51859667


                         ----------------------------
                         !        ITERATION     9   !
                         ----------------------------
   Total Energy        :    -554.422190743621 Eh
   Energy Change       :      -0.000002702085 Eh
   MAX-DP              :       0.000272162016
   RMS-DP              :       0.000006108789
   Orbital gradient    :       0.000080363591
   Orbital Rotation    :       0.000184332536
   Actual Damping      :       0.0000
   Int. Num. El.       :    87.99946529 (UP=   43.99973264 DN=   43.99973264)
   Exchange            :   -58.52323656
   Correlation         :    -3.51860758


                         ----------------------------
                         !        ITERATION    10   !
                         ----------------------------
   Total Energy        :    -554.422190552345 Eh
   Energy Change       :       0.000000191276 Eh
   MAX-DP              :       0.000180232162
   RMS-DP              :       0.000003804038
   Orbital gradient    :       0.000116722963
   Orbital Rotation    :       0.000109992025
   Actual Damping      :       0.0000
   Int. Num. El.       :    87.99946521 (UP=   43.99973261 DN=   43.99973261)
   Exchange            :   -58.52345608
   Correlation         :    -3.51860607


                         ----------------------------
                         !        ITERATION    11   !
                         ----------------------------
   Total Energy        :    -554.422190826853 Eh
   Energy Change       :      -0.000000274508 Eh
   MAX-DP              :       0.000023362504
   RMS-DP              :       0.000000807815
   Orbital gradient    :       0.000005390389
   Orbital Rotation    :       0.000022809370
   Actual Damping      :       0.0000
   Int. Num. El.       :    87.99946525 (UP=   43.99973262 DN=   43.99973262)
   Exchange            :   -58.52324767
   Correlation         :    -3.51860442


                         ----------------------------
                         !        ITERATION    12   !
                         ----------------------------
   Total Energy        :    -554.422190825967 Eh
   Energy Change       :       0.000000000887 Eh
   MAX-DP              :       0.000016898919
   RMS-DP              :       0.000000457239
   Orbital gradient    :       0.000009588349
   Orbital Rotation    :       0.000015985110
   Actual Damping      :       0.0000
   Int. Num. El.       :    87.99946526 (UP=   43.99973263 DN=   43.99973263)
   Exchange            :   -58.52330728
   Correlation         :    -3.51860718

                  ***Gradient check signals convergence***
              ***Rediagonalizing the Fockian in SOSCF/NRSCF***

               *****************************************************
               *                     SUCCESS                       *
               *           SCF CONVERGED AFTER  13 CYCLES          *
               *****************************************************

Setting up the final grid:

General Integration Accuracy     IntAcc      ...  5.010
Radial Grid Type                 RadialGrid  ... Gauss-Chebyshev
Angular Grid (max. acc.)         AngularGrid ... Lebedev-434
Angular grid pruning method      GridPruning ... 3 (G Style)
Weight generation scheme         WeightScheme... Becke
Basis function cutoff            BFCut       ...    1.0000e-11
Integration weight cutoff        WCut        ...    1.0000e-14
Grids for H and He will be reduced by one unit

# of grid points (after initial pruning)     ... 202168 (   0.2 sec)
# of grid points (after weights+screening)   ... 180726 (   0.7 sec)
nearest neighbour list constructed           ...    0.0 sec
Grid point re-assignment to atoms done       ...    0.0 sec
Grid point division into batches done        ...    1.0 sec
Reduced shell lists constructed in    2.2 sec

Total number of grid points                  ...   180726
Total number of batches                      ...     2838
Average number of points per batch           ...       63
Average number of grid points per atom       ...     7858
Average number of shells per batch           ...    52.57 (55.92%)
Average number of basis functions per batch  ...   106.55 (56.08%)
Average number of large shells per batch     ...    36.71 (69.84%)
Average number of large basis fcns per batch ...    74.84 (70.24%)
Maximum spatial batch extension              ...  18.05, 19.75, 21.70 au
Average spatial batch extension              ...   1.92,  1.91,  1.93 au

Final grid set up in    3.0 sec
Final integration                            ... done (   2.0 sec)
Change in XC energy                          ...    -0.000195372
Integrated number of electrons               ...    87.999960792
Previous integrated no of electrons          ...    87.999465247

----------------
TOTAL SCF ENERGY
----------------

Total Energy       :         -554.42238620 Eh          -15086.60012 eV

Components:
Nuclear Repulsion  :          676.85245850 Eh           18418.09175 eV
Electronic Energy  :        -1231.27484470 Eh          -33504.69187 eV
One Electron Energy:        -2096.13121185 Eh          -57038.63006 eV
Two Electron Energy:          864.85636714 Eh           23533.93819 eV

Virial components:
Potential Energy   :        -1105.46606415 Eh          -30081.26091 eV
Kinetic Energy     :          551.04367795 Eh           14994.66079 eV
Virial Ratio       :            2.00613147


DFT components:
N(Alpha)           :       43.999980395838 electrons
N(Beta)            :       43.999980395838 electrons
N(Total)           :       87.999960791676 electrons
E(X)               :      -58.523427797557 Eh       
E(C)               :       -3.518657116781 Eh       
E(XC)              :      -62.042084914337 Eh       
DFET-embed. en.    :        0.000000000000 Eh       

---------------
SCF CONVERGENCE
---------------

  Last Energy change         ...   -1.6570e-09  Tolerance :   1.0000e-08
  Last MAX-Density change    ...    5.9190e-06  Tolerance :   1.0000e-07
  Last RMS-Density change    ...    2.3300e-07  Tolerance :   5.0000e-09
  Last Orbital Gradient      ...    1.6548e-06  Tolerance :   1.0000e-05
  Last Orbital Rotation      ...    4.7191e-06  Tolerance :   1.0000e-05

             **** THE GBW FILE WAS UPDATED (/Users/lailaal-madhagi/Desktop/Testing_XAS_Analysis_code/PhenylAlanine//Results_dir_PhenylAlanine_geom_element_C_2019-11-17_21-07-00//GTE1_PhenylAlanine_geom_2019-11-17_21-07-40//opt.gbw) ****
             **** DENSITY FILE WAS UPDATED (/Users/lailaal-madhagi/Desktop/Testing_XAS_Analysis_code/PhenylAlanine//Results_dir_PhenylAlanine_geom_element_C_2019-11-17_21-07-00//GTE1_PhenylAlanine_geom_2019-11-17_21-07-40//opt.scfp.tmp) ****
             **** ENERGY FILE WAS UPDATED (/Users/lailaal-madhagi/Desktop/Testing_XAS_Analysis_code/PhenylAlanine//Results_dir_PhenylAlanine_geom_element_C_2019-11-17_21-07-00//GTE1_PhenylAlanine_geom_2019-11-17_21-07-40//opt.en.tmp) ****
----------------
ORBITAL ENERGIES
----------------

  NO   OCC          E(Eh)            E(eV) 
   0   2.0000     -19.185786      -522.0718 
   1   2.0000     -19.121710      -520.3282 
   2   2.0000     -14.315657      -389.5488 
   3   2.0000     -10.314894      -280.6825 
   4   2.0000     -10.230994      -278.3995 
   5   2.0000     -10.193520      -277.3798 
   6   2.0000     -10.191287      -277.3190 
   7   2.0000     -10.178759      -276.9781 
   8   2.0000     -10.177946      -276.9560 
   9   2.0000     -10.177911      -276.9550 
  10   2.0000     -10.176534      -276.9176 
  11   2.0000     -10.176209      -276.9087 
  12   2.0000      -1.096883       -29.8477 
  13   2.0000      -1.000136       -27.2151 
  14   2.0000      -0.889006       -24.1911 
  15   2.0000      -0.846610       -23.0374 
  16   2.0000      -0.772596       -21.0234 
  17   2.0000      -0.738612       -20.0987 
  18   2.0000      -0.722532       -19.6611 
  19   2.0000      -0.671692       -18.2777 
  20   2.0000      -0.621453       -16.9106 
  21   2.0000      -0.598364       -16.2823 
  22   2.0000      -0.575765       -15.6674 
  23   2.0000      -0.521116       -14.1803 
  24   2.0000      -0.496714       -13.5163 
  25   2.0000      -0.475419       -12.9368 
  26   2.0000      -0.467180       -12.7126 
  27   2.0000      -0.457920       -12.4606 
  28   2.0000      -0.450105       -12.2480 
  29   2.0000      -0.428854       -11.6697 
  30   2.0000      -0.420464       -11.4414 
  31   2.0000      -0.417514       -11.3611 
  32   2.0000      -0.411804       -11.2058 
  33   2.0000      -0.392438       -10.6788 
  34   2.0000      -0.378102       -10.2887 
  35   2.0000      -0.366308        -9.9677 
  36   2.0000      -0.346012        -9.4155 
  37   2.0000      -0.337859        -9.1936 
  38   2.0000      -0.329760        -8.9732 
  39   2.0000      -0.308585        -8.3970 
  40   2.0000      -0.264151        -7.1879 
  41   2.0000      -0.244048        -6.6409 
  42   2.0000      -0.235895        -6.4190 
  43   2.0000      -0.229871        -6.2551 
  44   0.0000       0.000080         0.0022 
  45   0.0000       0.004314         0.1174 
  46   0.0000       0.008276         0.2252 
  47   0.0000       0.055994         1.5237 
  48   0.0000       0.081017         2.2046 
  49   0.0000       0.099105         2.6968 
  50   0.0000       0.113478         3.0879 
  51   0.0000       0.138633         3.7724 
  52   0.0000       0.148185         4.0323 
  53   0.0000       0.157949         4.2980 
  54   0.0000       0.165414         4.5012 
  55   0.0000       0.170098         4.6286 
  56   0.0000       0.181450         4.9375 
  57   0.0000       0.194803         5.3009 
  58   0.0000       0.213802         5.8178 
  59   0.0000       0.214475         5.8362 
  60   0.0000       0.235437         6.4066 
  61   0.0000       0.259807         7.0697 
  62   0.0000       0.274087         7.4583 
  63   0.0000       0.308150         8.3852 
  64   0.0000       0.316955         8.6248 
  65   0.0000       0.323192         8.7945 
  66   0.0000       0.351832         9.5738 
  67   0.0000       0.374851        10.2002 
  68   0.0000       0.381324        10.3763 
  69   0.0000       0.473598        12.8873 
  70   0.0000       0.511650        13.9227 
  71   0.0000       0.520235        14.1563 
  72   0.0000       0.540603        14.7106 
  73   0.0000       0.545915        14.8551 
  74   0.0000       0.555583        15.1182 
  75   0.0000       0.563542        15.3348 
  76   0.0000       0.580072        15.7846 
  77   0.0000       0.590991        16.0817 
  78   0.0000       0.605000        16.4629 
  79   0.0000       0.605653        16.4806 
  80   0.0000       0.608699        16.5635 
  81   0.0000       0.622225        16.9316 
  82   0.0000       0.628342        17.0981 
  83   0.0000       0.638947        17.3866 
  84   0.0000       0.647108        17.6087 
  85   0.0000       0.657867        17.9015 
  86   0.0000       0.667420        18.1614 
  87   0.0000       0.674188        18.3456 
  88   0.0000       0.708286        19.2734 
  89   0.0000       0.721985        19.6462 
  90   0.0000       0.737541        20.0695 
  91   0.0000       0.770462        20.9653 
  92   0.0000       0.795350        21.6426 
  93   0.0000       0.813584        22.1387 
  94   0.0000       0.818988        22.2858 
  95   0.0000       0.839519        22.8445 
  96   0.0000       0.840746        22.8779 
  97   0.0000       0.852102        23.1869 
  98   0.0000       0.855743        23.2859 
  99   0.0000       0.873607        23.7721 
 100   0.0000       0.884916        24.0798 
 101   0.0000       0.888338        24.1729 
 102   0.0000       0.902070        24.5466 
 103   0.0000       0.919223        25.0133 
 104   0.0000       0.928396        25.2629 
 105   0.0000       0.935302        25.4509 
 106   0.0000       0.945187        25.7199 
 107   0.0000       0.955979        26.0135 
 108   0.0000       0.976394        26.5690 
 109   0.0000       0.996075        27.1046 
 110   0.0000       1.013045        27.5663 
 111   0.0000       1.016643        27.6643 
 112   0.0000       1.050085        28.5743 
 113   0.0000       1.070378        29.1265 
 114   0.0000       1.089585        29.6491 
 115   0.0000       1.121697        30.5229 
 116   0.0000       1.126166        30.6445 
 117   0.0000       1.159204        31.5435 
 118   0.0000       1.179623        32.0992 
 119   0.0000       1.191987        32.4356 
 120   0.0000       1.223822        33.3019 
 121   0.0000       1.264832        34.4178 
 122   0.0000       1.289035        35.0764 
 123   0.0000       1.374682        37.4070 
 124   0.0000       1.400487        38.1092 
 125   0.0000       1.417433        38.5703 
 126   0.0000       1.443663        39.2841 
 127   0.0000       1.445458        39.3329 
 128   0.0000       1.474948        40.1354 
 129   0.0000       1.483147        40.3585 
 130   0.0000       1.495037        40.6820 
 131   0.0000       1.496316        40.7168 
 132   0.0000       1.514398        41.2089 
 133   0.0000       1.527786        41.5732 
 134   0.0000       1.595739        43.4223 
 135   0.0000       1.630361        44.3644 
 136   0.0000       1.695630        46.1404 
 137   0.0000       1.722704        46.8772 
 138   0.0000       1.750130        47.6235 
 139   0.0000       1.767615        48.0992 
 140   0.0000       1.794338        48.8264 
 141   0.0000       1.817991        49.4701 
 142   0.0000       1.822087        49.5815 
 143   0.0000       1.834342        49.9150 
 144   0.0000       1.852628        50.4126 
 145   0.0000       1.886320        51.3294 
 146   0.0000       1.898473        51.6601 
 147   0.0000       1.911200        52.0064 
 148   0.0000       1.918985        52.2182 
 149   0.0000       1.955819        53.2205 
 150   0.0000       1.980032        53.8794 
 151   0.0000       1.992377        54.2153 
 152   0.0000       2.000039        54.4238 
 153   0.0000       2.043181        55.5978 
 154   0.0000       2.055661        55.9374 
 155   0.0000       2.066933        56.2441 
 156   0.0000       2.120023        57.6888 
 157   0.0000       2.140323        58.2412 
 158   0.0000       2.149187        58.4823 
 159   0.0000       2.150538        58.5191 
 160   0.0000       2.176034        59.2129 
 161   0.0000       2.194177        59.7066 
 162   0.0000       2.210742        60.1573 
 163   0.0000       2.243419        61.0465 
 164   0.0000       2.272180        61.8292 
 165   0.0000       2.289985        62.3137 
 166   0.0000       2.313056        62.9415 
 167   0.0000       2.349924        63.9447 
 168   0.0000       2.375005        64.6272 
 169   0.0000       2.403746        65.4092 
 170   0.0000       2.421208        65.8844 
 171   0.0000       2.446316        66.5677 
 172   0.0000       2.524149        68.6856 
 173   0.0000       2.584612        70.3309 
 174   0.0000       2.590501        70.4911 
 175   0.0000       2.609444        71.0066 
 176   0.0000       2.648704        72.0749 
 177   0.0000       2.659025        72.3557 
 178   0.0000       2.695912        73.3595 
 179   0.0000       2.743823        74.6632 
 180   0.0000       2.753095        74.9155 
 181   0.0000       2.765480        75.2525 
 182   0.0000       2.790816        75.9420 
 183   0.0000       2.828593        76.9699 
 184   0.0000       2.876999        78.2871 
 185   0.0000       2.910672        79.2034 
 186   0.0000       2.991055        81.3907 
 187   0.0000       3.061624        83.3110 
 188   0.0000       3.084869        83.9435 
 189   0.0000       3.411462        92.8306 
------------------
MOLECULAR ORBITALS
------------------
                      0         1         2         3         4         5   
                 -19.18579 -19.12171 -14.31566 -10.31489 -10.23099 -10.19352
                   2.00000   2.00000   2.00000   2.00000   2.00000   2.00000
                  --------  --------  --------  --------  --------  --------
  0C   1s         0.000009  0.000005 -0.000017  0.000010  0.000049 -0.011177
  0C   2s         0.000050  0.000027 -0.000097  0.000070 -0.000044  0.001422
  0C   1pz        0.000002  0.000040  0.000028  0.000005 -0.000058 -0.000167
  0C   1px       -0.000017  0.000037 -0.000061 -0.000037  0.000060  0.001095
  0C   1py       -0.000102 -0.000011  0.000031 -0.000109  0.000291  0.000692
  0C   3s        -0.000664 -0.000607  0.000958 -0.001271  0.002362 -0.009218
  0C   2pz       -0.000562 -0.000408  0.000133 -0.000555  0.000939  0.000358
  0C   2px        0.000722 -0.000634  0.001618 -0.000035 -0.001313 -0.004162
  0C   2py        0.001649  0.000903 -0.000827  0.001970 -0.003635 -0.001701
  0C   1dz2      -0.000001  0.000011 -0.000020  0.000025 -0.000015 -0.000621
  0C   1dxz      -0.000016  0.000007  0.000012 -0.000018  0.000000 -0.000211
  0C   1dyz       0.000008 -0.000011 -0.000046  0.000043 -0.000098 -0.000133
  0C   1dx2y2     0.000109 -0.000016 -0.000005  0.000067 -0.000242  0.000485
  0C   1dxy       0.000064  0.000028 -0.000006  0.000052 -0.000076  0.000981
  1C   1s         0.000024  0.000027 -0.000013  0.000024  0.000029 -0.994506
  1C   2s         0.000228  0.000276 -0.000080  0.000203 -0.000318 -0.036478
  1C   1pz       -0.000010  0.000057 -0.000066 -0.000110 -0.000103 -0.000083
  1C   1px       -0.000014 -0.000048  0.000019  0.000094 -0.000185 -0.000068
  1C   1py        0.000069  0.000130 -0.000079 -0.000016  0.000171  0.000270
  1C   3s        -0.001595 -0.001363 -0.000361 -0.002556  0.006286  0.031192
  1C   2pz        0.000603  0.000596 -0.000658  0.000613  0.000179  0.000407
  1C   2px        0.001042  0.000543 -0.000205  0.000421  0.000393 -0.000383
  1C   2py       -0.000382 -0.002256  0.002202 -0.001928  0.000101 -0.001646
  1C   1dz2      -0.000004  0.000010  0.000015  0.000097 -0.000082  0.000519
  1C   1dxz       0.000045  0.000020  0.000025 -0.000046  0.000070 -0.000041
  1C   1dyz       0.000082  0.000034 -0.000088 -0.000022 -0.000077  0.000175
  1C   1dx2y2    -0.000040  0.000036  0.000001  0.000035 -0.000033 -0.000356
  1C   1dxy      -0.000029  0.000004 -0.000056  0.000096 -0.000196 -0.000131
  2C   1s        -0.000017 -0.000006  0.000010 -0.000025  0.000098 -0.000088
  2C   2s        -0.000096 -0.000031  0.000066 -0.000125  0.000350  0.000124
  2C   1pz        0.000001 -0.000019 -0.000004  0.000009  0.000011 -0.000045
  2C   1px        0.000000  0.000007 -0.000014  0.000032  0.000003  0.000067
  2C   1py        0.000040  0.000014 -0.000005  0.000027 -0.000047  0.000166
  2C   3s         0.001589  0.001141 -0.001041  0.001884 -0.004015  0.002107
  2C   2pz       -0.000326 -0.000031  0.000243 -0.000472  0.000838  0.000004
  2C   2px       -0.000123  0.000355 -0.000516 -0.000195  0.000073  0.001610
  2C   2py        0.000929  0.000361 -0.000591  0.001263 -0.002436  0.000198
  2C   1dz2      -0.000028 -0.000008  0.000007 -0.000029  0.000087  0.000059
  2C   1dxz      -0.000001  0.000004  0.000011 -0.000004 -0.000009 -0.000023
  2C   1dyz      -0.000032  0.000001  0.000025 -0.000039  0.000099  0.000018
  2C   1dx2y2    -0.000032 -0.000001  0.000019 -0.000048  0.000096 -0.000047
  2C   1dxy      -0.000011 -0.000001 -0.000029  0.000010  0.000013  0.000040
  3C   1s         0.000007  0.000007 -0.000004  0.000007 -0.000016  0.000451
  3C   2s         0.000048  0.000051 -0.000028  0.000035 -0.000058  0.000420
  3C   1pz       -0.000001 -0.000005  0.000000 -0.000010  0.000014 -0.000038
  3C   1px        0.000017 -0.000002 -0.000006  0.000014 -0.000066 -0.000002
  3C   1py        0.000015  0.000010 -0.000004  0.000028 -0.000048  0.000116
  3C   3s        -0.000276 -0.000565  0.000617 -0.000050 -0.000269 -0.002949
  3C   2pz        0.000118  0.000146 -0.000152  0.000142 -0.000294  0.000579
  3C   2px       -0.000308  0.000116  0.000127 -0.000382  0.000259  0.000172
  3C   2py       -0.000397 -0.000460  0.000441 -0.000493  0.000890 -0.001743
  3C   1dz2       0.000009  0.000010 -0.000001  0.000002 -0.000005  0.000058
  3C   1dxz      -0.000001  0.000002  0.000002 -0.000003  0.000007 -0.000009
  3C   1dyz       0.000006  0.000004 -0.000001  0.000002 -0.000007  0.000032
  3C   1dx2y2    -0.000003 -0.000005 -0.000001  0.000001 -0.000002 -0.000013
  3C   1dxy      -0.000002  0.000005  0.000007 -0.000010 -0.000012 -0.000000
  4C   1s        -0.000002 -0.000008  0.000006 -0.000006  0.000015 -0.000126
  4C   2s        -0.000013 -0.000046  0.000036 -0.000031  0.000057  0.000105
  4C   1pz        0.000013 -0.000008  0.000007 -0.000013 -0.000005 -0.000056
  4C   1px       -0.000013 -0.000013  0.000007 -0.000027  0.000072 -0.000083
  4C   1py       -0.000006  0.000022 -0.000019  0.000009  0.000032  0.000157
  4C   3s         0.000370  0.001250 -0.001028  0.001188 -0.001705  0.002320
  4C   2pz       -0.000006 -0.000211  0.000099 -0.000050  0.000223 -0.000218
  4C   2px       -0.000236 -0.000223  0.000366 -0.000132 -0.000638 -0.001377
  4C   2py       -0.000113  0.000533 -0.000248  0.000286 -0.000773  0.000409
  4C   1dz2      -0.000002 -0.000006  0.000007 -0.000012  0.000022  0.000057
  4C   1dxz       0.000003 -0.000001 -0.000001 -0.000003  0.000006  0.000009
  4C   1dyz       0.000001 -0.000015  0.000004  0.000000  0.000020  0.000015
  4C   1dx2y2     0.000007 -0.000011  0.000006 -0.000006  0.000019 -0.000047
  4C   1dxy       0.000010  0.000001 -0.000003  0.000005 -0.000023 -0.000056
  5C   1s         0.000000  0.000007 -0.000007 -0.000003  0.000109 -0.012569
  5C   2s        -0.000005  0.000032 -0.000047 -0.000017  0.000379  0.001339
  5C   1pz       -0.000020  0.000001 -0.000022  0.000033 -0.000022 -0.000252
  5C   1px        0.000012  0.000024 -0.000016 -0.000006 -0.000022 -0.001073
  5C   1py        0.000002 -0.000051  0.000017 -0.000008  0.000056  0.000601
  5C   3s        -0.000431 -0.001364  0.001290 -0.000570 -0.001660 -0.009036
  5C   2pz        0.000027 -0.000197  0.000155 -0.000368  0.000737  0.000528
  5C   2px        0.000201  0.000546 -0.000736  0.000180  0.002075  0.003727
  5C   2py       -0.000160  0.001037 -0.000560  0.000863 -0.002054 -0.000920
  5C   1dz2       0.000003  0.000008 -0.000006 -0.000013  0.000101 -0.000562
  5C   1dxz       0.000019 -0.000008  0.000004  0.000023 -0.000037  0.000386
  5C   1dyz       0.000001  0.000006 -0.000003 -0.000012  0.000024 -0.000214
  5C   1dx2y2    -0.000007 -0.000003  0.000008  0.000011 -0.000121  0.000565
  5C   1dxy       0.000005 -0.000023  0.000016 -0.000039  0.000092 -0.000909
  6C   1s        -0.000073  0.000102  0.000009  0.000930 -0.995599 -0.000072
  6C   2s        -0.000767  0.001150  0.001007 -0.000874 -0.039867  0.000039
  6C   1pz       -0.000226  0.000222  0.000077 -0.000434 -0.000131  0.000073
  6C   1px        0.000096 -0.000143 -0.000051  0.000363  0.000443  0.000079
  6C   1py       -0.000216 -0.000108 -0.000135 -0.000122  0.000428 -0.000105
  6C   3s         0.005680 -0.005559 -0.006920  0.006713  0.044433  0.000599
  6C   2pz        0.002673 -0.000756  0.003543  0.003649  0.003472 -0.000202
  6C   2px       -0.001171  0.001054  0.002452 -0.003003 -0.000619 -0.000013
  6C   2py        0.004973  0.005241  0.002440  0.002563 -0.002153 -0.001377
  6C   1dz2      -0.000095 -0.000007  0.000248 -0.000416 -0.000108  0.000031
  6C   1dxz       0.000104 -0.000023  0.000459  0.000632 -0.000031  0.000045
  6C   1dyz       0.000308  0.000332  0.000175 -0.000282 -0.000070 -0.000051
  6C   1dx2y2    -0.000211 -0.000139  0.000111 -0.000298  0.000038 -0.000057
  6C   1dxy      -0.000153 -0.000196  0.000133  0.000271 -0.000216 -0.000117
  7H   1s        -0.000248 -0.000105 -0.000011 -0.000003  0.000295  0.000284
  7H   2s         0.000628 -0.000288  0.001654 -0.000473 -0.000951 -0.000375
  8H   1s        -0.000023  0.000001 -0.000004 -0.000049  0.000064  0.000069
  8H   2s         0.000018  0.000098 -0.000265  0.000068 -0.000213  0.000204
  9H   1s        -0.000000 -0.000008  0.000000 -0.000029  0.000100  0.000054
  9H   2s         0.000024  0.000067 -0.000078  0.000001  0.000166  0.000163
 10H   1s         0.000010 -0.000066  0.000037 -0.000054  0.000130  0.000245
 10H   2s        -0.000013 -0.000240  0.000263 -0.000166 -0.000456 -0.000149
 11C   1s         0.000077 -0.000244  0.000029  0.995139  0.000943 -0.000023
 11C   2s         0.000278 -0.000374  0.000490  0.036692  0.001631  0.000039
 11C   1pz        0.000325  0.000010 -0.000396  0.001162 -0.000257  0.000037
 11C   1px       -0.000313  0.000019  0.000117 -0.000782  0.000104  0.000006
 11C   1py       -0.000376 -0.000072 -0.000106  0.000236 -0.000022 -0.000004
 11C   3s         0.004087 -0.008955 -0.001281 -0.011744 -0.010250  0.000451
 11C   2pz        0.007553 -0.003849  0.000316  0.008985  0.006625 -0.000310
 11C   2px       -0.007286  0.000676 -0.000526 -0.006516 -0.004751  0.000634
 11C   2py       -0.008302 -0.012274 -0.000716  0.003237  0.002083  0.001748
 11C   1dz2       0.000130 -0.000410  0.000137 -0.000637  0.000535 -0.000027
 11C   1dxz      -0.000161  0.000236 -0.000043 -0.001044 -0.000749  0.000031
 11C   1dyz       0.000185  0.000389  0.000010  0.000203  0.000187  0.000068
 11C   1dx2y2     0.000078 -0.000677 -0.000030 -0.001580  0.000367 -0.000055
 11C   1dxy      -0.000152 -0.000089 -0.000108  0.000574 -0.000179 -0.000075
 12O   1s         0.995153 -0.000493 -0.000003  0.000140  0.000016 -0.000015
 12O   2s         0.030389  0.000473 -0.000059  0.001129  0.000441 -0.000197
 12O   1pz        0.000086 -0.000245  0.000041  0.000398 -0.000189  0.000031
 12O   1px        0.000209  0.000195 -0.000047 -0.000335  0.000131  0.000030
 12O   1py        0.001572  0.000045 -0.000001 -0.000228  0.000163 -0.000002
 12O   3s        -0.023341 -0.001795 -0.000047 -0.005243 -0.000949  0.001121
 12O   2pz        0.002048  0.001982 -0.000305  0.000697  0.000135 -0.000367
 12O   2px       -0.002561 -0.001332  0.000212 -0.001344 -0.000188  0.000182
 12O   2py       -0.005371  0.001004  0.000044 -0.004415 -0.001192  0.000181
 12O   1dz2       0.000082 -0.000226  0.000065  0.000471  0.000082  0.000016
 12O   1dxz       0.000363  0.000279 -0.000050  0.000940  0.000096 -0.000022
 12O   1dyz       0.000315  0.000017 -0.000045  0.001291 -0.000069 -0.000018
 12O   1dx2y2     0.000185 -0.000242  0.000010  0.000742  0.000248 -0.000005
 12O   1dxy      -0.000368  0.000052  0.000013 -0.001419 -0.000072  0.000005
 13O   1s        -0.000520 -0.995166 -0.000009 -0.000014  0.000024  0.000016
 13O   2s        -0.000560 -0.030312 -0.000213  0.000763  0.000658  0.000232
 13O   1pz        0.000153  0.000654  0.000069  0.000430 -0.000041 -0.000010
 13O   1px       -0.000102 -0.000153  0.000033 -0.000197  0.000024  0.000005
 13O   1py        0.000097  0.002136  0.000011  0.000875 -0.000189  0.000019
 13O   3s         0.002299  0.024166  0.000942 -0.006858 -0.001537 -0.001377
 13O   2pz       -0.002119 -0.002127 -0.000373 -0.000034 -0.000671  0.000282
 13O   2px        0.001664  0.000511  0.000007  0.000987  0.000574 -0.000159
 13O   2py        0.000148 -0.006818 -0.000293  0.004989  0.000877  0.000344
 13O   1dz2       0.000206 -0.000140  0.000057  0.000772  0.000091  0.000005
 13O   1dxz      -0.000245  0.000047  0.000014  0.000102  0.000165 -0.000007
 13O   1dyz       0.000345  0.000136  0.000066 -0.000710  0.000112 -0.000046
 13O   1dx2y2     0.000106 -0.000244 -0.000028  0.001563  0.000152  0.000020
 13O   1dxy      -0.000277 -0.000039 -0.000040 -0.000026 -0.000152  0.000029
 14N   1s         0.000003 -0.000028 -0.995284 -0.000028  0.000006  0.000004
 14N   2s         0.000053 -0.000303 -0.032015 -0.000516  0.000741  0.000057
 14N   1pz        0.000111  0.000067 -0.000626 -0.000351  0.000318 -0.000016
 14N   1px       -0.000040  0.000047 -0.001226  0.000092  0.000191  0.000008
 14N   1py        0.000038 -0.000022  0.001012 -0.000120  0.000194 -0.000052
 14N   3s         0.000797  0.002449  0.022957  0.000822 -0.006912 -0.000566
 14N   2pz       -0.000444  0.000763  0.002713  0.001603 -0.002481 -0.000076
 14N   2px        0.000615  0.000653  0.003159 -0.000270 -0.001229 -0.000135
 14N   2py       -0.000696 -0.000332 -0.001233  0.000169 -0.000419  0.000236
 14N   1dz2      -0.000080  0.000057  0.000158  0.000111  0.000363  0.000001
 14N   1dxz       0.000035  0.000141  0.000101 -0.000053  0.000885 -0.000005
 14N   1dyz      -0.000111 -0.000064  0.000084  0.000025  0.000686  0.000022
 14N   1dx2y2     0.000121  0.000025  0.000106  0.000079  0.000229 -0.000000
 14N   1dxy      -0.000101 -0.000072  0.000143  0.000079  0.000326 -0.000023
 15H   1s        -0.000136 -0.000085 -0.000203  0.000186  0.000293  0.000031
 15H   2s        -0.000183 -0.000126 -0.003307  0.000865 -0.000391  0.000141
 16H   1s         0.000080 -0.000045  0.000010 -0.000359  0.000399  0.000107
 16H   2s        -0.000460 -0.000348 -0.004155  0.000245  0.000040  0.000075
 17H   1s         0.000461 -0.000294  0.000065  0.000417  0.000116 -0.000015
 17H   2s         0.001383 -0.000361  0.000086 -0.000328 -0.000717  0.000091
 18C   1s         0.000014 -0.000061  0.000062 -0.000262 -0.001475 -0.031955
 18C   2s         0.000193 -0.000408  0.000862 -0.001171  0.001285 -0.000410
 18C   1pz        0.000189  0.000050 -0.000361 -0.000260 -0.000121  0.000203
 18C   1px       -0.000075 -0.000061 -0.000391  0.000423 -0.000180 -0.000248
 18C   1py        0.000028 -0.000060  0.000059 -0.000197  0.000193 -0.000742
 18C   3s         0.000834  0.004455 -0.002090  0.004237 -0.012216 -0.003965
 18C   2pz       -0.001801 -0.000680  0.000609  0.001322  0.000809 -0.000563
 18C   2px       -0.000524 -0.002084  0.000417 -0.002432  0.005127  0.001868
 18C   2py       -0.001205 -0.000830  0.000764 -0.000344 -0.002281  0.003028
 18C   1dz2       0.000058 -0.000113  0.000013  0.000000 -0.000217 -0.000437
 18C   1dxz       0.000063  0.000112  0.000064  0.000009  0.000236 -0.000039
 18C   1dyz      -0.000073 -0.000040 -0.000091 -0.000038 -0.000163 -0.000560
 18C   1dx2y2     0.000073  0.000127  0.000132  0.000022  0.000159 -0.000874
 18C   1dxy       0.000080  0.000022  0.000001 -0.000033 -0.000595  0.000086
 19H   1s        -0.000632 -0.000074  0.000367 -0.000450 -0.000033  0.000110
 19H   2s        -0.001022 -0.001516 -0.000189  0.000254 -0.005765  0.000075
 20H   1s        -0.000170 -0.000097  0.000117  0.000016  0.000405  0.000405
 20H   2s        -0.000450 -0.000277  0.000889  0.001137  0.000172 -0.001300
 21H   1s         0.000211 -0.000178  0.000086 -0.000385  0.000409  0.000348
 21H   2s         0.000916  0.000848 -0.000869  0.000041  0.000043 -0.001481
 22H   1s        -0.000030 -0.000024  0.000022 -0.000053  0.000115 -0.000040
 22H   2s        -0.000125 -0.000132  0.000116 -0.000169  0.000325 -0.000547
                      6         7         8         9        10        11   
                 -10.19129 -10.17876 -10.17795 -10.17791 -10.17653 -10.17621
                   2.00000   2.00000   2.00000   2.00000   2.00000   2.00000
                  --------  --------  --------  --------  --------  --------
  0C   1s         0.000863 -0.002073  0.129017 -0.078736 -0.980046 -0.082819
  0C   2s         0.000036 -0.000562  0.002868 -0.001941 -0.036353 -0.003451
  0C   1pz       -0.000074 -0.000034 -0.000329  0.000190 -0.000234 -0.000010
  0C   1px        0.000050 -0.000211  0.000109  0.000133 -0.000698  0.000039
  0C   1py        0.000243  0.000075  0.001054 -0.000579  0.000574  0.000037
  0C   3s         0.003954  0.001673  0.009959  0.001833  0.034767  0.011332
  0C   2pz       -0.000201  0.000373  0.001522 -0.000018  0.001549  0.001105
  0C   2px        0.000988  0.001241  0.004309  0.001717  0.007192  0.004244
  0C   2py        0.000893 -0.000960 -0.003953  0.000422 -0.003222 -0.002613
  0C   1dz2       0.000040 -0.000066  0.000299 -0.000160  0.000549  0.000133
  0C   1dxz      -0.000071  0.000007  0.000005 -0.000013  0.000061  0.000018
  0C   1dyz      -0.000065 -0.000041  0.000503 -0.000261  0.000425  0.000119
  0C   1dx2y2    -0.000302 -0.000001  0.000895 -0.000461  0.000312  0.000122
  0C   1dxy       0.000155  0.000001  0.000029  0.000022 -0.000341 -0.000086
  1C   1s         0.031908 -0.003426  0.004848  0.011359  0.011149  0.000699
  1C   2s         0.002208 -0.000579  0.000946  0.002223  0.002320  0.000685
  1C   1pz       -0.000243 -0.000147  0.000065  0.000268  0.000155  0.000069
  1C   1px       -0.000216 -0.000350  0.000752  0.000748 -0.001079 -0.000084
  1C   1py        0.000695  0.000392 -0.000056 -0.000699 -0.000704 -0.000237
  1C   3s        -0.009111 -0.002081 -0.010199 -0.010813 -0.013069 -0.006798
  1C   2pz        0.002152  0.000079 -0.001585 -0.002006 -0.002009 -0.001724
  1C   2px        0.004601 -0.000523 -0.001187 -0.002446  0.003547  0.000422
  1C   2py       -0.006043 -0.000327  0.004747  0.005842  0.006886  0.005478
  1C   1dz2      -0.000287  0.000124 -0.000219 -0.000498 -0.000621  0.000012
  1C   1dxz      -0.000037 -0.000121  0.000239  0.000268 -0.000189 -0.000020
  1C   1dyz      -0.000465  0.000063 -0.000069 -0.000145 -0.000114  0.000016
  1C   1dx2y2    -0.000751 -0.000102  0.000321  0.000570  0.000559  0.000015
  1C   1dxy       0.000068  0.000313 -0.000614 -0.000556  0.000933  0.000061
  2C   1s         0.000248  0.018559  0.836072 -0.501996  0.138663  0.140446
  2C   2s         0.000382  0.000343  0.030424 -0.017726  0.006962  0.007457
  2C   1pz        0.000004 -0.000047 -0.000063  0.000004 -0.000417  0.000206
  2C   1px        0.000083 -0.000358  0.000487 -0.000273  0.000012  0.001248
  2C   1py        0.000002  0.000076  0.000293 -0.000066  0.001329 -0.000400
  2C   3s        -0.002455 -0.003153 -0.027379  0.009590 -0.016443 -0.019865
  2C   2pz        0.000123  0.000186  0.000726  0.000069  0.001304  0.000250
  2C   2px       -0.001943 -0.001042 -0.005793 -0.000400 -0.004405 -0.007777
  2C   2py       -0.000782 -0.000770 -0.003392 -0.000314 -0.005084 -0.002313
  2C   1dz2       0.000095 -0.000029 -0.000257  0.000257 -0.000440 -0.000639
  2C   1dxz      -0.000017 -0.000031  0.000084 -0.000083  0.000025  0.000424
  2C   1dyz       0.000078 -0.000048 -0.000190  0.000166 -0.000675 -0.000317
  2C   1dx2y2     0.000052 -0.000107 -0.000052 -0.000012 -0.001098  0.000439
  2C   1dxy       0.000029  0.000089 -0.000171  0.000157 -0.000103 -0.001004
  3C   1s         0.000029  0.086590  0.124361 -0.034804  0.101558 -0.977656
  3C   2s        -0.000028  0.001096  0.002518 -0.000735  0.003431 -0.036406
  3C   1pz       -0.000015  0.000149  0.000196 -0.000141 -0.000058  0.000308
  3C   1px       -0.000025 -0.001075  0.000920 -0.000748  0.000029  0.000046
  3C   1py        0.000042 -0.000674 -0.000438  0.000295  0.000183 -0.000951
  3C   3s         0.001620  0.008568  0.010878  0.003055  0.004095  0.036157
  3C   2pz       -0.000436 -0.001224 -0.001903 -0.000345 -0.000939 -0.002755
  3C   2px       -0.000805  0.002117 -0.001711  0.001886 -0.000689 -0.000268
  3C   2py        0.001212  0.004237  0.005630  0.001457  0.002864  0.008579
  3C   1dz2      -0.000001  0.000538  0.000481 -0.000076  0.000053  0.000702
  3C   1dxz       0.000008  0.000195 -0.000301  0.000216 -0.000032 -0.000114
  3C   1dyz      -0.000002  0.000058  0.000122 -0.000029  0.000018  0.000210
  3C   1dx2y2     0.000004 -0.000581 -0.000635  0.000181 -0.000059 -0.000627
  3C   1dxy      -0.000025 -0.000904  0.000648 -0.000611  0.000064 -0.000017
  4C   1s         0.000243  0.955071  0.110649  0.240477 -0.014171  0.088805
  4C   2s         0.000341  0.034345  0.004803  0.010704 -0.000219  0.005438
  4C   1pz       -0.000024 -0.000059 -0.000230 -0.000373 -0.000039  0.000113
  4C   1px       -0.000002 -0.000605  0.000243 -0.000414  0.000049 -0.001189
  4C   1py        0.000070  0.000071  0.000768  0.001090  0.000135 -0.000584
  4C   3s        -0.002830 -0.027164 -0.012883 -0.017097 -0.003730 -0.017730
  4C   2pz        0.000654  0.000942  0.001345  0.001544  0.000636  0.000904
  4C   2px        0.000364  0.004631  0.003928  0.004385  0.002339  0.007513
  4C   2py       -0.001960 -0.002050 -0.003452 -0.003994 -0.001563 -0.001378
  4C   1dz2       0.000071 -0.000325 -0.000248 -0.000487  0.000142 -0.000641
  4C   1dxz      -0.000006 -0.000041  0.000015 -0.000053  0.000024 -0.000242
  4C   1dyz       0.000057 -0.000151 -0.000388 -0.000598  0.000059 -0.000171
  4C   1dx2y2     0.000035  0.000086 -0.000648 -0.000878 -0.000054  0.000410
  4C   1dxy      -0.000003  0.000262 -0.000065  0.000196 -0.000134  0.001060
  5C   1s         0.000664  0.264925 -0.496945 -0.820310  0.000929 -0.010487
  5C   2s         0.000360  0.007636 -0.018935 -0.030381  0.000033 -0.000666
  5C   1pz       -0.000046 -0.000381 -0.000108 -0.000161 -0.000014  0.000017
  5C   1px        0.000016 -0.000164  0.000496  0.000473 -0.000188 -0.000088
  5C   1py        0.000165  0.001159  0.000434  0.000597  0.000012 -0.000071
  5C   3s        -0.001572  0.004302  0.020599  0.029324  0.004754  0.008327
  5C   2pz        0.000998  0.001006  0.000761  0.000709  0.000419  0.000623
  5C   2px        0.001717 -0.001824 -0.005409 -0.005637 -0.002486 -0.003642
  5C   2py       -0.002804 -0.003502 -0.003412 -0.003290 -0.001762 -0.002642
  5C   1dz2       0.000162  0.000282  0.000207  0.000536  0.000029  0.000079
  5C   1dxz      -0.000014  0.000009 -0.000074 -0.000146  0.000006 -0.000024
  5C   1dyz       0.000047  0.000501  0.000217  0.000509  0.000036  0.000075
  5C   1dx2y2    -0.000145  0.000915  0.000211  0.000431  0.000058  0.000064
  5C   1dxy      -0.000047  0.000021  0.000190  0.000328 -0.000023  0.000055
  6C   1s         0.001523  0.000012  0.000022 -0.000045 -0.000065 -0.000000
  6C   2s         0.000579 -0.000080  0.000010  0.000283  0.000095 -0.000057
  6C   1pz        0.000068  0.000001 -0.000011  0.000027  0.000019  0.000007
  6C   1px        0.000074 -0.000020  0.000010  0.000024  0.000048  0.000037
  6C   1py       -0.000078 -0.000001  0.000040 -0.000082 -0.000055 -0.000001
  6C   3s        -0.004538  0.000651 -0.000208 -0.001075 -0.000511  0.000393
  6C   2pz        0.000054  0.000035 -0.000018 -0.000220 -0.000313  0.000037
  6C   2px       -0.003245  0.000470 -0.000184 -0.000030 -0.000108 -0.000089
  6C   2py        0.002079 -0.000056 -0.000070  0.000394 -0.000134 -0.000258
  6C   1dz2      -0.000352 -0.000009  0.000007 -0.000002 -0.000008  0.000003
  6C   1dxz       0.000201 -0.000001  0.000002  0.000001  0.000009  0.000008
  6C   1dyz      -0.000137 -0.000003  0.000005 -0.000006 -0.000009  0.000000
  6C   1dx2y2     0.000378  0.000016  0.000009 -0.000015 -0.000019  0.000004
  6C   1dxy      -0.000660 -0.000000  0.000003 -0.000004 -0.000011 -0.000020
  7H   1s         0.000043  0.000060 -0.000278  0.000282  0.001363  0.000202
  7H   2s        -0.000305  0.000607  0.001851  0.000018 -0.002619  0.000481
  8H   1s        -0.000078 -0.000058 -0.001240  0.000600 -0.000099 -0.000056
  8H   2s        -0.000686  0.000040  0.002025 -0.002411 -0.000744 -0.000999
  9H   1s         0.000029 -0.001361 -0.000147 -0.000212 -0.000095 -0.000001
  9H   2s        -0.000431  0.002980 -0.000450 -0.000327 -0.000862 -0.001125
 10H   1s         0.000154 -0.000491  0.000729  0.001025  0.000089  0.000104
 10H   2s         0.000142  0.001663 -0.000496 -0.002202  0.000647  0.000798
 11C   1s        -0.000054  0.000000  0.000007 -0.000009 -0.000010  0.000003
 11C   2s         0.001058  0.000008 -0.000024 -0.000035 -0.000027 -0.000013
 11C   1pz       -0.000259 -0.000003 -0.000009 -0.000003  0.000017  0.000009
 11C   1px        0.000331  0.000008 -0.000002 -0.000015  0.000016 -0.000006
 11C   1py       -0.000189  0.000003  0.000013 -0.000010 -0.000011  0.000006
[...]
 3 C  s               0.7       1.9       0.0       0.0       0.0       2.1
 3 C  pz              0.5       0.1       2.0       0.2       0.0       0.0
 3 C  px              0.5       0.2       2.1       0.2       0.0       0.0
 3 C  py              0.2       0.9       0.0       0.0       0.0       0.2
 3 C  dz2             0.0       0.1       0.8       0.0       0.0       0.0
 3 C  dxz             0.5       0.6       0.7       0.0       0.0       3.8
 3 C  dyz             0.5       0.1      10.1       0.0       0.0       0.0
 3 C  dx2y2           0.0       0.1       1.1       0.0       0.1       0.0
 3 C  dxy             0.7       0.1      11.2       0.0       0.0       0.0
 4 C  s               0.2       1.1       1.2       0.0       0.1       3.0
 4 C  pz              0.1       0.2       0.9       0.0       0.0       0.1
 4 C  px              0.1       0.1       0.9       0.0       0.0       0.1
 4 C  py              0.1       3.2       0.4       0.1       0.1       0.1
 4 C  dz2             0.0       3.5       1.1       0.1       0.1       0.5
 4 C  dxz             1.3       1.3       3.1       0.3       0.0       2.3
 4 C  dyz             6.7       0.6       0.8       1.4       0.1       0.0
 4 C  dx2y2           0.0      11.4       3.5       0.1       0.2       1.2
 4 C  dxy             6.4       0.2       1.1       1.2       0.0       0.0
 5 C  s               1.0       1.4       2.0       0.3       0.1       2.9
 5 C  pz              0.2       0.0       0.7       0.1       0.0       0.1
 5 C  px              0.2       0.0       0.7       0.1       0.0       0.1
 5 C  py              0.3       3.0       0.0       0.1       0.1       0.2
 5 C  dz2             0.4       3.8       0.1       0.2       0.0       0.0
 5 C  dxz             1.1       1.6       1.8       0.2       0.0       6.1
 5 C  dyz             6.1       0.7       0.3       2.2       0.2       0.3
 5 C  dx2y2           0.4      12.4       0.2       0.2       0.1       0.0
 5 C  dxy             7.0       0.2       0.2       2.1       0.0       0.1
 6 C  s               0.1       0.2       0.0       0.7       0.4       0.0
 6 C  pz              0.4       0.0       0.0       0.8       0.3       0.1
 6 C  px              0.1       0.0       0.0       0.1       0.4       0.2
 6 C  py              0.0       0.0       0.0       0.4       0.0       0.3
 6 C  dz2             0.8       0.1       0.2       5.2       3.4       0.0
 6 C  dxz             0.0       0.2       0.7       1.9       6.8       0.0
 6 C  dyz             1.2       0.1       0.0       3.2       7.6       0.4
 6 C  dx2y2           0.7       0.1       0.5       1.0       0.8       0.0
 6 C  dxy             0.2       0.1       0.1       0.0       1.4       1.5
 7 H  s               0.4       0.1       0.1       0.1       0.0       0.5
 8 H  s               0.3       0.2       0.0       0.1       0.0       0.0
 9 H  s               0.6       0.2       0.0       0.1       0.0       0.0
10 H  s               0.2       0.2       0.1       0.1       0.0       0.4
11 C  s               1.0       0.1       0.1       2.7       3.6       0.4
11 C  pz              0.1       0.0       0.0       0.4       0.1       0.0
11 C  px              0.7       0.0       0.0       1.1       0.4       0.1
11 C  py              0.7       0.0       0.0       2.2       0.1       0.0
11 C  dz2             0.1       0.5       0.3       0.0       5.2       0.2
11 C  dxz             0.4       0.0       0.0       2.2       1.4       0.0
11 C  dyz             0.3       0.5       0.0       3.5       4.4       0.0
11 C  dx2y2           0.1       0.0       0.3       0.2      13.3       0.1
11 C  dxy             0.2       0.0       0.0       0.7       4.0       0.3
12 O  s               2.9       0.1       0.1      11.9       1.5       0.2
12 O  pz              0.0       0.0       0.0       0.0       0.2       0.0
12 O  px              0.9       0.0       0.0       2.5       0.2       0.1
12 O  py              0.5       0.0       0.0       1.2       0.7       0.1
12 O  dz2             1.3       0.0       0.0       3.6       0.5       0.1
12 O  dxz             0.7       0.5       0.0       0.4       4.7       0.3
12 O  dyz             0.3       0.0       0.0       0.9       3.1       0.0
12 O  dx2y2           0.0       0.0       0.1       1.0       4.7       0.1
12 O  dxy             5.3       0.0       0.1      11.4       3.9       0.5
13 O  s               0.1       0.2       0.0       2.4       6.9       0.3
13 O  pz              0.1       0.1       0.0       0.5       0.8       0.0
13 O  py              0.0       0.0       0.1       0.2       1.0       0.0
13 O  dz2             0.3       0.4       0.3       0.3       0.0       0.0
13 O  dxz             0.2       0.0       0.0       0.4       0.1       0.1
13 O  dyz             0.0       0.1       0.1       0.6       3.2       0.4
13 O  dx2y2           0.2       0.0       0.3       0.0       0.2       0.0
13 O  dxy             0.3       0.0       0.0       0.5       0.1       0.0
14 N  s               0.2       0.2       0.1       1.1       0.7       0.1
14 N  pz              0.2       0.0       0.0       1.0       0.2       0.0
14 N  px              0.0       0.0       0.0       0.0       0.3       0.0
14 N  py              0.1       0.0       0.0       0.5       0.1       0.0
14 N  dz2             0.7       0.1       0.0       2.7       0.6       0.2
14 N  dxz             0.7       0.0       0.0       1.1       3.0       0.1
14 N  dyz             0.6       0.2       0.1       4.8       1.1       0.1
14 N  dx2y2           0.2       0.1       0.0       0.5       0.3       0.1
14 N  dxy             0.1       0.0       0.0       0.0       0.7       0.0
15 H  s               0.1       0.0       0.0       0.2       0.0       0.0
16 H  s               0.0       0.0       0.0       0.1       0.1       0.0
17 H  s               0.2       0.1       0.0       0.1       0.5       0.0
18 C  s               0.0       0.5       0.0       0.0       0.1       0.7
18 C  pz              0.0       0.0       0.0       0.0       0.1       0.2
18 C  px              0.0       0.0       0.0       0.0       0.2       0.0
18 C  py              0.1       0.1       0.0       0.0       0.2       2.0
18 C  dz2             0.0       0.2       0.0       0.6       0.0       2.8
18 C  dxz             0.6       0.0       0.8       0.0       1.3       0.3
18 C  dyz             0.0       0.1       0.8       0.0       1.0       0.5
18 C  dx2y2           0.0       0.2       0.4       0.2       0.5      10.1
18 C  dxy             1.0       0.3       3.7       0.5       0.7       0.2
19 H  s               0.0       0.0       0.1       0.1       0.2       0.1
20 H  s               0.1       0.0       0.2       0.0       0.0       0.1

                    186       187       188       189   
                   3.00473   3.05620   3.10915   3.40955
                   0.00000   0.00000   0.00000   0.00000
                  --------  --------  --------  --------
 0 C  s               0.0       0.0       0.0       1.6
 0 C  pz              0.0       0.8       0.0       0.0
 0 C  px              0.0       0.6       0.0       0.0
 0 C  py              0.1       2.0       0.0       0.0
 0 C  dz2             0.2       2.2       0.0       0.4
 0 C  dxz             0.4       3.4       0.2       0.1
 0 C  dyz             0.0       0.4       0.0       6.3
 0 C  dx2y2           0.5       6.2       0.1       1.9
 0 C  dxy             0.1       0.7       0.0       5.6
 1 C  s               0.0       0.0       0.0       1.1
 1 C  pz              0.1       1.3       0.0       0.0
 1 C  px              0.1       1.4       0.0       0.0
 1 C  py              0.0       0.0       0.0       0.3
 1 C  dz2             0.0       0.3       0.0       1.6
 1 C  dxz             0.0       0.4       0.0       6.7
 1 C  dyz             0.5       8.4       0.2       0.5
 1 C  dx2y2           0.0       0.5       0.0       5.9
 1 C  dxy             0.9       9.3       0.3       0.4
 2 C  s               0.0       0.0       0.0       1.7
 2 C  pz              0.0       0.1       0.0       0.1
 2 C  px              0.0       0.2       0.0       0.0
 2 C  py              0.3       2.3       0.0       0.0
 2 C  dz2             0.1       0.7       0.0       2.1
 2 C  dxz             0.2       1.1       0.0       0.1
 2 C  dyz             0.4       2.4       0.0       2.7
 2 C  dx2y2           0.2       2.8       0.0       5.3
 2 C  dxy             0.4       2.1       0.0       3.9
 3 C  s               0.0       0.0       0.0       1.7
 3 C  pz              0.2       1.1       0.0       0.0
 3 C  px              0.2       1.2       0.0       0.0
 3 C  py              0.0       0.0       0.0       0.1
 3 C  dz2             0.0       0.2       0.0       1.3
 3 C  dxz             0.0       0.1       0.0       7.0
 3 C  dyz             0.6       3.6       0.0       0.4
 3 C  dx2y2           0.0       0.2       0.0       4.9
 3 C  dxy             0.7       4.0       0.1       0.3
 4 C  s               0.0       0.0       0.0       1.7
 4 C  pz              0.1       0.5       0.0       0.0
 4 C  px              0.0       0.4       0.0       0.0
 4 C  py              0.2       1.7       0.0       0.0
 4 C  dz2             0.3       1.5       0.0       0.3
 4 C  dxz             0.3       2.0       0.0       0.1
 4 C  dyz             0.0       0.2       0.0       6.2
 4 C  dx2y2           0.7       4.5       0.1       1.8
 4 C  dxy             0.1       0.5       0.0       5.6
 5 C  s               0.0       0.0       0.0       1.7
 5 C  pz              0.0       0.2       0.0       0.0
 5 C  px              0.0       0.4       0.0       0.0
 5 C  py              0.3       2.5       0.1       0.0
 5 C  dz2             0.1       0.9       0.0       2.1
 5 C  dxz             0.1       1.8       0.0       0.1
 5 C  dyz             0.4       3.0       0.1       2.6
 5 C  dx2y2           0.4       3.5       0.1       5.4
 5 C  dxy             0.3       2.7       0.1       3.9
 6 C  s               0.1       0.0       0.4       0.0
 6 C  pz              0.1       0.0       0.9       0.0
 6 C  px              0.3       0.0       0.4       0.0
 6 C  dz2             1.0       0.2       0.6       0.0
 6 C  dxz             0.2       0.0       4.1       0.0
 6 C  dyz             0.2       0.1       0.7       0.0
 6 C  dx2y2           1.9       0.0       2.7       0.0
 6 C  dxy             0.4       0.1       0.3       0.0
 7 H  s               0.0       0.0       0.0       0.6
 8 H  s               0.0       0.0       0.0       0.6
 9 H  s               0.0       0.0       0.0       0.6
10 H  s               0.0       0.0       0.0       0.5
11 C  s               7.7       1.3       1.8       0.0
11 C  pz              3.3       0.4       0.4       0.0
11 C  px              0.0       0.0       1.1       0.0
11 C  py              4.6       0.4       0.0       0.0
11 C  dz2             1.9       0.1       1.1       0.0
11 C  dxz             2.7       0.0      16.5       0.0
11 C  dyz             4.7       1.1       3.2       0.0
11 C  dx2y2           0.5       0.4       9.3       0.0
11 C  dxy             3.2       0.0      12.4       0.0
12 O  s               0.2       0.0       0.6       0.0
12 O  pz              0.0       0.0       0.5       0.0
12 O  px              0.1       0.0       2.6       0.0
12 O  py              0.2       0.0       0.4       0.0
12 O  dz2             0.1       0.0       2.4       0.0
12 O  dxz             0.3       0.0       0.1       0.0
12 O  dyz             0.2       0.0       1.3       0.0
12 O  dx2y2           0.3       0.1       1.7       0.0
12 O  dxy             0.5       0.0       6.2       0.0
13 O  s              13.2       1.9       0.5       0.0
13 O  pz              2.4       0.4       0.5       0.0
13 O  px              0.0       0.0       1.4       0.0
13 O  py              3.5       0.4       0.1       0.0
13 O  dz2             0.6       0.2       1.7       0.0
13 O  dxz             0.0       0.2       8.3       0.0
13 O  dyz            24.5       2.8       1.0       0.0
13 O  dx2y2           9.4       0.8       0.5       0.0
13 O  dxy             0.0       0.2       8.1       0.0
14 N  s               0.0       0.0       0.7       0.0
14 N  pz              0.1       0.0       0.5       0.0
14 N  dz2             0.0       0.0       0.7       0.0
14 N  dxz             0.9       0.0       0.0       0.0
14 N  dyz             0.0       0.0       0.5       0.0
14 N  dx2y2           0.0       0.0       0.4       0.0
14 N  dxy             0.1       0.0       0.1       0.0
17 H  s               0.0       0.0       0.4       0.0
18 C  s               0.1       0.0       0.1       0.1
18 C  py              0.0       0.0       0.0       0.3
18 C  dz2             0.0       0.1       0.1       0.2
18 C  dyz             0.0       0.8       0.0       0.1
18 C  dx2y2           0.2       0.0       0.1       0.6
18 C  dxy             0.0       1.3       0.1       0.0
22 H  s               0.0       0.0       0.0       0.6


                      *****************************
                      * MAYER POPULATION ANALYSIS *
                      *****************************

  NA   - Mulliken gross atomic population
  ZA   - Total nuclear charge
  QA   - Mulliken gross atomic charge
  VA   - Mayer's total valence
  BVA  - Mayer's bonded valence
  FA   - Mayer's free valence

  ATOM       NA         ZA         QA         VA         BVA        FA
  0 C      6.1746     6.0000    -0.1746     3.9383     3.9383     0.0000
  1 C      5.8288     6.0000     0.1712     3.9481     3.9481     0.0000
  2 C      6.1259     6.0000    -0.1259     3.9438     3.9438    -0.0000
  3 C      6.1282     6.0000    -0.1282     3.9495     3.9495    -0.0000
  4 C      6.1243     6.0000    -0.1243     3.9427     3.9427     0.0000
  5 C      6.1901     6.0000    -0.1901     3.9557     3.9557    -0.0000
  6 C      6.0527     6.0000    -0.0527     3.8640     3.8640    -0.0000
  7 H      0.8702     1.0000     0.1298     0.9429     0.9429    -0.0000
  8 H      0.8700     1.0000     0.1300     0.9373     0.9373    -0.0000
  9 H      0.8705     1.0000     0.1295     0.9372     0.9372    -0.0000
 10 H      0.8810     1.0000     0.1190     0.9418     0.9418    -0.0000
 11 C      5.4351     6.0000     0.5649     3.9559     3.9559    -0.0000
 12 O      8.5698     8.0000    -0.5698     1.9359     1.9359    -0.0000
 13 O      8.4368     8.0000    -0.4368     2.0841     2.0841    -0.0000
 14 N      7.7053     7.0000    -0.7053     2.7589     2.7589     0.0000
 15 H      0.7015     1.0000     0.2985     0.8670     0.8670     0.0000
 16 H      0.6815     1.0000     0.3185     0.8666     0.8666     0.0000
 17 H      0.5856     1.0000     0.4144     0.8177     0.8177     0.0000
 18 C      6.3855     6.0000    -0.3855     3.8294     3.8294    -0.0000
 19 H      0.8282     1.0000     0.1718     0.9257     0.9257    -0.0000
 20 H      0.8552     1.0000     0.1448     0.9336     0.9336    -0.0000
 21 H      0.8288     1.0000     0.1712     0.9312     0.9312     0.0000
 22 H      0.8703     1.0000     0.1297     0.9371     0.9371    -0.0000

  Mayer bond orders larger than 0.1
B(  0-C ,  1-C ) :   1.4270 B(  0-C ,  2-C ) :   1.4476 B(  0-C ,  7-H ) :   0.9220 
B(  1-C ,  5-C ) :   1.4339 B(  1-C , 18-C ) :   0.9841 B(  2-C ,  3-C ) :   1.4470 
B(  2-C ,  8-H ) :   0.9295 B(  3-C ,  4-C ) :   1.4582 B(  3-C , 22-H ) :   0.9299 
B(  4-C ,  5-C ) :   1.4388 B(  4-C ,  9-H ) :   0.9293 B(  5-C , 10-H ) :   0.9247 
B(  6-C , 11-C ) :   0.9457 B(  6-C , 14-N ) :   1.0395 B(  6-C , 18-C ) :   0.9364 
B(  6-C , 19-H ) :   0.9190 B( 11-C , 12-O ) :   1.0799 B( 11-C , 13-O ) :   1.9093 
B( 12-O , 17-H ) :   0.7584 B( 14-N , 15-H ) :   0.8578 B( 14-N , 16-H ) :   0.8392 
B( 18-C , 20-H ) :   0.9323 B( 18-C , 21-H ) :   0.9162 

-------
TIMINGS
-------

Total SCF time: 0 days 0 hours 0 min 37 sec 

Total time                  ....      37.039 sec
Sum of individual times     ....      36.691 sec  ( 99.1%)

Fock matrix formation       ....      33.014 sec  ( 89.1%)
  XC integration            ....       4.476 sec  ( 13.6% of F)
    Basis function eval.    ....       1.647 sec  ( 36.8% of XC)
    Density eval.           ....       1.273 sec  ( 28.4% of XC)
    XC-Functional eval.     ....       0.255 sec  (  5.7% of XC)
    XC-Potential eval.      ....       1.069 sec  ( 23.9% of XC)
Diagonalization             ....       0.006 sec  (  0.0%)
Density matrix formation    ....       0.005 sec  (  0.0%)
Population analysis         ....       0.088 sec  (  0.2%)
Initial guess               ....       0.010 sec  (  0.0%)
Orbital Transformation      ....       0.000 sec  (  0.0%)
Orbital Orthonormalization  ....       0.005 sec  (  0.0%)
DIIS solution               ....       0.001 sec  (  0.0%)
SOSCF solution              ....       0.014 sec  (  0.0%)
Grid generation             ....       3.554 sec  (  9.6%)

-------------------------   --------------------
FINAL SINGLE POINT ENERGY      -554.447173098660
-------------------------   --------------------

                                *** OPTIMIZATION RUN DONE ***

                            ***************************************
                            *     ORCA property calculations      *
                            ***************************************

                                    ---------------------
                                    Active property flags
                                    ---------------------
   (+) Dipole Moment


------------------------------------------------------------------------------
                       ORCA ELECTRIC PROPERTIES CALCULATION
------------------------------------------------------------------------------

Dipole Moment Calculation                       ... on
Quadrupole Moment Calculation                   ... off
Polarizability Calculation                      ... off
GBWName                                         ... /Users/lailaal-madhagi/Desktop/Testing_XAS_Analysis_code/PhenylAlanine//Results_dir_PhenylAlanine_geom_element_C_2019-11-17_21-07-00//GTE1_PhenylAlanine_geom_2019-11-17_21-07-40//opt.gbw
Electron density file                           ... /Users/lailaal-madhagi/Desktop/Testing_XAS_Analysis_code/PhenylAlanine//Results_dir_PhenylAlanine_geom_element_C_2019-11-17_21-07-00//GTE1_PhenylAlanine_geom_2019-11-17_21-07-40//opt.scfp.tmp
The origin for moment calculation is the CENTER OF MASS  = (-4.585108,  3.896014  0.011368)

-------------
DIPOLE MOMENT
-------------
                                X             Y             Z
Electronic contribution:     -3.77646       2.37081       1.88111
Nuclear contribution   :      4.12299      -3.20362      -1.97510
                        -----------------------------------------
Total Dipole Moment    :      0.34653      -0.83281      -0.09399
                        -----------------------------------------
Magnitude (a.u.)       :      0.90691
Magnitude (Debye)      :      2.30519



--------------------
Rotational spectrum 
--------------------
 
Rotational constants in cm-1:     0.059280     0.019964     0.017865 
Rotational constants in MHz :  1777.174420   598.493306   535.593220 

 Dipole components along the rotational axes: 
x,y,z [a.u.] :     0.882381    -0.077773     0.194549 
x,y,z [Debye]:     2.242835    -0.197683     0.494505 

 

Timings for individual modules:

Sum of individual times         ...     4578.300 sec (=  76.305 min)
GTO integral calculation        ...       27.898 sec (=   0.465 min)   0.6 %
SCF iterations                  ...     2965.881 sec (=  49.431 min)  64.8 %
SCF Gradient evaluation         ...     1566.758 sec (=  26.113 min)  34.2 %
Geometry relaxation             ...       17.763 sec (=   0.296 min)   0.4 %
                             ****ORCA TERMINATED NORMALLY****
TOTAL RUN TIME: 0 days 1 hours 16 minutes 24 seconds 245 msec
