
                                 *****************
                                 * O   R   C   A *
                                 *****************

           --- An Ab Initio, DFT and Semiempirical electronic structure package ---

                  #######################################################
                  #                        -***-                        #
                  #          Department of theory and spectroscopy      #
                  #               Directorship: Frank Neese             #
                  #        Max Planck Institute fuer Kohlenforschung    #
                  #                Kaiser Wilhelm Platz 1               #
                  #                 D-45470 Muelheim/Ruhr               #
                  #                      Germany                        #
                  #                                                     #
                  #                  All rights reserved                #
                  #                        -***-                        #
                  #######################################################


                         Program Version 4.1.0  - RELEASE  -


 With contributions from (in alphabetic order):
   Daniel Aravena         : Magnetic Properties
   Michael Atanasov       : Ab Initio Ligand Field Theory
   Alexander A. Auer      : GIAO ZORA
   Ute Becker             : Parallelization
   Giovanni Bistoni       : ED, Open-shell LED
   Martin Brehm           : Molecular dynamics
   Dmytro Bykov           : SCF Hessian
   Vijay G. Chilkuri      : MRCI spin determinant printing
   Dipayan Datta          : RHF DLPNO-CCSD density
   Achintya Kumar Dutta   : EOM-CC, STEOM-CC
   Dmitry Ganyushin       : Spin-Orbit,Spin-Spin,Magnetic field MRCI
   Miquel Garcia          : C-PCM Hessian
   Yang Guo               : DLPNO-NEVPT2, CIM, IAO-localization
   Andreas Hansen         : Spin unrestricted coupled pair/coupled cluster methods
   Benjamin Helmich-Paris : CASSCF linear response (MC-RPA)
   Lee Huntington         : MR-EOM, pCC
   Robert Izsak           : Overlap fitted RIJCOSX, COSX-SCS-MP3, EOM
   Christian Kollmar      : KDIIS, OOCD, Brueckner-CCSD(T), CCSD density
   Simone Kossmann        : Meta GGA functionals, TD-DFT gradient, OOMP2, MP2 Hessian
   Martin Krupicka        : AUTO-CI
   Lucas Lang             : DCDCAS
   Dagmar Lenk            : GEPOL surface, SMD
   Dimitrios Liakos       : Extrapolation schemes; parallel MDCI
   Dimitrios Manganas     : ROCIS; embedding schemes
   Dimitrios Pantazis     : SARC Basis sets
   Taras Petrenko         : DFT Hessian,TD-DFT gradient, ASA, ECA, R-Raman, ABS, FL, XAS/XES, NRVS
   Peter Pinski           : DLPNO-MP2, DLPNO-MP2 Gradient
   Christoph Reimann      : Effective Core Potentials
   Marius Retegan         : Local ZFS, SOC
   Christoph Riplinger    : Optimizer, TS searches, QM/MM, DLPNO-CCSD(T), (RO)-DLPNO pert. Triples
   Tobias Risthaus        : Range-separated hybrids, TD-DFT gradient, RPA, STAB
   Michael Roemelt        : Restricted open shell CIS
   Masaaki Saitow         : Open-shell DLPNO
   Barbara Sandhoefer     : DKH picture change effects
   Avijit Sen             : IP-ROCIS
   Kantharuban Sivalingam : CASSCF convergence, NEVPT2, FIC-MRCI
   Bernardo de Souza      : ESD, SOC TD-DFT
   Georgi Stoychev        : AutoAux, RI-MP2 NMR
   Willem Van den Heuvel  : Paramagnetic NMR
   Boris Wezisla          : Elementary symmetry handling
   Frank Wennmohs         : Technical directorship


 We gratefully acknowledge several colleagues who have allowed us to
 interface, adapt or use parts of their codes:
   Stefan Grimme, W. Hujo, H. Kruse,             : VdW corrections, initial TS optimization,
                  C. Bannwarth                     DFT functionals, gCP, sTDA/sTD-DF
   Ed Valeev                                     : LibInt (2-el integral package), F12 methods
   Garnet Chan, S. Sharma, J. Yang, R. Olivares  : DMRG
   Ulf Ekstrom                                   : XCFun DFT Library
   Mihaly Kallay                                 : mrcc  (arbitrary order and MRCC methods)
   Andreas Klamt, Michael Diedenhofen            : otool_cosmo (COSMO solvation model)
   Jiri Pittner, Ondrej Demel                    : Mk-CCSD
   Frank Weinhold                                : gennbo (NPA and NBO analysis)
   Christopher J. Cramer and Donald G. Truhlar   : smd solvation model
   Lars Goerigk                                  : TD-DFT with DH, B97 family of functionals
   V. Asgeirsson, H. Jonsson                     : NEB implementation
   FAccTs GmbH                                   : IRC, NEB, NEB-TS, Multilevel


 Your calculation uses the libint2 library for the computation of 2-el integrals
 For citations please refer to: http://libint.valeyev.net

 This ORCA versions uses:
   CBLAS   interface :  Fast vector & matrix operations
   LAPACKE interface :  Fast linear algebra routines
   SCALAPACK package :  Parallel linear algebra routines




***************************************
The coordinates will be read from file: /Users/lailaal-madhagi/Desktop/Testing_XAS_Analysis_code/Glycine/Glycine_geom.xyz
***************************************


----- Orbital basis set information -----
Your calculation utilizes the basis: 6-31G*
   H-He, Li-Ne : W. J. Hehre, R. Ditchfield and J.A. Pople, J. Chem. Phys. 56, 2257 (1972).
                 Note: He and Ne are unpublished basis sets taken from the Gaussian program.
                 Note: Li and B from J. D. Dill and J. A. Pople, J. Chem. Phys. 62, 2921 (1975).
   Na - Ar     : M. M. Francl, W. J. Pietro, W. J. Hehre, J. S. Binkley, M. S. Gordon, 
                 D. J. DeFrees and J. A. Pople, J. Chem. Phys. 77, 3654 (1982).
   K - Zn      : V. A. Rassolov, J. A. Pople, M. A. Ratner, and T. L. Windus, J. Chem. Phys. 109, 1223 (1998).

================================================================================
                                        WARNINGS
                       Please study these warnings very carefully!
================================================================================


WARNING: Geometry Optimization
  ===> : Switching off AutoStart
         For restart on a previous wavefunction, please use MOREAD

INFO   : the flag for use of LIBINT has been found!

================================================================================
                                       INPUT FILE
================================================================================
NAME = /Users/lailaal-madhagi/Desktop/Testing_XAS_Analysis_code/Glycine//Results_dir_Glycine_geom_element_O_2019-11-10_21-45-36//GTE1_Glycine_geom_2019-11-10_21-45-46//opt.inp
|  1> ! B3LYP 6-31G* TIGHTSCF Grid3 FinalGrid5 Opt 
|  2> !NormalPrint 
|  3> %output 
|  4> Print[P_Basis] 2 
|  5> Print[P_MOS] 1 
|  6> end 
|  7> *xyzfile 0 1 /Users/lailaal-madhagi/Desktop/Testing_XAS_Analysis_code/Glycine/Glycine_geom.xyz                           ****END OF INPUT****
================================================================================

                       *****************************
                       * Geometry Optimization Run *
                       *****************************

Geometry optimization settings:
Update method            Update   .... BFGS
Choice of coordinates    CoordSys .... Z-matrix Internals
Initial Hessian          InHess   .... Almoef's Model

Convergence Tolerances:
Energy Change            TolE     ....  5.0000e-06 Eh
Max. Gradient            TolMAXG  ....  3.0000e-04 Eh/bohr
RMS Gradient             TolRMSG  ....  1.0000e-04 Eh/bohr
Max. Displacement        TolMAXD  ....  4.0000e-03 bohr
RMS Displacement         TolRMSD  ....  2.0000e-03 bohr

------------------------------------------------------------------------------
                        ORCA OPTIMIZATION COORDINATE SETUP
------------------------------------------------------------------------------

The optimization will be done in new redundant internal coordinates
Making redundant internal coordinates   ...  (new redundants) done
Evaluating the initial hessian          ...  (Almloef) done
Evaluating the coordinates              ...  done
Calculating the B-matrix                .... done
Calculating the G-matrix                .... done
Diagonalizing the G-matrix              .... done
The first mode is                       ....   12
The number of degrees of freedom        ....   24

    -----------------------------------------------------------------
                    Redundant Internal Coordinates


    -----------------------------------------------------------------
         Definition                    Initial Value    Approx d2E/dq
    -----------------------------------------------------------------
      1. B(N   1,C   0)                  1.4606         0.431714   
      2. B(C   2,C   0)                  1.5071         0.406396   
      3. B(H   3,C   0)                  1.1132         0.330637   
      4. B(H   4,C   0)                  1.1106         0.333893   
      5. B(O   5,C   2)                  1.2214         1.039711   
      6. B(O   6,C   2)                  1.3492         0.649982   
      7. B(H   7,N   1)                  1.0456         0.379676   
      8. B(H   8,N   1)                  1.0449         0.380611   
      9. B(H   9,O   6)                  0.9675         0.505828   
     10. A(N   1,C   0,H   3)          109.7276         0.325535   
     11. A(N   1,C   0,H   4)          109.0227         0.326060   
     12. A(H   3,C   0,H   4)          108.6844         0.283620   
     13. A(C   2,C   0,H   4)          108.3778         0.324780   
     14. A(C   2,C   0,H   3)          109.3267         0.324257   
     15. A(N   1,C   0,C   2)          111.6430         0.375559   
     16. A(H   7,N   1,H   8)          107.8040         0.291057   
     17. A(C   0,N   1,H   8)          108.5520         0.330347   
     18. A(C   0,N   1,H   7)          109.2438         0.330212   
     19. A(C   0,C   2,O   5)          120.7921         0.438632   
     20. A(O   5,C   2,O   6)          119.1793         0.474643   
     21. A(C   0,C   2,O   6)          120.0269         0.403366   
     22. A(C   2,O   6,H   9)          121.5008         0.371371   
     23. D(H   8,N   1,C   0,H   3)    -62.7600         0.015890   
     24. D(H   8,N   1,C   0,C   2)    175.8711         0.015890   
     25. D(H   8,N   1,C   0,H   4)     56.1623         0.015890   
     26. D(H   7,N   1,C   0,H   4)    173.4698         0.015890   
     27. D(H   7,N   1,C   0,C   2)    -66.8213         0.015890   
     28. D(H   7,N   1,C   0,H   3)     54.5475         0.015890   
     29. D(O   5,C   2,C   0,N   1)      1.1718         0.012240   
     30. D(O   6,C   2,C   0,H   4)    -58.2672         0.012240   
     31. D(O   6,C   2,C   0,H   3)     60.0433         0.012240   
     32. D(O   6,C   2,C   0,N   1)   -178.3556         0.012240   
     33. D(O   5,C   2,C   0,H   4)    121.2603         0.012240   
     34. D(O   5,C   2,C   0,H   3)   -120.4293         0.012240   
     35. D(H   9,O   6,C   2,O   5)   -178.9314         0.031223   
     36. D(H   9,O   6,C   2,C   0)      0.6037         0.031223   
    -----------------------------------------------------------------

Number of atoms                         .... 10
Number of degrees of freedom            .... 36

         *************************************************************
         *                GEOMETRY OPTIMIZATION CYCLE   1            *
         *************************************************************
---------------------------------
CARTESIAN COORDINATES (ANGSTROEM)
---------------------------------
  C     -3.720670    0.173050    0.139230
  N     -4.874890    1.018660   -0.154280
  C     -2.423340    0.883160   -0.150530
  H     -3.741860   -0.133560    1.209200
  H     -3.769670   -0.738580   -0.493140
  O     -2.418220    2.034740   -0.557450
  O     -1.248870    0.243970    0.029780
  H     -4.892970    1.821610    0.515200
  H     -5.744120    0.458360   -0.004740
  H     -1.214250   -0.673130    0.336020

----------------------------
CARTESIAN COORDINATES (A.U.)
----------------------------
  NO LB      ZA    FRAG     MASS         X           Y           Z
   0 C     6.0000    0    12.011   -7.031047    0.327017    0.263107
   1 N     7.0000    0    14.007   -9.212207    1.924988   -0.291547
   2 C     6.0000    0    12.011   -4.579449    1.668931   -0.284460
   3 H     1.0000    0     1.008   -7.071091   -0.252392    2.285057
   4 H     1.0000    0     1.008   -7.123644   -1.395714   -0.931900
   5 O     8.0000    0    15.999   -4.569774    3.845101   -1.053428
   6 O     8.0000    0    15.999   -2.360022    0.461036    0.056276
   7 H     1.0000    0     1.008   -9.246373    3.442344    0.973587
   8 H     1.0000    0     1.008  -10.854814    0.866175   -0.008957
   9 H     1.0000    0     1.008   -2.294600   -1.272031    0.634986

--------------------------------
INTERNAL COORDINATES (ANGSTROEM)
--------------------------------
 C      0   0   0     0.000000000000     0.00000000     0.00000000
 N      1   0   0     1.460625961908     0.00000000     0.00000000
 C      1   2   0     1.507077369812   111.64302782     0.00000000
 H      1   2   3     1.113236052731   109.72759849   121.36886732
 H      1   2   3     1.110568356203   109.02269617   240.29114898
 O      3   1   2     1.221370786125   120.79211859     1.17177967
 O      3   1   2     1.349242503444   120.02690803   181.64437652
 H      2   1   3     1.045590292275   109.24375470   293.17866246
 H      2   1   3     1.044920616363   108.55200044   175.87110392
 H      7   3   1     0.967498781395   121.50076103     0.60366719

---------------------------
INTERNAL COORDINATES (A.U.)
---------------------------
 C      0   0   0     0.000000000000     0.00000000     0.00000000
 N      1   0   0     2.760183052102     0.00000000     0.00000000
 C      1   2   0     2.847963491575   111.64302782     0.00000000
 H      1   2   3     2.103711262069   109.72759849   121.36886732
 H      1   2   3     2.098670046223   109.02269617   240.29114898
 O      3   1   2     2.308056293749   120.79211859     1.17177967
 O      3   1   2     2.549698819756   120.02690803   181.64437652
 H      2   1   3     1.975879300687   109.24375470   293.17866246
 H      2   1   3     1.974613796614   108.55200044   175.87110392
 H      7   3   1     1.828307731738   121.50076103     0.60366719

---------------------
BASIS SET INFORMATION
---------------------
There are 4 groups of distinct atoms

 Group   1 Type C   : 10s4p1d contracted to 3s2p1d pattern {631/31/1}
 Group   2 Type N   : 10s4p1d contracted to 3s2p1d pattern {631/31/1}
 Group   3 Type H   : 4s contracted to 2s pattern {31}
 Group   4 Type O   : 10s4p1d contracted to 3s2p1d pattern {631/31/1}

Atom   0C    basis set group =>   1
Atom   1N    basis set group =>   2
Atom   2C    basis set group =>   1
Atom   3H    basis set group =>   3
Atom   4H    basis set group =>   3
Atom   5O    basis set group =>   4
Atom   6O    basis set group =>   4
Atom   7H    basis set group =>   3
Atom   8H    basis set group =>   3
Atom   9H    basis set group =>   3

-------------------------
BASIS SET IN INPUT FORMAT
-------------------------

 # Basis set for element : H 
 NewGTO H 
 S 3 
   1      18.7311370000      0.0334945995
   2       2.8253937000      0.2347269467
   3       0.6401217000      0.8137573184
 S 1 
   1       0.1612778000      1.0000000000
  end;

 # Basis set for element : C 
 NewGTO C 
 S 6 
   1    3047.5249000000      0.0018347002
   2     457.3695100000      0.0140373012
   3     103.9486900000      0.0688426061
   4      29.2101550000      0.2321844206
   5       9.2866630000      0.4679413416
   6       3.1639270000      0.3623120322
 S 3 
   1       7.8682724000     -0.1193324086
   2       1.8812885000     -0.1608542116
   3       0.5442493000      1.1434564826
 P 3 
   1       7.8682724000      0.0689990956
   2       1.8812885000      0.3164239798
   3       0.5442493000      0.7443082524
 S 1 
   1       0.1687144000      1.0000000000
 P 1 
   1       0.1687144000      1.0000000000
 D 1 
   1       0.8000000000      1.0000000000
  end;

 # Basis set for element : N 
 NewGTO N 
 S 6 
   1    4173.5110000000      0.0018347994
   2     627.4579000000      0.0139949958
   3     142.9021000000      0.0685869792
   4      40.2343300000      0.2322409295
   5      12.8202100000      0.4690698576
   6       4.3904370000      0.3604548906
 S 3 
   1      11.6263580000     -0.1149610229
   2       2.7162800000     -0.1691180337
   3       0.7722180000      1.1458522281
 P 3 
   1      11.6263580000      0.0675800232
   2       2.7162800000      0.3239071114
   3       0.7722180000      0.7408952549
 S 1 
   1       0.2120313000      1.0000000000
 P 1 
   1       0.2120313000      1.0000000000
 D 1 
   1       0.8000000000      1.0000000000
  end;

 # Basis set for element : O 
 NewGTO O 
 S 6 
   1    5484.6717000000      0.0018310998
   2     825.2349500000      0.0139500985
   3     188.0469600000      0.0684450927
   4      52.9645000000      0.2327142753
   5      16.8975700000      0.4701929501
   6       5.7996353000      0.3585208619
 S 3 
   1      15.5396160000     -0.1107775038
   2       3.5999336000     -0.1480263051
   3       1.0137618000      1.1307670390
 P 3 
   1      15.5396160000      0.0708742995
   2       3.5999336000      0.3397527978
   3       1.0137618000      0.7271585953
 S 1 
   1       0.2700058000      1.0000000000
 P 1 
   1       0.2700058000      1.0000000000
 D 1 
   1       0.8000000000      1.0000000000
  end;

------------------------------------------------------------------------------
                           ORCA GTO INTEGRAL CALCULATION
------------------------------------------------------------------------------

                         BASIS SET STATISTICS AND STARTUP INFO

 # of primitive gaussian shells          ...   95
 # of primitive gaussian functions       ...  155
 # of contracted shells                  ...   40
 # of contracted basis functions         ...   80
 Highest angular momentum                ...    2
 Maximum contraction depth               ...    6
 Integral package used                   ... LIBINT
 Integral threshhold            Thresh   ...  2.500e-11
 Primitive cut-off              TCut     ...  2.500e-12


------------------------------ INTEGRAL EVALUATION ----------------------------


 * One electron integrals 
 Pre-screening matrix                    ... done
 Shell pair data                         ... done (   0.002 sec)

-------------------------------------------------------------------------------
                                 ORCA SCF
-------------------------------------------------------------------------------

------------
SCF SETTINGS
------------
Hamiltonian:
 Density Functional     Method          .... DFT(GTOs)
 Exchange Functional    Exchange        .... B88
   X-Alpha parameter    XAlpha          ....  0.666667
   Becke's b parameter  XBeta           ....  0.004200
 Correlation Functional Correlation     .... LYP
 LDA part of GGA corr.  LDAOpt          .... VWN-5
 Gradients option       PostSCFGGA      .... off
 Hybrid DFT is turned on
   Fraction HF Exchange ScalHFX         ....  0.200000
   Scaling of DF-GGA-X  ScalDFX         ....  0.720000
   Scaling of DF-GGA-C  ScalDFC         ....  0.810000
   Scaling of DF-LDA-C  ScalLDAC        ....  1.000000
   Perturbative correction              ....  0.000000
   Density functional embedding theory  .... OFF
   NL short-range parameter             ....  4.800000


General Settings:
 Integral files         IntName         .... /Users/lailaal-madhagi/Desktop/Testing_XAS_Analysis_code/Glycine//Results_dir_Glycine_geom_element_O_2019-11-10_21-45-36//GTE1_Glycine_geom_2019-11-10_21-45-46//opt
 Hartree-Fock type      HFTyp           .... RHF
 Total Charge           Charge          ....    0
 Multiplicity           Mult            ....    1
 Number of Electrons    NEL             ....   40
 Basis Dimension        Dim             ....   80
 Nuclear Repulsion      ENuc            ....    178.2243811330 Eh

Convergence Acceleration:
 DIIS                   CNVDIIS         .... on
   Start iteration      DIISMaxIt       ....    12
   Startup error        DIISStart       ....  0.200000
   # of expansion vecs  DIISMaxEq       ....     5
   Bias factor          DIISBfac        ....   1.050
   Max. coefficient     DIISMaxC        ....  10.000
 Newton-Raphson         CNVNR           .... off
 SOSCF                  CNVSOSCF        .... on
   Start iteration      SOSCFMaxIt      ....   150
   Startup grad/error   SOSCFStart      ....  0.003300
 Level Shifting         CNVShift        .... on
   Level shift para.    LevelShift      ....    0.2500
   Turn off err/grad.   ShiftErr        ....    0.0010
 Zerner damping         CNVZerner       .... off
 Static damping         CNVDamp         .... on
   Fraction old density DampFac         ....    0.7000
   Max. Damping (<1)    DampMax         ....    0.9800
   Min. Damping (>=0)   DampMin         ....    0.0000
   Turn off err/grad.   DampErr         ....    0.1000
 Fernandez-Rico         CNVRico         .... off

SCF Procedure:
 Maximum # iterations   MaxIter         ....   125
 SCF integral mode      SCFMode         .... Direct
   Integral package                     .... LIBINT
 Reset frequency        DirectResetFreq ....    20
 Integral Threshold     Thresh          ....  2.500e-11 Eh
 Primitive CutOff       TCut            ....  2.500e-12 Eh

Convergence Tolerance:
 Convergence Check Mode ConvCheckMode   .... Total+1el-Energy
 Convergence forced     ConvForced      .... 0
 Energy Change          TolE            ....  1.000e-08 Eh
 1-El. energy change                    ....  1.000e-05 Eh
 Orbital Gradient       TolG            ....  1.000e-05
 Orbital Rotation angle TolX            ....  1.000e-05
 DIIS Error             TolErr          ....  5.000e-07


Diagonalization of the overlap matrix:
Smallest eigenvalue                        ... 4.284e-03
Time for diagonalization                   ...    0.002 sec
Threshold for overlap eigenvalues          ... 1.000e-08
Number of eigenvalues below threshold      ... 0
Time for construction of square roots      ...    0.001 sec
Total time needed                          ...    0.003 sec

-------------------
DFT GRID GENERATION
-------------------

General Integration Accuracy     IntAcc      ...  4.340
Radial Grid Type                 RadialGrid  ... Gauss-Chebyshev
Angular Grid (max. acc.)         AngularGrid ... Lebedev-194
Angular grid pruning method      GridPruning ... 3 (G Style)
Weight generation scheme         WeightScheme... Becke
Basis function cutoff            BFCut       ...    1.0000e-11
Integration weight cutoff        WCut        ...    1.0000e-14
Grids for H and He will be reduced by one unit

# of grid points (after initial pruning)     ...  24248 (   0.0 sec)
# of grid points (after weights+screening)   ...  23068 (   0.0 sec)
nearest neighbour list constructed           ...    0.0 sec
Grid point re-assignment to atoms done       ...    0.0 sec
Grid point division into batches done        ...    0.0 sec
Reduced shell lists constructed in    0.1 sec

Total number of grid points                  ...    23068
Total number of batches                      ...      367
Average number of points per batch           ...       62
Average number of grid points per atom       ...     2307
Average number of shells per batch           ...    30.05 (75.14%)
Average number of basis functions per batch  ...    62.13 (77.66%)
Average number of large shells per batch     ...    24.95 (83.01%)
Average number of large basis fcns per batch ...    51.49 (82.88%)
Maximum spatial batch extension              ...  16.64, 17.78, 18.55 au
Average spatial batch extension              ...   3.26,  3.17,  3.35 au

Time for grid setup =    0.164 sec

------------------------------
INITIAL GUESS: MODEL POTENTIAL
------------------------------
Loading Hartree-Fock densities                     ... done
Calculating cut-offs                               ... done
Setting up the integral package                    ... done
Initializing the effective Hamiltonian             ... done
Starting the Coulomb interaction                   ... done (   0.0 sec)
Reading the grid                                   ... done
Mapping shells                                     ... done
Starting the XC term evaluation                    ... done (   0.1 sec)
  promolecular density results
     # of electrons  =     39.996785124
     EX              =    -34.711835700
     EC              =     -1.374791998
     EX+EC           =    -36.086627698
Transforming the Hamiltonian                       ... done (   0.0 sec)
Diagonalizing the Hamiltonian                      ... done (   0.0 sec)
Back transforming the eigenvectors                 ... done (   0.0 sec)
Now organizing SCF variables                       ... done
                      ------------------
                      INITIAL GUESS DONE (   0.4 sec)
                      ------------------
--------------
SCF ITERATIONS
--------------
               ***  Starting incremental Fock matrix formation  ***

                         ----------------------------
                         !        ITERATION     0   !
                         ----------------------------
   Total Energy        :    -283.991548123583 Eh
   Energy Change       :    -283.991548123583 Eh
   MAX-DP              :       0.111058025531
   RMS-DP              :       0.005239842938
   Actual Damping      :       0.7000
   Actual Level Shift  :       0.2500 Eh
   Int. Num. El.       :    39.99944205 (UP=   19.99972102 DN=   19.99972102)
   Exchange            :   -28.56972502
   Correlation         :    -1.64477235


                         ----------------------------
                         !        ITERATION     1   !
                         ----------------------------
   Total Energy        :    -284.118536602287 Eh
   Energy Change       :      -0.126988478705 Eh
   MAX-DP              :       0.062470302806
   RMS-DP              :       0.003213174174
   Actual Damping      :       0.7000
   Actual Level Shift  :       0.2500 Eh
   Int. Num. El.       :    39.99933441 (UP=   19.99966721 DN=   19.99966721)
   Exchange            :   -28.24902450
   Correlation         :    -1.63440635

                               ***Turning on DIIS***

                         ----------------------------
                         !        ITERATION     2   !
                         ----------------------------
   Total Energy        :    -284.158731315371 Eh
   Energy Change       :      -0.040194713084 Eh
   MAX-DP              :       0.071558639382
   RMS-DP              :       0.004087489037
   Actual Damping      :       0.0000
   Actual Level Shift  :       0.2500 Eh
   Int. Num. El.       :    39.99926493 (UP=   19.99963247 DN=   19.99963247)
   Exchange            :   -28.06878450
   Correlation         :    -1.62802235
   DIIS-Error          :       0.041742356840


                         ----------------------------
                         !        ITERATION     3   !
                         ----------------------------
   Total Energy        :    -284.231920168631 Eh
   Energy Change       :      -0.073188853259 Eh
   MAX-DP              :       0.039804984374
   RMS-DP              :       0.002265978141
   Actual Damping      :       0.0000
   Actual Level Shift  :       0.2500 Eh
   Int. Num. El.       :    39.99916439 (UP=   19.99958220 DN=   19.99958220)
   Exchange            :   -27.86975385
   Correlation         :    -1.61992672
   DIIS-Error          :       0.065883287283
   DIIS coefficients:
      0.65010   0.34990


                         ----------------------------
                         !        ITERATION     4   !
                         ----------------------------
   Total Energy        :    -284.245216465225 Eh
   Energy Change       :      -0.013296296595 Eh
   MAX-DP              :       0.012365569976
   RMS-DP              :       0.000692834196
   Actual Damping      :       0.0000
   Actual Level Shift  :       0.2500 Eh
   Int. Num. El.       :    39.99920556 (UP=   19.99960278 DN=   19.99960278)
   Exchange            :   -27.98186560
   Correlation         :    -1.62399039
   DIIS-Error          :       0.017248342787
   DIIS coefficients:
      0.33435   0.10228   0.56338

                      *** Initiating the SOSCF procedure ***
                           *** Shutting down DIIS ***
                      *** Re-Reading the Fockian *** 
                      *** Removing any level shift *** 

                         ----------------------------
                         !        ITERATION     5   !
                         ----------------------------
   Total Energy        :    -284.246518880729 Eh
   Energy Change       :      -0.001302415504 Eh
   MAX-DP              :       0.004169657393
   RMS-DP              :       0.000192712265
   Orbital gradient    :       0.000942444704
   Orbital Rotation    :       0.000942444704
   Actual Damping      :       0.0000
   Int. Num. El.       :    39.99922076 (UP=   19.99961038 DN=   19.99961038)
   Exchange            :   -27.99634263
   Correlation         :    -1.62487309

               *** Restarting incremental Fock matrix formation ***

                         ----------------------------
                         !        ITERATION     6   !
                         ----------------------------
   Total Energy        :    -284.246549987900 Eh
   Energy Change       :      -0.000031107171 Eh
   MAX-DP              :       0.003441660286
   RMS-DP              :       0.000136050000
   Orbital gradient    :       0.000867372629
   Orbital Rotation    :       0.002712492646
   Actual Damping      :       0.0000
   Int. Num. El.       :    39.99922135 (UP=   19.99961067 DN=   19.99961067)
   Exchange            :   -28.00015964
   Correlation         :    -1.62503022


                         ----------------------------
                         !        ITERATION     7   !
                         ----------------------------
   Total Energy        :    -284.246539019175 Eh
   Energy Change       :       0.000010968725 Eh
   MAX-DP              :       0.002117381492
   RMS-DP              :       0.000079772465
   Orbital gradient    :       0.001839013785
   Orbital Rotation    :       0.001826156443
   Actual Damping      :       0.0000
   Int. Num. El.       :    39.99922123 (UP=   19.99961061 DN=   19.99961061)
   Exchange            :   -27.99914148
   Correlation         :    -1.62500926


                         ----------------------------
                         !        ITERATION     8   !
                         ----------------------------
   Total Energy        :    -284.246557610304 Eh
   Energy Change       :      -0.000018591128 Eh
   MAX-DP              :       0.000429255251
   RMS-DP              :       0.000025455439
   Orbital gradient    :       0.000136363136
   Orbital Rotation    :       0.000205989182
   Actual Damping      :       0.0000
   Int. Num. El.       :    39.99922072 (UP=   19.99961036 DN=   19.99961036)
   Exchange            :   -27.99981524
   Correlation         :    -1.62501983


                         ----------------------------
                         !        ITERATION     9   !
                         ----------------------------
   Total Energy        :    -284.246557294024 Eh
   Energy Change       :       0.000000316280 Eh
   MAX-DP              :       0.000301027649
   RMS-DP              :       0.000014381575
   Orbital gradient    :       0.000202917710
   Orbital Rotation    :       0.000123590434
   Actual Damping      :       0.0000
   Int. Num. El.       :    39.99922088 (UP=   19.99961044 DN=   19.99961044)
   Exchange            :   -27.99964977
   Correlation         :    -1.62502219


                         ----------------------------
                         !        ITERATION    10   !
                         ----------------------------
   Total Energy        :    -284.246557981646 Eh
   Energy Change       :      -0.000000687622 Eh
   MAX-DP              :       0.000070193115
   RMS-DP              :       0.000003027756
   Orbital gradient    :       0.000023537740
   Orbital Rotation    :       0.000020279426
   Actual Damping      :       0.0000
   Int. Num. El.       :    39.99922085 (UP=   19.99961042 DN=   19.99961042)
   Exchange            :   -27.99989269
   Correlation         :    -1.62502613


                         ----------------------------
                         !        ITERATION    11   !
                         ----------------------------
   Total Energy        :    -284.246557979176 Eh
   Energy Change       :       0.000000002469 Eh
   MAX-DP              :       0.000041975723
   RMS-DP              :       0.000001722414
   Orbital gradient    :       0.000028848001
   Orbital Rotation    :       0.000012590607
   Actual Damping      :       0.0000
   Int. Num. El.       :    39.99922078 (UP=   19.99961039 DN=   19.99961039)
   Exchange            :   -27.99970642
   Correlation         :    -1.62501927

                  ***Gradient check signals convergence***
              ***Rediagonalizing the Fockian in SOSCF/NRSCF***

               *****************************************************
               *                     SUCCESS                       *
               *           SCF CONVERGED AFTER  12 CYCLES          *
               *****************************************************

Setting up the final grid:

General Integration Accuracy     IntAcc      ...  5.010
Radial Grid Type                 RadialGrid  ... Gauss-Chebyshev
Angular Grid (max. acc.)         AngularGrid ... Lebedev-434
Angular grid pruning method      GridPruning ... 3 (G Style)
Weight generation scheme         WeightScheme... Becke
Basis function cutoff            BFCut       ...    1.0000e-11
Integration weight cutoff        WCut        ...    1.0000e-14
Grids for H and He will be reduced by one unit

# of grid points (after initial pruning)     ...  87130 (   0.0 sec)
# of grid points (after weights+screening)   ...  82241 (   0.1 sec)
nearest neighbour list constructed           ...    0.0 sec
Grid point re-assignment to atoms done       ...    0.0 sec
Grid point division into batches done        ...    0.4 sec
Reduced shell lists constructed in    0.7 sec

Total number of grid points                  ...    82241
Total number of batches                      ...     1289
Average number of points per batch           ...       63
Average number of grid points per atom       ...     8224
Average number of shells per batch           ...    28.14 (70.34%)
Average number of basis functions per batch  ...    57.96 (72.44%)
Average number of large shells per batch     ...    22.77 (80.92%)
Average number of large basis fcns per batch ...    46.75 (80.66%)
Maximum spatial batch extension              ...  15.73, 17.74, 20.19 au
Average spatial batch extension              ...   2.23,  2.16,  2.26 au

Final grid set up in    0.8 sec
Final integration                            ... done (   0.4 sec)
Change in XC energy                          ...    -0.000149501
Integrated number of electrons               ...    40.000006669
Previous integrated no of electrons          ...    39.999220815

----------------
TOTAL SCF ENERGY
----------------

Total Energy       :         -284.24670749 Eh           -7734.74614 eV

Components:
Nuclear Repulsion  :          178.22438113 Eh            4849.73197 eV
Electronic Energy  :         -462.47108862 Eh          -12584.47810 eV
One Electron Energy:         -740.95873214 Eh          -20162.51214 eV
Two Electron Energy:          278.48764352 Eh            7578.03404 eV

Virial components:
Potential Energy   :         -566.72787197 Eh          -15421.44941 eV
Kinetic Energy     :          282.48116448 Eh            7686.70327 eV
Virial Ratio       :            2.00625013


DFT components:
N(Alpha)           :       20.000003334685 electrons
N(Beta)            :       20.000003334685 electrons
N(Total)           :       40.000006669369 electrons
E(X)               :      -27.999940158219 Eh       
E(C)               :       -1.625033976059 Eh       
E(XC)              :      -29.624974134277 Eh       
DFET-embed. en.    :        0.000000000000 Eh       

---------------
SCF CONVERGENCE
---------------

  Last Energy change         ...   -8.3253e-09  Tolerance :   1.0000e-08
  Last MAX-Density change    ...    9.3128e-06  Tolerance :   1.0000e-07
  Last RMS-Density change    ...    3.8291e-07  Tolerance :   5.0000e-09
  Last Orbital Gradient      ...    2.0411e-06  Tolerance :   1.0000e-05
  Last Orbital Rotation      ...    3.2831e-06  Tolerance :   1.0000e-05

             **** THE GBW FILE WAS UPDATED (/Users/lailaal-madhagi/Desktop/Testing_XAS_Analysis_code/Glycine//Results_dir_Glycine_geom_element_O_2019-11-10_21-45-36//GTE1_Glycine_geom_2019-11-10_21-45-46//opt.gbw) ****
             **** DENSITY FILE WAS UPDATED (/Users/lailaal-madhagi/Desktop/Testing_XAS_Analysis_code/Glycine//Results_dir_Glycine_geom_element_O_2019-11-10_21-45-36//GTE1_Glycine_geom_2019-11-10_21-45-46//opt.scfp.tmp) ****
             **** ENERGY FILE WAS UPDATED (/Users/lailaal-madhagi/Desktop/Testing_XAS_Analysis_code/Glycine//Results_dir_Glycine_geom_element_O_2019-11-10_21-45-36//GTE1_Glycine_geom_2019-11-10_21-45-46//opt.en.tmp) ****
----------------
ORBITAL ENERGIES
----------------

  NO   OCC          E(Eh)            E(eV) 
   0   2.0000     -19.187608      -522.1214 
   1   2.0000     -19.121126      -520.3123 
   2   2.0000     -14.315666      -389.5491 
   3   2.0000     -10.312208      -280.6094 
   4   2.0000     -10.228242      -278.3246 
   5   2.0000      -1.093262       -29.7492 
   6   2.0000      -1.004278       -27.3278 
   7   2.0000      -0.882564       -24.0158 
   8   2.0000      -0.709732       -19.3128 
   9   2.0000      -0.628887       -17.1129 
  10   2.0000      -0.525636       -14.3033 
  11   2.0000      -0.484319       -13.1790 
  12   2.0000      -0.462207       -12.5773 
  13   2.0000      -0.438349       -11.9281 
  14   2.0000      -0.415674       -11.3111 
  15   2.0000      -0.389733       -10.6052 
  16   2.0000      -0.363645        -9.8953 
  17   2.0000      -0.306496        -8.3402 
  18   2.0000      -0.262012        -7.1297 
  19   2.0000      -0.238043        -6.4775 
  20   0.0000       0.013371         0.3639 
  21   0.0000       0.051686         1.4064 
  22   0.0000       0.070753         1.9253 
  23   0.0000       0.130061         3.5391 
  24   0.0000       0.140644         3.8271 
  25   0.0000       0.172792         4.7019 
  26   0.0000       0.216707         5.8969 
  27   0.0000       0.224008         6.0956 
  28   0.0000       0.331490         9.0203 
  29   0.0000       0.380226        10.3465 
  30   0.0000       0.520476        14.1629 
  31   0.0000       0.541873        14.7451 
  32   0.0000       0.560509        15.2522 
  33   0.0000       0.615137        16.7387 
  34   0.0000       0.659278        17.9399 
  35   0.0000       0.681897        18.5554 
  36   0.0000       0.710479        19.3331 
  37   0.0000       0.728523        19.8241 
  38   0.0000       0.789828        21.4923 
  39   0.0000       0.803863        21.8742 
  40   0.0000       0.851280        23.1645 
  41   0.0000       0.871606        23.7176 
  42   0.0000       0.892965        24.2988 
  43   0.0000       0.913560        24.8592 
  44   0.0000       0.929628        25.2965 
  45   0.0000       0.938843        25.5472 
  46   0.0000       0.956576        26.0298 
  47   0.0000       1.007520        27.4160 
  48   0.0000       1.072520        29.1847 
  49   0.0000       1.142727        31.0952 
  50   0.0000       1.175878        31.9973 
  51   0.0000       1.312989        35.7282 
  52   0.0000       1.380005        37.5519 
  53   0.0000       1.418737        38.6058 
  54   0.0000       1.495457        40.6935 
  55   0.0000       1.584765        43.1236 
  56   0.0000       1.640791        44.6482 
  57   0.0000       1.705078        46.3975 
  58   0.0000       1.756543        47.7980 
  59   0.0000       1.798154        48.9303 
  60   0.0000       1.803223        49.0682 
  61   0.0000       1.820481        49.5378 
  62   0.0000       1.890776        51.4506 
  63   0.0000       1.912861        52.0516 
  64   0.0000       1.952021        53.1172 
  65   0.0000       1.990381        54.1610 
  66   0.0000       2.027827        55.1800 
  67   0.0000       2.122414        57.7538 
  68   0.0000       2.185361        59.4667 
  69   0.0000       2.268586        61.7314 
  70   0.0000       2.372295        64.5534 
  71   0.0000       2.419669        65.8426 
  72   0.0000       2.464251        67.0557 
  73   0.0000       2.470177        67.2169 
  74   0.0000       2.583335        70.2961 
  75   0.0000       2.633464        71.6602 
  76   0.0000       2.759405        75.0872 
  77   0.0000       2.859941        77.8230 
  78   0.0000       2.996405        81.5363 
  79   0.0000       3.115426        84.7750 
------------------
MOLECULAR ORBITALS
------------------
                      0         1         2         3         4         5   
                 -19.18761 -19.12113 -14.31567 -10.31221 -10.22824  -1.09326
                   2.00000   2.00000   2.00000   2.00000   2.00000   2.00000
                  --------  --------  --------  --------  --------  --------
  0C   1s        -0.000018 -0.000003 -0.000067 -0.000870  0.995373  0.018959
  0C   2s        -0.000528 -0.000366 -0.001366  0.001376  0.037940 -0.038186
  0C   1pz       -0.000008  0.000073  0.000024 -0.000185 -0.000155  0.004633
  0C   1px       -0.000074 -0.000142  0.000012  0.000631 -0.000021 -0.021694
  0C   1py        0.000040 -0.000188 -0.000003  0.000459  0.000393 -0.011143
  0C   3s         0.002007  0.001701  0.010790 -0.009260 -0.035872  0.000654
  0C   2pz       -0.000576  0.000597 -0.000510  0.000988  0.001047 -0.003423
  0C   2px       -0.001429  0.003712 -0.003066 -0.005138 -0.002138 -0.003281
  0C   2py        0.001611 -0.002070  0.003240 -0.002262 -0.002230  0.007077
  0C   1dz2       0.000006  0.000033  0.000227 -0.000531 -0.000054  0.002227
  0C   1dxz      -0.000021  0.000053 -0.000286 -0.000256  0.000033  0.001273
  0C   1dyz      -0.000164  0.000174  0.000134 -0.000205  0.000049  0.000369
  0C   1dx2y2    -0.000414  0.000356 -0.000118  0.000465  0.000147 -0.002862
  0C   1dxy       0.000125 -0.000179  0.000534  0.000600 -0.000149 -0.002816
  1N   1s        -0.000013 -0.000025  0.995284  0.000028  0.000024  0.005969
  1N   2s        -0.000189 -0.000385  0.031899  0.000503 -0.000523 -0.012422
  1N   1pz        0.000027 -0.000004  0.001711 -0.000008 -0.000028 -0.002063
  1N   1px       -0.000243 -0.000104  0.000222  0.000314 -0.000432 -0.006459
  1N   1py       -0.000074  0.000003 -0.000828 -0.000008  0.000370  0.001611
  1N   3s        -0.000876  0.002290 -0.022864 -0.000679  0.005114 -0.014688
  1N   2pz       -0.000234  0.000392 -0.003367 -0.000078  0.000075 -0.001874
  1N   2px        0.000949  0.000728 -0.002235 -0.001152  0.001947  0.001109
  1N   2py        0.000936 -0.000829  0.002641  0.000007 -0.001349  0.004208
  1N   1dz2      -0.000062 -0.000011  0.000196  0.000146  0.000590  0.000558
  1N   1dxz      -0.000001  0.000039 -0.000126  0.000027 -0.000355 -0.000373
  1N   1dyz       0.000045  0.000006 -0.000038  0.000051  0.000347  0.000080
  1N   1dx2y2     0.000106 -0.000066 -0.000051 -0.000036 -0.000258 -0.000262
  1N   1dxy      -0.000030 -0.000079  0.000137 -0.000051  0.001014  0.000445
  2C   1s         0.000041  0.000264  0.000018 -0.995120 -0.000926  0.111197
  2C   2s         0.000077  0.000588 -0.000316 -0.036486 -0.001651 -0.213839
  2C   1pz        0.000088  0.000007  0.000074  0.000294 -0.000095  0.007437
  2C   1px        0.000362 -0.000050  0.000180 -0.001483  0.000454 -0.088154
  2C   1py       -0.000297 -0.000010 -0.000045 -0.000716  0.000262 -0.012110
  2C   3s         0.007043  0.008292 -0.003105  0.011267  0.009800 -0.046461
  2C   2pz        0.001751 -0.004115 -0.000263  0.002386  0.000785 -0.004760
  2C   2px        0.008791  0.000593  0.001080 -0.010158 -0.006613  0.038487
  2C   2py       -0.005858  0.011622 -0.000293 -0.005848 -0.001832  0.008732
  2C   1dz2      -0.000114  0.000119  0.000088  0.001514  0.000399  0.012898
  2C   1dxz      -0.000106 -0.000051  0.000023 -0.000160  0.000327 -0.003911
  2C   1dyz      -0.000095  0.000401  0.000033  0.001174  0.000093  0.009099
  2C   1dx2y2    -0.000009  0.000808 -0.000107  0.000390 -0.000554  0.002226
  2C   1dxy       0.000263  0.000094  0.000001  0.000747 -0.000803  0.013795
  3H   1s         0.000051 -0.000073 -0.000657  0.000527 -0.000292 -0.006297
  3H   2s        -0.000297 -0.000368 -0.000524 -0.000778  0.005640  0.000023
  4H   1s         0.000033 -0.000081 -0.000505  0.000537 -0.000280 -0.006568
  4H   2s        -0.000324 -0.000400 -0.000307 -0.000759  0.005789 -0.001192
  5O   1s        -0.000528  0.995164 -0.000013  0.000015 -0.000008  0.084441
  5O   2s        -0.000627  0.030219 -0.000376 -0.000853 -0.000344 -0.183656
  5O   1pz       -0.000055  0.000775 -0.000010  0.000320 -0.000046 -0.027739
  5O   1px        0.000103  0.000020  0.000141 -0.000172  0.000019 -0.007907
  5O   1py        0.000143 -0.002151  0.000047 -0.000898  0.000144  0.078284
  5O   3s         0.002554 -0.023637  0.001367  0.007142 -0.000142 -0.164666
  5O   2pz        0.000270 -0.002353  0.000249  0.001544 -0.000014 -0.010301
  5O   2px       -0.002040 -0.000128 -0.000409  0.002065  0.000885 -0.012105
  5O   2py       -0.000550  0.006641 -0.000608 -0.004525 -0.000056  0.028623
  5O   1dz2      -0.000097  0.000071 -0.000054 -0.000719 -0.000210  0.001466
  5O   1dxz      -0.000170 -0.000017 -0.000002  0.000102  0.000063 -0.001030
  5O   1dyz      -0.000063  0.000154 -0.000084 -0.001040 -0.000102  0.003599
  5O   1dx2y2     0.000064  0.000263 -0.000066 -0.001349  0.000094  0.006453
  5O   1dxy       0.000447  0.000039  0.000074 -0.000312 -0.000198  0.003058
  6O   1s         0.995145  0.000489 -0.000012 -0.000139 -0.000017  0.177220
  6O   2s         0.030123 -0.000551 -0.000193 -0.001160 -0.000511 -0.387005
  6O   1pz        0.000213 -0.000015 -0.000018  0.000019  0.000019 -0.009769
  6O   1px       -0.001592  0.000272  0.000082 -0.000528  0.000169  0.093775
  6O   1py       -0.000479  0.000011 -0.000019 -0.000004 -0.000096  0.020667
  6O   3s        -0.022215  0.001795  0.000442  0.005422  0.001434 -0.395408
  6O   2pz        0.000246  0.000639  0.000072 -0.001428 -0.000246 -0.003740
  6O   2px        0.005671 -0.001488 -0.000604 -0.003187 -0.000329  0.049089
  6O   2py       -0.001262 -0.001657  0.000166  0.004471  0.000850  0.006873
  6O   1dz2       0.000356 -0.000213 -0.000083 -0.001085 -0.000147  0.010049
  6O   1dxz      -0.000126 -0.000141 -0.000005  0.000535 -0.000007 -0.001638
  6O   1dyz       0.000145 -0.000064 -0.000012 -0.000265 -0.000153  0.007564
  6O   1dx2y2    -0.000183  0.000237  0.000060  0.001006 -0.000146  0.003328
  6O   1dxy       0.000452  0.000329 -0.000056 -0.001847 -0.000012  0.006326
  7H   1s        -0.000173 -0.000136  0.000201  0.000200 -0.000281 -0.003559
  7H   2s         0.000009  0.000025  0.003351 -0.000115  0.000932 -0.000187
  8H   1s         0.000255 -0.000164  0.000183 -0.000046 -0.000263 -0.001156
  8H   2s         0.000516  0.000310  0.003413 -0.000814  0.000382  0.002774
  9H   1s         0.000435 -0.000566 -0.000154  0.000609 -0.000127 -0.098297
  9H   2s         0.001867  0.000242  0.000413  0.000569  0.000479  0.005241
                      6         7         8         9        10        11   
                  -1.00428  -0.88256  -0.70973  -0.62889  -0.52564  -0.48432
                   2.00000   2.00000   2.00000   2.00000   2.00000   2.00000
                  --------  --------  --------  --------  --------  --------
  0C   1s        -0.015849 -0.110967 -0.137314  0.053672  0.041375 -0.024325
  0C   2s         0.030501  0.214195  0.270873 -0.105875 -0.086647  0.043761
  0C   1pz       -0.007276 -0.013018 -0.000870 -0.001489  0.016241  0.340615
  0C   1px        0.002851 -0.074897  0.135174  0.010446  0.195910 -0.049112
  0C   1py        0.021181  0.054923 -0.034935  0.023121  0.237735 -0.021854
  0C   3s         0.014154  0.134281  0.263563 -0.122334 -0.081145  0.073106
  0C   2pz       -0.002302  0.005064  0.010197 -0.006453  0.003449  0.145610
  0C   2px       -0.018804 -0.000816  0.037057 -0.011179  0.086541 -0.003782
  0C   2py        0.011419 -0.003461 -0.016340  0.011505  0.116778  0.001216
  0C   1dz2      -0.001544 -0.005382  0.005171 -0.003970 -0.008946  0.013353
  0C   1dxz      -0.000722  0.003229 -0.002792 -0.000268 -0.005009  0.002235
  0C   1dyz      -0.001536 -0.000814  0.002742 -0.000385 -0.006765 -0.005486
  0C   1dx2y2    -0.001335  0.002990 -0.001670  0.005899  0.003356 -0.003642
  0C   1dxy       0.001927 -0.011643  0.010538 -0.001419  0.005447 -0.002352
  1N   1s        -0.014117 -0.174813  0.088847 -0.027925 -0.014619  0.021807
  1N   2s         0.029766  0.362385 -0.190100  0.062414  0.031950 -0.050360
  1N   1pz        0.005275  0.083557 -0.050795  0.020041  0.069073  0.141571
  1N   1px        0.009485  0.025281  0.102373 -0.066056  0.058546  0.042817
  1N   1py       -0.002808 -0.050515 -0.035072  0.031467  0.246067  0.095400
  1N   3s         0.014816  0.372719 -0.227333  0.073627  0.045651 -0.063085
  1N   2pz        0.000241  0.046028 -0.029802  0.013708  0.035517  0.073361
  1N   2px        0.002374  0.004839  0.041723 -0.038044  0.021942  0.026325
  1N   2py        0.005284 -0.024497 -0.011428  0.011711  0.114161  0.038615
  1N   1dz2      -0.001073 -0.007239 -0.000476  0.001223  0.008266  0.012726
  1N   1dxz       0.000226  0.001248  0.006431 -0.003677  0.002943  0.007650
  1N   1dyz       0.000488  0.004502 -0.007345  0.003865  0.016656 -0.000080
  1N   1dx2y2     0.001040  0.000447  0.002021 -0.000686  0.004033 -0.003199
  1N   1dxy       0.000341  0.000143 -0.010401  0.005022  0.000256 -0.003860
  2C   1s        -0.066945 -0.007982 -0.082146 -0.071817 -0.064537  0.039890
  2C   2s         0.131661  0.016354  0.173807  0.158760  0.146517 -0.089984
  2C   1pz       -0.069967  0.022159  0.052874  0.025127  0.067898  0.178272
  2C   1px       -0.063858 -0.056816 -0.108592  0.234326 -0.196832  0.100096
  2C   1py        0.206694 -0.056009 -0.143318 -0.088403 -0.043682  0.068139
  2C   3s         0.054203  0.016988  0.107616  0.116623  0.081365 -0.075455
  2C   2pz        0.009999  0.002165  0.015038  0.010310  0.027757  0.068365
  2C   2px        0.002691 -0.005121 -0.015739  0.020833 -0.043355  0.043968
  2C   2py       -0.027465 -0.004113 -0.044858 -0.025785 -0.019454  0.054844
  2C   1dz2      -0.003795 -0.001330 -0.003717 -0.007141  0.002118  0.001139
  2C   1dxz      -0.003529 -0.001685 -0.003101  0.002302 -0.000436 -0.002277
  2C   1dyz      -0.012285  0.001896  0.000955  0.003010  0.000144 -0.001841
  2C   1dx2y2    -0.022962  0.007296  0.009010  0.019300 -0.001486  0.001889
  2C   1dxy       0.010984  0.003766  0.007726 -0.009737 -0.003338  0.001451
  3H   1s         0.004446  0.051189  0.094891 -0.044743 -0.066924  0.211653
  3H   2s        -0.002907  0.002664  0.019084 -0.015908 -0.033869  0.158142
  4H   1s         0.004335  0.049498  0.102889 -0.050082 -0.150765 -0.074284
  4H   2s        -0.001612  0.006342  0.027095 -0.022121 -0.083400 -0.057181
  5O   1s        -0.173062  0.033655  0.045821  0.047632  0.036210 -0.024289
  5O   2s         0.380118 -0.075663 -0.106659 -0.108755 -0.086526  0.058363
  5O   1pz        0.047494 -0.005912  0.004129  0.012537  0.050014  0.084121
  5O   1px       -0.008278 -0.014002 -0.023722  0.069835 -0.109620  0.058795
  5O   1py       -0.130849  0.018569 -0.012666 -0.041332 -0.057136  0.115170
  5O   3s         0.348988 -0.072078 -0.099605 -0.129657 -0.101888  0.070560
  5O   2pz        0.015937 -0.001663  0.005344  0.005901  0.028479  0.042421
  5O   2px       -0.005442 -0.006090 -0.009333  0.033601 -0.058705  0.030802
  5O   2py       -0.040353  0.005689 -0.015653 -0.022019 -0.036139  0.065731
  5O   1dz2      -0.001540 -0.000111 -0.000826 -0.001548 -0.000565  0.007617
  5O   1dxz      -0.000931 -0.000684 -0.001077  0.002141 -0.003408  0.001070
  5O   1dyz      -0.004742  0.000423 -0.001530 -0.002139 -0.004714 -0.004946
  5O   1dx2y2    -0.008221  0.001426 -0.002201 -0.003054 -0.002511  0.006756
  5O   1dxy       0.001974  0.001715  0.003361 -0.005569  0.008099 -0.004384
  6O   1s         0.110573  0.007161  0.038201  0.011914  0.021320 -0.012153
  6O   2s        -0.244100 -0.015528 -0.087119 -0.022401 -0.053429  0.029977
  6O   1pz       -0.021418  0.002493 -0.019379 -0.118966  0.065365  0.116722
  6O   1px        0.030769 -0.004263 -0.097621 -0.235450 -0.040834  0.035088
  6O   1py        0.060386 -0.006244  0.067176  0.377682 -0.109964  0.112679
  6O   3s        -0.261037 -0.020327 -0.118840 -0.045641 -0.062190  0.038266
  6O   2pz       -0.012045  0.000814 -0.009396 -0.057336  0.036280  0.077871
  6O   2px        0.021539 -0.000183 -0.043634 -0.102835 -0.036327  0.026047
  6O   2py        0.032571 -0.002787  0.032336  0.180506 -0.057009  0.061834
  6O   1dz2       0.004609  0.000139 -0.000822  0.002286 -0.003086  0.003480
  6O   1dxz       0.000889 -0.000401 -0.000882  0.002162 -0.003733 -0.008335
  6O   1dyz       0.005003  0.000447  0.003925  0.010781 -0.001867 -0.000547
  6O   1dx2y2     0.005124  0.001073  0.011837  0.023670  0.002099 -0.000326
  6O   1dxy      -0.002084  0.001121  0.001391 -0.008076  0.004424 -0.005558
  7H   1s         0.008077  0.105553 -0.087728  0.039652  0.142722  0.075418
  7H   2s         0.000659  0.002231 -0.018963  0.008664  0.074819  0.053336
  8H   1s         0.006560  0.107543 -0.094204  0.041012 -0.084075 -0.063381
  8H   2s         0.000067  0.003096 -0.021969  0.010307 -0.051337 -0.038959
  9H   1s        -0.081384 -0.001280 -0.061540 -0.221433  0.048807 -0.028731
  9H   2s        -0.003029 -0.000690 -0.017459 -0.094675  0.022230 -0.013814
                     12        13        14        15        16        17   
                  -0.46221  -0.43835  -0.41567  -0.38973  -0.36364  -0.30650
                   2.00000   2.00000   2.00000   2.00000   2.00000   2.00000
                  --------  --------  --------  --------  --------  --------
  0C   1s         0.026727 -0.010897 -0.004036 -0.004625  0.012942  0.000486
  0C   2s        -0.058713  0.016101  0.004323  0.004662 -0.023881  0.000455
  0C   1pz        0.081803 -0.051791  0.123977 -0.210854 -0.036394 -0.036904
  0C   1px        0.212819  0.012273  0.058354  0.089549 -0.204029 -0.005298
  0C   1py       -0.177319 -0.089310 -0.150522 -0.213844 -0.094476 -0.013175
  0C   3s        -0.093061  0.061351  0.015511  0.047917 -0.109290 -0.010349
  0C   2pz        0.026404 -0.017699  0.048100 -0.112274 -0.001520  0.012353
  0C   2px        0.104760  0.056532  0.003555  0.052253 -0.079889 -0.000154
  0C   2py       -0.100724 -0.034081 -0.044992 -0.085543 -0.074718 -0.000986
  0C   1dz2       0.005095  0.001697  0.010677 -0.003819 -0.001199 -0.004428
  0C   1dxz      -0.004460 -0.006369 -0.009496  0.000083  0.002190  0.002800
  0C   1dyz       0.005131  0.005270  0.000317  0.016603  0.004583  0.006325
  0C   1dx2y2     0.006589 -0.008899 -0.008948 -0.016444 -0.007446 -0.002389
  0C   1dxy       0.012965 -0.007486  0.004612  0.004835 -0.010755  0.001104
  1N   1s         0.001774 -0.003383  0.017107 -0.003796 -0.006954  0.001195
  1N   2s        -0.014500  0.004102 -0.040850  0.007750  0.015233 -0.000204
  1N   1pz        0.007974  0.076192  0.105293 -0.016055  0.057255 -0.005262
  1N   1px       -0.379597  0.114657 -0.125638 -0.052000  0.156624  0.000827
  1N   1py        0.031293  0.240801  0.148619  0.224140  0.040973 -0.007142
  1N   3s         0.035811  0.030819 -0.062026  0.006963  0.054763 -0.014246
  1N   2pz        0.014403  0.041992  0.069494 -0.011830  0.041918 -0.003290
  1N   2px       -0.172923  0.065195 -0.073731 -0.032518  0.087967  0.002922
  1N   2py       -0.000866  0.118851  0.082462  0.124885  0.007599 -0.012557
  1N   1dz2      -0.002008  0.009353  0.009287  0.000937  0.005443 -0.001476
  1N   1dxz      -0.016826  0.004002 -0.004649 -0.005778  0.006620  0.000636
  1N   1dyz       0.000573  0.016258  0.006676  0.018774  0.003765  0.000976
  1N   1dx2y2     0.001986 -0.005504 -0.002469 -0.004381 -0.008123 -0.000694
  1N   1dxy       0.016214 -0.009125  0.002201 -0.002312 -0.010270  0.000107
  2C   1s        -0.020351  0.051210 -0.020487  0.008288 -0.008964 -0.000147
  2C   2s         0.038130 -0.118207  0.054166 -0.017758  0.025506 -0.001661
  2C   1pz        0.067999 -0.111478 -0.229370  0.114857 -0.030992  0.156692
  2C   1px       -0.028352  0.071129 -0.014475 -0.014378  0.223437  0.007531
  2C   1py       -0.129346 -0.221863  0.162050  0.105020  0.127021  0.055418
  2C   3s         0.039255 -0.114085  0.017002 -0.021179 -0.064864  0.008557
  2C   2pz        0.027875 -0.093939 -0.089400  0.067127  0.016112  0.082448
  2C   2px       -0.035913  0.045066  0.006468  0.028227 -0.007435 -0.004605
  2C   2py       -0.040140 -0.011128 -0.009121  0.065385 -0.011190  0.037559
  2C   1dz2       0.002009 -0.000791  0.004096 -0.003349 -0.000673 -0.019392
  2C   1dxz       0.000282 -0.003946 -0.013484  0.012898  0.007081 -0.014528
  2C   1dyz      -0.004283  0.001560 -0.004482  0.004804 -0.005406  0.029501
  2C   1dx2y2    -0.013706  0.005549 -0.009131 -0.002343 -0.019259 -0.012146
  2C   1dxy       0.000068 -0.005343  0.008411  0.013677 -0.006497 -0.004269
  3H   1s         0.047047 -0.005982  0.110217 -0.093493 -0.016401 -0.033196
  3H   2s         0.051440 -0.012528  0.094957 -0.080433 -0.007177 -0.072985
  4H   1s         0.027570  0.076383  0.042117  0.209921  0.068482  0.033342
  4H   2s         0.020355  0.070874  0.042735  0.181446  0.078263  0.072155
  5O   1s        -0.030704 -0.061791  0.054167  0.010517  0.018965  0.001094
  5O   2s         0.067853  0.141648 -0.120329 -0.021545 -0.043478 -0.002623
  5O   1pz       -0.018832 -0.221393 -0.023201  0.156643  0.091940  0.440034
  5O   1px       -0.001383  0.025485  0.026319  0.007827  0.144040  0.008443
  5O   1py        0.096815  0.247822 -0.343639  0.000588 -0.194973  0.155456
  5O   3s         0.128609  0.223097 -0.215060 -0.060241 -0.050151 -0.008895
  5O   2pz       -0.007136 -0.118081 -0.016930  0.089266  0.058081  0.303115
  5O   2px        0.001415  0.008429  0.018598  0.000305  0.096994  0.006242
  5O   2py        0.041121  0.135283 -0.184360  0.010736 -0.124025  0.109477
  5O   1dz2       0.003239 -0.000041 -0.010698  0.004739 -0.001558  0.014976
  5O   1dxz       0.000124  0.000063 -0.000212  0.000664  0.004847 -0.001180
  5O   1dyz       0.001827  0.016516 -0.000108 -0.008739 -0.006223 -0.020233
  5O   1dx2y2     0.002060  0.008256 -0.013425  0.002942 -0.007917  0.008366
  5O   1dxy      -0.000274 -0.001928 -0.001584  0.000539 -0.012310 -0.001161
  6O   1s         0.041643 -0.002767 -0.008307 -0.017212  0.052781 -0.000101
  6O   2s        -0.101376  0.007365  0.018799  0.039780 -0.125661 -0.000065
  6O   1pz        0.076637 -0.197670 -0.236518  0.238213  0.148046 -0.408823
  6O   1px       -0.184955 -0.090015  0.180487  0.173898 -0.355082 -0.016628
  6O   1py       -0.150720 -0.019956 -0.051005  0.172800 -0.221263 -0.137594
  6O   3s        -0.142658  0.012640  0.020921  0.061237 -0.193347  0.004033
  6O   2pz        0.044009 -0.125298 -0.162929  0.167050  0.091454 -0.320625
  6O   2px       -0.128727 -0.057080  0.117293  0.117777 -0.263148 -0.014269
  6O   2py       -0.081764 -0.029085 -0.026151  0.110535 -0.115884 -0.108006
  6O   1dz2      -0.006216 -0.002670  0.000341  0.006905 -0.009264 -0.009146
  6O   1dxz      -0.005819  0.008719  0.014815 -0.009428 -0.007554  0.012499
  6O   1dyz      -0.002610  0.004167  0.001935 -0.002316 -0.007515  0.012466
  6O   1dx2y2     0.006371  0.005284 -0.009459 -0.002668  0.001361 -0.004308
  6O   1dxy       0.011981  0.007911 -0.004951 -0.011373  0.013009  0.004785
  7H   1s         0.018530  0.149291  0.100437  0.122454  0.052563 -0.001597
  7H   2s         0.021445  0.110289  0.061319  0.103353  0.033867  0.024453
  8H   1s         0.183617 -0.136086  0.007938 -0.047984 -0.102332  0.001638
  8H   2s         0.131372 -0.096158  0.007575 -0.035361 -0.098664 -0.000450
  9H   1s         0.062822 -0.031265  0.006188 -0.033809  0.127798  0.000286
  9H   2s         0.045443 -0.020555  0.017402 -0.013105  0.100474  0.000519
                     18        19        20        21        22        23   
                  -0.26201  -0.23804   0.01337   0.05169   0.07075   0.13006
                   2.00000   2.00000   0.00000   0.00000   0.00000   0.00000
                  --------  --------  --------  --------  --------  --------
  0C   1s         0.026093  0.010179  0.001828  0.055342 -0.037416 -0.070570
  0C   2s        -0.047442 -0.034345 -0.004935 -0.057575  0.031581  0.084343
  0C   1pz        0.039831  0.123855  0.033648 -0.028680  0.097433 -0.134833
  0C   1px       -0.150811  0.033134 -0.002114 -0.000699  0.062647 -0.076158
  0C   1py       -0.125074 -0.058877  0.010193  0.080440 -0.174986 -0.219074
  0C   3s        -0.245864  0.030501 -0.024975 -0.827004  0.673242  1.197075
  0C   2pz        0.046177  0.023900  0.258276 -0.019589  0.201636 -0.360691
  0C   2px       -0.141683  0.063117  0.008941  0.191971  0.313412 -0.132707
  0C   2py       -0.119840 -0.025404  0.088746  0.089134 -0.479882 -0.554406
  0C   1dz2       0.003417  0.016028 -0.014752 -0.001347 -0.010405 -0.001026
  0C   1dxz      -0.000867  0.016917  0.025435  0.001398 -0.000129  0.008642
  0C   1dyz       0.000638 -0.018727  0.019495 -0.000095 -0.001694 -0.001344
  0C   1dx2y2    -0.007986 -0.007627 -0.007572  0.003443  0.008958  0.012796
  0C   1dxy      -0.000300 -0.000114  0.009368 -0.008228 -0.012791  0.004663
  1N   1s         0.012693 -0.063184  0.000839 -0.005029 -0.100005  0.046706
  1N   2s        -0.034726  0.141055  0.000883 -0.003150  0.152980 -0.064410
  1N   1pz        0.031149 -0.516310 -0.000900  0.018790  0.143245 -0.136284
  1N   1px       -0.004816  0.026165  0.003738  0.063694 -0.104735 -0.046321
  1N   1py       -0.008264  0.177978  0.001134 -0.048331 -0.028904 -0.179589
  1N   3s        -0.039330  0.281892 -0.012040  0.158610  1.373763 -0.683586
  1N   2pz        0.008810 -0.430324 -0.055576  0.035849  0.305176 -0.274270
  1N   2px        0.046175  0.004379  0.015302  0.156788 -0.192554 -0.167531
  1N   2py        0.002827  0.141680 -0.023380 -0.136828 -0.037792 -0.333324
  1N   1dz2       0.000890 -0.021624 -0.003179  0.000663 -0.001174 -0.007599
  1N   1dxz      -0.000758  0.004751  0.002309  0.002327 -0.002983 -0.007945
  1N   1dyz      -0.002569  0.012979  0.002629 -0.002257 -0.002179 -0.003450
  1N   1dx2y2    -0.003297  0.002167 -0.001100  0.001287 -0.002267 -0.013961
  1N   1dxy       0.001498 -0.000768  0.001034  0.000929  0.000047 -0.007181
  2C   1s         0.015212  0.014605 -0.000656 -0.021295  0.001408 -0.014409
  2C   2s        -0.043839 -0.033668 -0.002963  0.020331  0.033811  0.056108
  2C   1pz       -0.027588  0.003274  0.514171 -0.012629  0.019432  0.062128
  2C   1px        0.029224  0.069202  0.023895  0.105416  0.035772  0.048131
  2C   1py        0.055617  0.049823  0.182072 -0.029194 -0.027222 -0.018938
  2C   3s        -0.015389 -0.106748  0.022432  0.213078 -0.308303  0.076247
  2C   2pz       -0.000011 -0.003575  0.445183 -0.064188 -0.015221  0.145150
  2C   2px       -0.167268  0.026404  0.007531 -0.018719 -0.023389  0.042195
  2C   2py        0.000169  0.071026  0.172020  0.129159  0.000343  0.120765
  2C   1dz2      -0.003495  0.002321  0.014827  0.005602  0.000111  0.001518
  2C   1dxz       0.016752 -0.002385 -0.012208 -0.000231 -0.001629  0.001019
  2C   1dyz      -0.000630 -0.004211 -0.018808  0.006241 -0.004745 -0.004021
  2C   1dx2y2    -0.000043 -0.003254  0.007312  0.004223 -0.012843 -0.004205
  2C   1dxy      -0.046919 -0.003195 -0.005426  0.003315  0.006824  0.007119
  3H   1s         0.034433  0.137426 -0.105638 -0.011784 -0.035724 -0.022767
  3H   2s         0.051516  0.199049 -0.407939  0.407688 -0.685862 -0.233001
  4H   1s         0.046271 -0.050435  0.105178 -0.012951 -0.024234 -0.081142
  4H   2s         0.067698 -0.063279  0.425274  0.415752 -0.528467 -1.447630
  5O   1s        -0.001352  0.003766  0.000707  0.015603 -0.015462  0.005338
  5O   2s         0.003443 -0.008029  0.000342 -0.028240  0.035091 -0.010604
  5O   1pz        0.027498  0.004596 -0.373040 -0.009914  0.027459 -0.050940
  5O   1px       -0.601358 -0.003542 -0.016004 -0.082936 -0.093630 -0.026253
  5O   1py       -0.035573 -0.037008 -0.127201  0.062307 -0.026218 -0.020936
  5O   3s         0.011928 -0.030794 -0.018425 -0.197135  0.139410 -0.067620
  5O   2pz        0.021470 -0.008838 -0.381433 -0.025160  0.039809 -0.074932
  5O   2px       -0.402466 -0.016648 -0.013333 -0.058577 -0.074129 -0.031925
  5O   2py       -0.025133 -0.020592 -0.125097  0.111262 -0.076256  0.000600
  5O   1dz2      -0.000437 -0.001284  0.002264  0.001736 -0.001362  0.000752
  5O   1dxz      -0.008766  0.001332 -0.001840  0.000738  0.001034 -0.000082
  5O   1dyz      -0.001495 -0.000069 -0.003162  0.004080 -0.004501  0.003043
  5O   1dx2y2    -0.001371  0.001184  0.001645  0.005712 -0.004526  0.001075
  5O   1dxy       0.021820 -0.000698 -0.001079 -0.002789  0.001448 -0.003230
  6O   1s        -0.025846  0.001324  0.001884  0.075396  0.013468  0.022225
  6O   2s         0.059236 -0.006059 -0.004208 -0.153608 -0.041013 -0.048153
  6O   1pz       -0.007388 -0.042333 -0.215672 -0.082916 -0.022520 -0.061380
  6O   1px       -0.158156 -0.028961 -0.006912  0.056806  0.050761  0.021840
  6O   1py        0.063144 -0.015156 -0.067752  0.264644  0.063014  0.032543
  6O   3s         0.192766  0.012038 -0.015236 -0.805181 -0.074473 -0.220339
  6O   2pz       -0.005056 -0.033184 -0.229233 -0.140329 -0.039571 -0.075874
  6O   2px       -0.137815 -0.039728 -0.009153  0.022756 -0.001035  0.031363
  6O   2py        0.049594 -0.008604 -0.068340  0.443398  0.126052  0.061635
  6O   1dz2       0.000888 -0.001326 -0.007991  0.005344 -0.003310 -0.002833
  6O   1dxz      -0.000680  0.000290 -0.013503  0.004359  0.000856 -0.000492
  6O   1dyz       0.002492  0.000143  0.013628  0.005692  0.000896  0.000222
  6O   1dx2y2     0.005879  0.000079 -0.005734  0.006217  0.005901  0.001094
  6O   1dxy       0.001336  0.000583 -0.004464 -0.010887 -0.004632 -0.007236
  7H   1s         0.004754 -0.065291  0.007331 -0.008920 -0.066803  0.110810
  7H   2s         0.046244 -0.062847  0.007690  0.046210 -0.758691  1.161899
  8H   1s         0.000018 -0.066669  0.003054  0.009447 -0.070002 -0.030672
  8H   2s         0.018579 -0.069084  0.019440  0.084527 -0.939131 -0.265983
  9H   1s        -0.045727  0.005142  0.004781  0.138772  0.018607  0.055902
  9H   2s        -0.064842  0.024940  0.029496  1.334452  0.260674  0.309897
                     24        25        26        27        28        29   
                   0.14064   0.17279   0.21671   0.22401   0.33149   0.38023
                   0.00000   0.00000   0.00000   0.00000   0.00000   0.00000
                  --------  --------  --------  --------  --------  --------
  0C   1s        -0.085898 -0.010729 -0.052270  0.094683  0.064335  0.037797
  0C   2s         0.119180 -0.007421  0.081877 -0.147485  0.010028 -0.077020
  0C   1pz        0.189839  0.382244 -0.070933  0.124209  0.001276  0.012712
  0C   1px        0.012617 -0.064892 -0.312322 -0.166477 -0.008055  0.161985
  0C   1py       -0.026850  0.112793  0.087461 -0.248057  0.055159 -0.108919
  0C   3s         1.332889  0.269450  0.901422 -1.352545 -1.879558 -0.529133
  0C   2pz        0.587734  1.061323 -0.353546  0.368626  0.477426  0.480383
  0C   2px       -0.014061 -0.152153 -1.365655 -0.824427 -1.035786  0.889394
  0C   2py       -0.366723  0.586284  0.448427 -0.803631 -1.154324 -1.334814
  0C   1dz2      -0.005551  0.006489  0.013179 -0.021198 -0.028163 -0.004356
  0C   1dxz      -0.004395 -0.001654 -0.016943 -0.001519 -0.009246 -0.007021
  0C   1dyz      -0.006250  0.005549  0.008139 -0.009698 -0.024130 -0.018412
  0C   1dx2y2    -0.012314  0.007582 -0.007993  0.024829  0.004561 -0.042773
  0C   1dxy      -0.001349  0.004650  0.036899  0.002223  0.035278  0.019421
  1N   1s         0.041770  0.016027  0.040603 -0.025877 -0.009701 -0.029146
  1N   2s        -0.059476 -0.015919 -0.053345  0.066505 -0.006786 -0.011005
  1N   1pz       -0.020778 -0.134231  0.024633 -0.005478 -0.060645  0.041772
  1N   1px        0.172938 -0.149714 -0.313409  0.180035 -0.023128 -0.018385
  1N   1py        0.209621 -0.153521  0.263900  0.021645 -0.009209 -0.099103
  1N   3s        -0.583170 -0.317922 -0.721352  0.197618  0.318198  1.085605
  1N   2pz       -0.080336 -0.431170  0.025885 -0.031356 -0.047732  0.130448
  1N   2px        0.419859 -0.392117 -0.869953  0.477660  0.272179  0.637603
  1N   2py        0.519252 -0.404188  0.745740  0.094300 -0.063024 -0.436478
  1N   1dz2      -0.004233 -0.004354  0.002374  0.005352 -0.006125 -0.015906
  1N   1dxz       0.012971  0.008923 -0.012050  0.006524  0.000989 -0.005079
  1N   1dyz       0.001643 -0.007936  0.001801 -0.002283  0.000547 -0.006887
  1N   1dx2y2     0.008350 -0.004984  0.001830 -0.028291 -0.013258  0.018305
  1N   1dxy      -0.002480  0.005326 -0.010267  0.002874 -0.003292  0.029943
  2C   1s         0.025902 -0.016533 -0.054414 -0.146065  0.009818 -0.015832
  2C   2s         0.005855  0.018658  0.108853  0.190067  0.105329 -0.111400
  2C   1pz       -0.067333 -0.150621  0.036752  0.084090  0.057381 -0.119162
  2C   1px        0.052692  0.003723 -0.078160  0.008766 -0.557641 -0.207200
  2C   1py        0.004593 -0.063221  0.021849 -0.260754 -0.107844  0.267590
  2C   3s        -0.418054  0.243587  1.017106  2.568950 -0.111976  1.405860
  2C   2pz       -0.197480 -0.362592  0.007240  0.140888  0.281360 -0.811597
  2C   2px       -0.103913  0.095512 -0.108862 -0.190502 -2.166283 -0.779927
  2C   2py        0.123477 -0.083296  0.151362 -0.455833 -0.619719  2.439450
  2C   1dz2      -0.010331  0.005791  0.004730  0.023959 -0.022943 -0.008731
  2C   1dxz      -0.006095 -0.011882  0.006491  0.000143 -0.003531  0.000272
  2C   1dyz      -0.003591  0.002433  0.017405  0.001869 -0.012388 -0.001324
  2C   1dx2y2     0.006782 -0.002217  0.029562 -0.035434  0.011436  0.011812
  2C   1dxy       0.003163 -0.005110 -0.011057  0.006442  0.000412 -0.005408
  3H   1s        -0.053040 -0.019267  0.040331 -0.056966 -0.072626 -0.017849
  3H   2s        -1.365331 -1.261352  0.114352 -0.191659 -0.118361 -0.284783
  4H   1s        -0.026923  0.024858  0.039913 -0.074582 -0.093719 -0.003558
  4H   2s        -0.399133  1.201077 -0.238835 -0.057728 -0.019611 -0.283398
  5O   1s        -0.002558  0.010044  0.032494  0.025379 -0.042472  0.098756
  5O   2s         0.001477 -0.017886 -0.059770 -0.046829  0.077841 -0.155716
  5O   1pz        0.043507  0.049486 -0.049087 -0.019345  0.015558 -0.050017
  5O   1px       -0.003531  0.004393  0.012365 -0.016624  0.198918  0.090080
  5O   1py       -0.006039  0.039212  0.136363  0.080072 -0.061387  0.106930
  5O   3s         0.027824 -0.134487 -0.454964 -0.368744  0.702592 -2.180922
  5O   2pz        0.069617  0.091916 -0.111763 -0.075987  0.104384 -0.312274
  5O   2px        0.005749 -0.011382  0.050730 -0.020283  0.490915  0.157099
  5O   2py       -0.023573  0.114602  0.259930  0.243801 -0.338037  0.876736
  5O   1dz2      -0.005527  0.002960  0.005875  0.012532 -0.014028  0.013098
  5O   1dxz       0.000289 -0.005486  0.001696  0.001674 -0.002912 -0.003350
  5O   1dyz      -0.002694  0.005618  0.003098  0.011954 -0.014876  0.025413
  5O   1dx2y2     0.002775  0.000530  0.002731  0.007524 -0.011533  0.035144
  5O   1dxy      -0.003723 -0.001837  0.004239 -0.001208  0.005457  0.005785
  6O   1s         0.005439  0.008368  0.018291  0.051620 -0.059629 -0.031061
  6O   2s        -0.018021 -0.012334 -0.014585 -0.127441  0.120166  0.034297
  6O   1pz        0.014074  0.099114 -0.017571  0.048227 -0.062294  0.009443
  6O   1px       -0.049937  0.012349 -0.079001  0.281503 -0.101766 -0.144357
  6O   1py        0.091126  0.022713  0.016447 -0.157395  0.200399 -0.006975
  6O   3s         0.011760 -0.126422 -0.299413 -0.555689  0.897599  0.803687
  6O   2pz       -0.012521  0.109683 -0.019830  0.092465 -0.219567  0.033679
  6O   2px       -0.119352  0.052341  0.029400  0.539701 -0.432413 -0.477918
  6O   2py        0.184875 -0.014280  0.015646 -0.308620  0.684879 -0.048300
  6O   1dz2      -0.003827  0.003873  0.004760  0.004431 -0.005117  0.002395
  6O   1dxz       0.003978  0.008022  0.002966  0.003291 -0.001987 -0.002267
  6O   1dyz      -0.004359 -0.004212  0.002138  0.006268  0.005652 -0.006904
  6O   1dx2y2     0.001091  0.001077 -0.010349  0.007883  0.025071 -0.017200
  6O   1dxy      -0.004472  0.000924 -0.011543 -0.008383  0.003011  0.012121
  7H   1s        -0.030907  0.038302 -0.038251  0.024790  0.057120 -0.036105
  7H   2s        -0.363806  0.809069 -0.655093 -0.127320  0.116945  0.117438
  8H   1s         0.095528 -0.046911 -0.049008 -0.045168 -0.058200  0.141534
  8H   2s         1.232358 -0.682902 -0.362941  0.303380 -0.144860 -0.114752
  9H   1s         0.061033  0.011759  0.093382 -0.047186 -0.051500  0.066571
  9H   2s         0.357305  0.016463  0.310649 -0.326258  0.560201  0.008704
                     30        31        32        33        34        35   
                   0.52048   0.54187   0.56051   0.61514   0.65928   0.68190
                   0.00000   0.00000   0.00000   0.00000   0.00000   0.00000
                  --------  --------  --------  --------  --------  --------
  0C   1s        -0.000282  0.002496  0.010432  0.026573 -0.004041  0.000300
  0C   2s        -0.155880 -0.067752 -0.214326 -0.261125 -0.063753 -0.056317
  0C   1pz        0.109285  0.214672  0.141115  0.134664 -0.127154  0.415802
  0C   1px       -0.556562  0.268961  0.607340 -0.441524  0.079580 -0.121314
  0C   1py       -0.244644 -0.126293 -0.618555 -0.584087 -0.063218  0.136725
  0C   3s         0.987990  0.266133  0.486684 -0.392619  0.307276  0.390565
  0C   2pz       -0.306182 -0.379174 -0.398961 -0.109539  0.393180 -1.202582
  0C   2px        0.905331 -0.388606 -1.228799  0.557283 -0.166922  0.399586
  0C   2py        0.722135  0.402783  1.579260  0.859240  0.044582 -0.378765
  0C   1dz2      -0.007332  0.031895  0.013022  0.037279 -0.019360  0.047254
  0C   1dxz      -0.004558  0.004017  0.006478 -0.002692 -0.019425  0.014621
  0C   1dyz      -0.003145 -0.035822  0.030136  0.029582  0.039466 -0.067827
  0C   1dx2y2     0.010150  0.030081  0.017299 -0.036072  0.004489  0.050947
  0C   1dxy       0.008015 -0.004143 -0.001282 -0.012912 -0.003914 -0.002886
  1N   1s         0.003537  0.003026 -0.020689  0.007097  0.003818  0.028298
  1N   2s        -0.017914 -0.000450  0.163451 -0.051531 -0.052141 -0.127979
  1N   1pz        0.019711  0.107070 -0.000509  0.038890  0.047475  0.531684
  1N   1px        0.061279  0.055520  0.110298  0.045559 -0.146634 -0.027724
  1N   1py        0.019985 -0.054680  0.056832  0.033650 -0.005224 -0.105435
  1N   3s        -0.072783 -0.362665 -1.009029  0.015736 -0.019243  0.004228
  1N   2pz        0.000046 -0.082394 -0.101367  0.042047 -0.046525 -0.370293
  1N   2px       -0.133574 -0.108306 -0.268047 -0.083607  0.148233 -0.056653
  1N   2py        0.019011 -0.010803  0.005511 -0.179351  0.192432  0.021381
  1N   1dz2      -0.001442  0.034423  0.067971 -0.002271 -0.008350 -0.004500
  1N   1dxz       0.010177 -0.027609 -0.005650 -0.006904 -0.004985 -0.013076
  1N   1dyz      -0.008405  0.019917  0.032140 -0.015240 -0.045763  0.043853
  1N   1dx2y2    -0.015707 -0.029784 -0.059501  0.021901  0.032079 -0.025167
  1N   1dxy      -0.034132  0.016019  0.080826  0.048441  0.045221 -0.012605
  2C   1s         0.025229  0.008086  0.016110 -0.039500  0.062159  0.015492
  2C   2s        -0.566582 -0.014961 -0.089637  0.293317 -0.536580  0.013469
  2C   1pz       -0.019338  0.791239 -0.316519  0.092815  0.374931 -0.192430
  2C   1px       -0.677086 -0.046974 -0.191400  0.236576  0.085572  0.046776
  2C   1py        0.153085  0.311516 -0.103977  0.007015 -0.715403 -0.374857
  2C   3s         0.239652  0.029763  0.094660 -1.336101  0.648932 -0.513388
  2C   2pz       -0.031592 -0.917837  0.693652 -0.078808 -0.591103  0.558764
  2C   2px        1.696960  0.340041  0.885153 -1.272626  0.109642 -0.116234
  2C   2py       -0.094346 -0.526282 -0.765767 -0.241705  0.776912  0.971101
  2C   1dz2       0.010451 -0.013882 -0.016071  0.073709 -0.058656 -0.004925
  2C   1dxz       0.034793  0.024725 -0.003949  0.012942 -0.005045  0.036480
  2C   1dyz      -0.001631  0.000386 -0.008477  0.047312 -0.085319 -0.019691
  2C   1dx2y2    -0.033951  0.006405  0.012502 -0.018390 -0.114068 -0.040572
  2C   1dxy      -0.094687  0.008580 -0.016682 -0.024978 -0.011880  0.011881
  3H   1s        -0.009932  0.248173  0.054185  0.163818 -0.125020  0.329299
  3H   2s         0.068825  0.095955  0.195201  0.101348 -0.052492  0.246343
  4H   1s        -0.022371 -0.196887  0.163723  0.232296  0.098489 -0.285765
  4H   2s         0.042534  0.047345  0.299849  0.152294  0.010233 -0.214536
  5O   1s         0.006061  0.000387 -0.014108 -0.002177 -0.024293 -0.002062
  5O   2s        -0.003663 -0.005909  0.021700 -0.049652  0.122514  0.015145
  5O   1pz        0.029118  0.082695 -0.024531 -0.034647  0.151034 -0.012206
  5O   1px        0.035570 -0.016715 -0.024623  0.254118  0.084947  0.046787
  5O   1py       -0.076285  0.033625 -0.000659  0.109947 -0.385608 -0.127519
  5O   3s        -0.144689  0.077727  0.504009  0.470797 -0.515533 -0.244846
  5O   2pz       -0.033482  0.097019  0.007379  0.090018  0.061215 -0.119093
  5O   2px       -0.209416 -0.040409 -0.082573  0.230482 -0.091699  0.011198
  5O   2py        0.110423  0.031633 -0.164296 -0.194618 -0.030857 -0.046293
  5O   1dz2       0.019385  0.028906 -0.012236 -0.011375  0.052352  0.001728
  5O   1dxz      -0.020903  0.005369 -0.008087 -0.005597 -0.008325  0.029566
  5O   1dyz       0.016801 -0.041728  0.016307 -0.026329  0.076178  0.036964
  5O   1dx2y2     0.017318  0.019034 -0.004673 -0.024662  0.122612  0.030582
  5O   1dxy       0.063441  0.008635  0.024327  0.003924 -0.003598  0.011127
  6O   1s        -0.005961  0.003297  0.012108 -0.021118  0.006735 -0.005914
  6O   2s         0.066611  0.020918  0.048339  0.040180 -0.032022  0.003403
  6O   1pz       -0.016887  0.099453 -0.066805 -0.002968  0.070027 -0.192663
  6O   1px       -0.172047 -0.078691 -0.218311  0.159154 -0.085607  0.033306
  6O   1py        0.058723  0.056928  0.054148  0.091915 -0.026372 -0.054557
  6O   3s        -0.760373 -0.249458 -0.739844  0.699362 -0.041412  0.305276
  6O   2pz        0.092291  0.091549 -0.022641 -0.078653  0.055812  0.019619
  6O   2px        0.168696  0.080717  0.298760 -0.275701  0.137532 -0.153338
  6O   2py       -0.281534 -0.001466 -0.062981  0.282817 -0.152506  0.012235
  6O   1dz2       0.068203 -0.004315  0.029572 -0.034842 -0.001052 -0.031023
  6O   1dxz      -0.038054 -0.030687  0.010668  0.013018 -0.013433  0.009150
  6O   1dyz       0.042176  0.020725 -0.004360 -0.002531  0.017654  0.007091
  6O   1dx2y2     0.002316 -0.025850 -0.030404  0.048404  0.060811  0.023016
  6O   1dxy       0.122430 -0.004565  0.014501 -0.060193  0.018175 -0.008142
  7H   1s        -0.013345  0.168921  0.139056 -0.107735 -0.279275  0.278754
  7H   2s        -0.029895 -0.013478 -0.228297  0.048444  0.081198 -0.069487
[...]
 6 O  py              0.1       1.9       0.1       0.0       0.5       0.0
 6 O  dz2             4.9       0.9       1.5       1.2       2.2       1.1
 6 O  dxz             0.3       0.7       0.0      15.6       0.0       1.7
 6 O  dyz             0.0       0.0       0.0      53.3       2.9      15.1
 6 O  dx2y2           0.4       1.0       1.9       0.8       6.2       0.2
 6 O  dxy             1.2       2.7       5.9       0.0       3.7       0.0
 7 H  s               0.0       0.4       0.2       0.0       0.9       0.0
 8 H  s               0.6       0.1       0.0       0.0       0.3       0.1
 9 H  s               0.0       1.0       0.0       0.0       0.1       0.0

                     60        61        62        63        64        65   
                   1.79824   1.82784   1.87576   1.90555   1.96763   1.99869
                   0.00000   0.00000   0.00000   0.00000   0.00000   0.00000
                  --------  --------  --------  --------  --------  --------
 0 C  s               0.2       1.4       0.3       0.7       0.3       2.1
 0 C  pz              0.0       0.2       4.4       0.1       0.0       0.3
 0 C  px              0.6       0.6       0.0       0.1       0.3       2.4
 0 C  py              0.4       0.1       0.1       1.0       2.3       0.2
 0 C  dz2             0.2       1.4       2.8       0.7       4.0       1.3
 0 C  dxz             0.1       0.1       0.0       0.7       6.6       5.0
 0 C  dyz             0.1       0.3       0.1       0.5       7.6       1.9
 0 C  dx2y2           0.6       2.7       1.7       2.5       1.4       6.4
 0 C  dxy             6.2       0.1       0.4       2.3       0.2      16.5
 1 N  s               0.3       0.0       2.2       1.9       3.7       5.2
 1 N  pz              0.1       0.0       1.3       0.1       0.5       0.0
 1 N  px              0.0       0.1       0.5       0.0       0.3       2.9
 1 N  py              0.4       0.1       0.3       0.1       0.3       0.5
 1 N  dz2             0.0       0.0       1.6       1.5       4.8       6.6
 1 N  dxz             0.1       0.5       4.9       1.7       3.0       0.5
 1 N  dyz             1.9       0.2      13.0       1.3      14.4       0.1
 1 N  dx2y2           0.7       0.2       0.9       2.7       0.8       8.2
 1 N  dxy             1.9       0.3       4.2       0.9       0.1       2.2
 2 C  s               0.8       4.1       0.0       1.5       0.5       0.6
 2 C  pz              0.0       0.1       1.4       0.7       0.2       0.0
 2 C  px              1.1       2.9       0.0       0.4       1.6       1.4
 2 C  py              0.9       2.0       1.0       4.9       1.9       0.4
 2 C  dz2             0.2       2.7       0.0       6.9       0.9       4.7
 2 C  dxz             0.1       0.3       5.1       0.7       0.5       0.2
 2 C  dyz             0.0       0.5       4.7       0.0       0.4       0.3
 2 C  dx2y2           0.3       0.3       1.2       4.9       2.5       2.1
 2 C  dxy            15.6       2.1       0.0       0.7       1.6       4.1
 3 H  s               0.0       0.5       2.8       0.2       0.0       0.1
 4 H  s               0.0       0.0       0.3       1.9       1.1       2.2
 5 O  s               7.8       4.2       2.9      14.0       1.4       2.6
 5 O  pz              0.0       0.0       0.5       0.3       0.1       0.1
 5 O  px              3.3       0.3       0.1       0.3       0.1       0.5
 5 O  py              0.3       0.3       0.4       2.6       0.7       0.0
 5 O  dz2            14.7       7.1       0.5       6.4      22.5       2.7
 5 O  dxz             2.0       1.6      18.5       3.9       0.1       1.0
 5 O  dyz             1.3       0.1       4.0       4.1       0.5       1.3
 5 O  dx2y2           0.4       6.2       3.3       1.7       3.2       3.7
 5 O  dxy            21.7       0.1       0.1       2.4       0.8       2.5
 6 O  s               1.0      13.3       0.2       1.6       1.0       2.3
 6 O  pz              0.0       0.0       0.5       0.2       0.0       0.0
 6 O  px              1.2       0.6       0.0       0.4       0.4       1.6
 6 O  py              2.2       0.8       0.1       1.6       0.6       0.3
 6 O  dz2             0.4      31.2       0.3       0.1       1.6       0.1
 6 O  dxz             0.0       0.0      11.7       3.4       0.7       0.0
 6 O  dyz             0.1       1.3       0.1       0.2       0.1       0.0
 6 O  dx2y2           1.4       8.2       0.0       6.1       0.2       2.0
 6 O  dxy             8.8       0.6       0.3       7.6       1.3       0.3
 7 H  s               0.0       0.3       0.9       1.2       0.9       0.1
 8 H  s               0.0       0.0       0.2       0.3       1.8       0.0
 9 H  s               0.6       0.2       0.0       0.0       0.0       0.0

                     66        67        68        69        70        71   
                   2.07422   2.07855   2.15692   2.32397   2.35328   2.38526
                   0.00000   0.00000   0.00000   0.00000   0.00000   0.00000
                  --------  --------  --------  --------  --------  --------
 0 C  s               0.5       0.0       1.5       0.4       3.6       0.1
 0 C  pz              0.2       1.5       0.8       0.0       0.0       0.0
 0 C  px              0.4       0.1       0.3       0.0       0.4       0.1
 0 C  py              0.4       0.7       1.1       0.0       1.1       0.0
 0 C  dz2             7.5       6.1      15.9       8.2      10.7       0.1
 0 C  dxz             3.5      11.3       0.0      14.7       0.6       2.4
 0 C  dyz             0.4      23.7       2.8      12.4       4.9       1.4
 0 C  dx2y2           8.0       0.1       7.8       2.6       6.5       0.0
 0 C  dxy             0.3       0.4       3.6       3.0      11.3       0.3
 1 N  s               2.0       0.3       4.2       1.5       0.3       0.0
 1 N  pz              1.0       0.1       0.2       0.3       0.1       0.2
 1 N  px              0.4       0.5       0.1       0.5       0.1       0.9
 1 N  py              0.1       0.9       2.1       0.1       0.4       0.9
 1 N  dz2             0.0       0.4      10.3      19.0       0.2       3.0
 1 N  dxz             0.1      14.1       2.5      10.8       0.2       7.5
 1 N  dyz            15.7       0.0       0.9       2.4       2.9       0.5
 1 N  dx2y2           1.7       0.1       3.5       6.5       0.1       6.3
 1 N  dxy             4.4       2.1      21.4       0.8       2.9       0.2
 2 C  s               2.8       0.1       0.1       0.0       2.1       0.1
 2 C  pz              0.1       1.8       0.1       0.1       0.2       1.1
 2 C  px              0.2       0.0       0.9       0.1       3.7       0.1
 2 C  py              0.3       0.1       0.2       0.1       1.1       0.0
 2 C  dz2            15.3       0.6       0.9       0.9       5.1       0.0
 2 C  dxz             0.1       0.2       0.0       1.3       0.1      31.1
 2 C  dyz             1.1       0.4       0.0       1.0       0.0       0.9
 2 C  dx2y2           0.2       0.1       0.7       0.0       1.6       0.1
 2 C  dxy             0.4       0.0       0.0       0.1       0.3       0.3
 3 H  s               0.7       3.8       1.4       2.2       0.1       0.0
 4 H  s               1.3       3.9       0.1       2.0       0.9       0.1
 5 O  s               0.4       0.0       0.8       0.1       0.6       0.0
 5 O  pz              0.0       0.5       0.1       0.1       0.0       0.3
 5 O  px              0.1       0.0       0.3       0.0       0.2       0.0
 5 O  py              0.9       0.0       0.2       0.1       0.1       0.0
 5 O  dz2             4.8       1.3       0.1       0.1       0.0       0.0
 5 O  dxz             0.0       0.2       0.3       0.2       0.0       6.5
 5 O  dyz             0.6       7.3       0.2       1.6       0.6       4.6
 5 O  dx2y2           6.2       0.1       0.0       0.0       1.6       0.1
 5 O  dxy             5.7       0.0       3.1       0.5       5.8       0.1
 6 O  s               0.6       0.0       0.0       0.3       8.8       0.0
 6 O  pz              0.0       0.6       0.0       0.0       0.0       1.1
 6 O  px              0.2       0.0       0.0       0.1       1.1       0.0
 6 O  py              0.3       0.0       0.0       0.1       0.5       0.0
 6 O  dz2             2.6       0.1       2.3       0.1       7.3       0.0
 6 O  dxz             0.6      12.2       0.0       1.1       0.1      14.0
 6 O  dyz             0.4       1.0       0.0       0.2       1.0       8.8
 6 O  dx2y2           3.6       0.7       1.5       0.1       5.1       0.5
 6 O  dxy             0.4       0.7       1.8       0.3       0.0       0.1
 7 H  s               0.5       0.2       3.0       3.7       0.4       2.8
 8 H  s               1.6       1.8       2.1       0.0       0.3       3.1
 9 H  s               1.3       0.1       0.4       0.2       4.9       0.0

                     72        73        74        75        76        77   
                   2.48360   2.53667   2.60096   2.64024   2.74278   2.85329
                   0.00000   0.00000   0.00000   0.00000   0.00000   0.00000
                  --------  --------  --------  --------  --------  --------
 0 C  s               1.6       0.2       1.2       0.0       1.2       0.7
 0 C  pz              0.2       0.2       0.2       0.0       0.2       0.0
 0 C  px              0.0       0.4       2.9       0.3       0.3       0.8
 0 C  py              0.7       0.1       0.8       0.1       0.6       0.0
 0 C  dz2             2.5       7.5       0.1       0.2       4.1       0.2
 0 C  dxz             0.0       1.0       1.0       3.6       0.6       0.9
 0 C  dyz             0.7       8.3       2.2       1.5       0.5       0.1
 0 C  dx2y2           1.2       0.5       0.8       0.2       6.7       7.8
 0 C  dxy             0.6       0.1      11.9       0.3       0.2       7.2
 1 N  s               0.2       0.0       2.5       0.2       1.4       0.5
 1 N  pz              0.0       0.4       0.1       0.0       0.0       0.1
 1 N  px              0.1       2.1       2.1       0.2       0.7       0.5
 1 N  py              0.0       0.6       1.3       0.1       0.4       0.6
 1 N  dz2             0.2       5.7       1.3       0.5       2.4       0.1
 1 N  dxz             0.6      20.8       2.2       0.1       1.8       1.2
 1 N  dyz             0.0       1.1       1.3       0.0       0.5       0.6
 1 N  dx2y2           1.5      12.6      17.9       1.0       0.0       0.0
 1 N  dxy             0.4       0.5      11.7       1.0       3.9       5.1
 2 C  s               2.2       0.1       1.0       0.3       4.5       6.6
 2 C  pz              0.0       0.1       0.1       0.7       0.0       0.0
 2 C  px              2.1       0.2       0.9       0.1       3.6       0.6
 2 C  py              0.6       0.0       0.4       0.1       1.3       0.1
 2 C  dz2            12.2       1.1       2.1       5.9       5.6       0.7
 2 C  dxz             0.0       8.9       0.0       2.4       0.1       0.1
 2 C  dyz             0.4       0.0       9.8      28.2       3.0       1.0
 2 C  dx2y2           2.2       1.9       4.3       5.8       0.0      25.4
 2 C  dxy             1.0       0.4       0.4       0.0       2.3       0.0
 3 H  s               0.1       1.5       0.0       0.1       0.3       0.0
 4 H  s               0.0       1.1       0.0       0.1       0.3       0.0
 5 O  s               0.1       0.7       2.6       1.3       1.2       9.1
 5 O  pz              0.0       0.0       0.3       1.5       0.1       0.1
 5 O  px              0.7       0.1       0.1       0.0       0.2       0.0
 5 O  py              0.1       0.5       1.2       0.7       0.6       2.4
 5 O  dz2             1.7       0.3       0.0       1.8       0.1       2.6
 5 O  dxz             0.1       1.3       0.1       0.1       0.1       0.0
 5 O  dyz             0.0       0.4       5.6      29.2       1.4       1.1
 5 O  dx2y2           0.1       0.0       0.1       1.0       0.1       4.8
 5 O  dxy             7.3       0.5       1.5       0.2       4.5       0.0
 6 O  s               1.7       0.9       0.6       1.4      16.9       1.2
 6 O  pz              0.0       0.2       0.0       0.2       0.0       0.0
 6 O  px              0.2       0.3       0.3       0.3       3.4       0.5
 6 O  py              4.7       0.0       0.2       0.0       1.8       2.0
 6 O  dz2             9.1       2.0       1.3       1.6       8.1       0.4
 6 O  dxz             0.2       2.5       1.0       6.0       0.1       0.3
 6 O  dyz             0.8       1.4       0.0       0.3       0.1       0.0
 6 O  dx2y2          20.9       0.0       2.3       1.0       3.2       0.2
 6 O  dxy             8.3       0.0       0.1       0.1      11.1      13.9
 7 H  s               0.1       3.9       1.9       0.1       0.0       0.1
 8 H  s               0.0       7.5       0.1       0.0       0.2       0.2
 9 H  s              12.5       0.3       0.0       0.1       0.1       0.2

                     78        79   
                   2.98958   3.07927
                   0.00000   0.00000
                  --------  --------
 0 C  s               0.1       0.4
 0 C  px              0.0       1.2
 0 C  dz2             0.1       0.4
 0 C  dxz             0.0       0.6
 0 C  dx2y2           2.9       1.9
 0 C  dxy             0.1       5.0
 1 N  s               0.1       0.2
 1 N  px              0.0       0.2
 1 N  dxz             0.1       0.2
 1 N  dyz             0.2       0.0
 1 N  dx2y2           0.2       1.0
 1 N  dxy             0.4       0.2
 2 C  s               7.2       1.0
 2 C  pz              0.1       0.0
 2 C  px              0.3       0.9
 2 C  py             10.3       0.2
 2 C  dz2             0.6       0.1
 2 C  dxz             0.0       0.8
 2 C  dyz             0.6       0.0
 2 C  dx2y2          11.3       1.1
 2 C  dxy             1.0      43.1
 5 O  s              12.7       0.1
 5 O  px              0.1       1.7
 5 O  py              6.8       0.2
 5 O  dz2             8.5       0.1
 5 O  dxz             0.0       0.2
 5 O  dyz             1.3       0.1
 5 O  dx2y2          29.1       0.8
 5 O  dxy             0.7      18.7
 6 O  s               0.6       0.7
 6 O  px              0.3       1.6
 6 O  py              0.9       0.2
 6 O  dz2             0.2       0.6
 6 O  dx2y2           0.1      13.8
 6 O  dxy             2.5       1.1
 9 H  s               0.0       0.9


                      *****************************
                      * MAYER POPULATION ANALYSIS *
                      *****************************

  NA   - Mulliken gross atomic population
  ZA   - Total nuclear charge
  QA   - Mulliken gross atomic charge
  VA   - Mayer's total valence
  BVA  - Mayer's bonded valence
  FA   - Mayer's free valence

  ATOM       NA         ZA         QA         VA         BVA        FA
  0 C      6.2373     6.0000    -0.2373     3.8364     3.8364     0.0000
  1 N      7.7219     7.0000    -0.7219     2.7366     2.7366     0.0000
  2 C      5.4366     6.0000     0.5634     3.9738     3.9738    -0.0000
  3 H      0.8439     1.0000     0.1561     0.9194     0.9194     0.0000
  4 H      0.8465     1.0000     0.1535     0.9229     0.9229     0.0000
  5 O      8.3994     8.0000    -0.3994     2.1469     2.1469     0.0000
  6 O      8.5620     8.0000    -0.5620     1.9247     1.9247    -0.0000
  7 H      0.6721     1.0000     0.3279     0.8710     0.8710     0.0000
  8 H      0.6972     1.0000     0.3028     0.8630     0.8630    -0.0000
  9 H      0.5831     1.0000     0.4169     0.7984     0.7984     0.0000

  Mayer bond orders larger than 0.1
B(  0-C ,  1-N ) :   1.0379 B(  0-C ,  2-C ) :   0.9480 B(  0-C ,  3-H ) :   0.9100 
B(  0-C ,  4-H ) :   0.9145 B(  1-N ,  7-H ) :   0.8223 B(  1-N ,  8-H ) :   0.8611 
B(  2-C ,  5-O ) :   1.9602 B(  2-C ,  6-O ) :   1.0534 B(  6-O ,  9-H ) :   0.7636 


-------
TIMINGS
-------

Total SCF time: 0 days 0 hours 0 min 6 sec 

Total time                  ....       6.634 sec
Sum of individual times     ....       6.375 sec  ( 96.1%)

Fock matrix formation       ....       5.345 sec  ( 80.6%)
  XC integration            ....       1.351 sec  ( 25.3% of F)
    Basis function eval.    ....       0.492 sec  ( 36.4% of XC)
    Density eval.           ....       0.367 sec  ( 27.2% of XC)
    XC-Functional eval.     ....       0.138 sec  ( 10.2% of XC)
    XC-Potential eval.      ....       0.274 sec  ( 20.3% of XC)
Diagonalization             ....       0.001 sec  (  0.0%)
Density matrix formation    ....       0.000 sec  (  0.0%)
Population analysis         ....       0.029 sec  (  0.4%)
Initial guess               ....       0.001 sec  (  0.0%)
Orbital Transformation      ....       0.000 sec  (  0.0%)
Orbital Orthonormalization  ....       0.000 sec  (  0.0%)
DIIS solution               ....       0.000 sec  (  0.0%)
SOSCF solution              ....       0.004 sec  (  0.1%)
Grid generation             ....       0.993 sec  ( 15.0%)

-------------------------   --------------------
FINAL SINGLE POINT ENERGY      -284.256974188933
-------------------------   --------------------

                                *** OPTIMIZATION RUN DONE ***

                            ***************************************
                            *     ORCA property calculations      *
                            ***************************************

                                    ---------------------
                                    Active property flags
                                    ---------------------
   (+) Dipole Moment


------------------------------------------------------------------------------
                       ORCA ELECTRIC PROPERTIES CALCULATION
------------------------------------------------------------------------------

Dipole Moment Calculation                       ... on
Quadrupole Moment Calculation                   ... off
Polarizability Calculation                      ... off
GBWName                                         ... /Users/lailaal-madhagi/Desktop/Testing_XAS_Analysis_code/Glycine//Results_dir_Glycine_geom_element_O_2019-11-10_21-45-36//GTE1_Glycine_geom_2019-11-10_21-45-46//opt.gbw
Electron density file                           ... /Users/lailaal-madhagi/Desktop/Testing_XAS_Analysis_code/Glycine//Results_dir_Glycine_geom_element_O_2019-11-10_21-45-36//GTE1_Glycine_geom_2019-11-10_21-45-46//opt.scfp.tmp
The origin for moment calculation is the CENTER OF MASS  = (-5.613764,  1.613492 -0.083178)

-------------
DIPOLE MOMENT
-------------
                                X             Y             Z
Electronic contribution:      3.64114       1.95452      -0.52304
Nuclear contribution   :     -4.02213      -3.27818       1.27437
                        -----------------------------------------
Total Dipole Moment    :     -0.38099      -1.32367       0.75134
                        -----------------------------------------
Magnitude (a.u.)       :      1.56900
Magnitude (Debye)      :      3.98807



--------------------
Rotational spectrum 
--------------------
 
Rotational constants in cm-1:     0.339366     0.132273     0.097892 
Rotational constants in MHz : 10173.947635  3965.437799  2934.735128 

 Dipole components along the rotational axes: 
x,y,z [a.u.] :    -0.386370    -1.412518     0.563261 
x,y,z [Debye]:    -0.982075    -3.590335     1.431697 

 

Timings for individual modules:

Sum of individual times         ...      266.304 sec (=   4.438 min)
GTO integral calculation        ...        7.846 sec (=   0.131 min)   2.9 %
SCF iterations                  ...      169.023 sec (=   2.817 min)  63.5 %
SCF Gradient evaluation         ...       87.493 sec (=   1.458 min)  32.9 %
Geometry relaxation             ...        1.941 sec (=   0.032 min)   0.7 %
                             ****ORCA TERMINATED NORMALLY****
TOTAL RUN TIME: 0 days 0 hours 4 minutes 27 seconds 669 msec
