
                                 *****************
                                 * O   R   C   A *
                                 *****************

           --- An Ab Initio, DFT and Semiempirical electronic structure package ---

                  #######################################################
                  #                        -***-                        #
                  #          Department of theory and spectroscopy      #
                  #               Directorship: Frank Neese             #
                  #        Max Planck Institute fuer Kohlenforschung    #
                  #                Kaiser Wilhelm Platz 1               #
                  #                 D-45470 Muelheim/Ruhr               #
                  #                      Germany                        #
                  #                                                     #
                  #                  All rights reserved                #
                  #                        -***-                        #
                  #######################################################


                         Program Version 4.1.0  - RELEASE  -


 With contributions from (in alphabetic order):
   Daniel Aravena         : Magnetic Properties
   Michael Atanasov       : Ab Initio Ligand Field Theory
   Alexander A. Auer      : GIAO ZORA
   Ute Becker             : Parallelization
   Giovanni Bistoni       : ED, Open-shell LED
   Martin Brehm           : Molecular dynamics
   Dmytro Bykov           : SCF Hessian
   Vijay G. Chilkuri      : MRCI spin determinant printing
   Dipayan Datta          : RHF DLPNO-CCSD density
   Achintya Kumar Dutta   : EOM-CC, STEOM-CC
   Dmitry Ganyushin       : Spin-Orbit,Spin-Spin,Magnetic field MRCI
   Miquel Garcia          : C-PCM Hessian
   Yang Guo               : DLPNO-NEVPT2, CIM, IAO-localization
   Andreas Hansen         : Spin unrestricted coupled pair/coupled cluster methods
   Benjamin Helmich-Paris : CASSCF linear response (MC-RPA)
   Lee Huntington         : MR-EOM, pCC
   Robert Izsak           : Overlap fitted RIJCOSX, COSX-SCS-MP3, EOM
   Christian Kollmar      : KDIIS, OOCD, Brueckner-CCSD(T), CCSD density
   Simone Kossmann        : Meta GGA functionals, TD-DFT gradient, OOMP2, MP2 Hessian
   Martin Krupicka        : AUTO-CI
   Lucas Lang             : DCDCAS
   Dagmar Lenk            : GEPOL surface, SMD
   Dimitrios Liakos       : Extrapolation schemes; parallel MDCI
   Dimitrios Manganas     : ROCIS; embedding schemes
   Dimitrios Pantazis     : SARC Basis sets
   Taras Petrenko         : DFT Hessian,TD-DFT gradient, ASA, ECA, R-Raman, ABS, FL, XAS/XES, NRVS
   Peter Pinski           : DLPNO-MP2, DLPNO-MP2 Gradient
   Christoph Reimann      : Effective Core Potentials
   Marius Retegan         : Local ZFS, SOC
   Christoph Riplinger    : Optimizer, TS searches, QM/MM, DLPNO-CCSD(T), (RO)-DLPNO pert. Triples
   Tobias Risthaus        : Range-separated hybrids, TD-DFT gradient, RPA, STAB
   Michael Roemelt        : Restricted open shell CIS
   Masaaki Saitow         : Open-shell DLPNO
   Barbara Sandhoefer     : DKH picture change effects
   Avijit Sen             : IP-ROCIS
   Kantharuban Sivalingam : CASSCF convergence, NEVPT2, FIC-MRCI
   Bernardo de Souza      : ESD, SOC TD-DFT
   Georgi Stoychev        : AutoAux, RI-MP2 NMR
   Willem Van den Heuvel  : Paramagnetic NMR
   Boris Wezisla          : Elementary symmetry handling
   Frank Wennmohs         : Technical directorship


 We gratefully acknowledge several colleagues who have allowed us to
 interface, adapt or use parts of their codes:
   Stefan Grimme, W. Hujo, H. Kruse,             : VdW corrections, initial TS optimization,
                  C. Bannwarth                     DFT functionals, gCP, sTDA/sTD-DF
   Ed Valeev                                     : LibInt (2-el integral package), F12 methods
   Garnet Chan, S. Sharma, J. Yang, R. Olivares  : DMRG
   Ulf Ekstrom                                   : XCFun DFT Library
   Mihaly Kallay                                 : mrcc  (arbitrary order and MRCC methods)
   Andreas Klamt, Michael Diedenhofen            : otool_cosmo (COSMO solvation model)
   Jiri Pittner, Ondrej Demel                    : Mk-CCSD
   Frank Weinhold                                : gennbo (NPA and NBO analysis)
   Christopher J. Cramer and Donald G. Truhlar   : smd solvation model
   Lars Goerigk                                  : TD-DFT with DH, B97 family of functionals
   V. Asgeirsson, H. Jonsson                     : NEB implementation
   FAccTs GmbH                                   : IRC, NEB, NEB-TS, Multilevel


 Your calculation uses the libint2 library for the computation of 2-el integrals
 For citations please refer to: http://libint.valeyev.net

 This ORCA versions uses:
   CBLAS   interface :  Fast vector & matrix operations
   LAPACKE interface :  Fast linear algebra routines
   SCALAPACK package :  Parallel linear algebra routines




***************************************
The coordinates will be read from file: /Users/lailaal-madhagi/Desktop/Testing_XAS_Analysis_code/Alanine//Results_dir_Alanine_geom_element_O_2019-11-03_23-33-49//GTE1_Alanine_geom_2019-11-03_23-34-01//opt.xyz
***************************************


----- Orbital basis set information -----
Your calculation utilizes the basis: 6-31G*
   H-He, Li-Ne : W. J. Hehre, R. Ditchfield and J.A. Pople, J. Chem. Phys. 56, 2257 (1972).
                 Note: He and Ne are unpublished basis sets taken from the Gaussian program.
                 Note: Li and B from J. D. Dill and J. A. Pople, J. Chem. Phys. 62, 2921 (1975).
   Na - Ar     : M. M. Francl, W. J. Pietro, W. J. Hehre, J. S. Binkley, M. S. Gordon, 
                 D. J. DeFrees and J. A. Pople, J. Chem. Phys. 77, 3654 (1982).
   K - Zn      : V. A. Rassolov, J. A. Pople, M. A. Ratner, and T. L. Windus, J. Chem. Phys. 109, 1223 (1998).

================================================================================
                                        WARNINGS
                       Please study these warnings very carefully!
================================================================================

INFO   : Checking CIS options ...

WARNING: CIS/ROCIS methods need fully converged wavefunctions
  ===> : Setting SCFConvForced true
         You can overwrite this default with %scf ConvForced false 


INFO   : the flag for use of LIBINT has been found!

================================================================================
                                       INPUT FILE
================================================================================
NAME = /Users/lailaal-madhagi/Desktop/Testing_XAS_Analysis_code/Alanine//Results_dir_Alanine_geom_element_O_2019-11-03_23-33-49//GTE1_Alanine_geom_2019-11-03_23-34-01//TDDFT_O-edge.inp
|  1> #This is O K-edge calculation 
|  2> ! B3LYP 6-31G* TIGHTSCF Grid3 FinalGrid5 
|  3> !NormalPrint 
|  4> %output 
|  5> Print[P_Basis] 2 
|  6> Print[P_MOS] 1 
|  7> end 
|  8> 
|  9> %tddft 
| 10> orbwin[0]=0,1,-1,-1 
| 11> nroots=20 
| 12> maxdim=200 
| 13> end 
| 14> *xyzfile 0 1 /Users/lailaal-madhagi/Desktop/Testing_XAS_Analysis_code/Alanine//Results_dir_Alanine_geom_element_O_2019-11-03_23-33-49//GTE1_Alanine_geom_2019-11-03_23-34-01//opt.xyz                           ****END OF INPUT****
================================================================================

                       ****************************
                       * Single Point Calculation *
                       ****************************

---------------------------------
CARTESIAN COORDINATES (ANGSTROEM)
---------------------------------
  C     -3.556639    1.132733   -0.313827
  C     -2.394142    0.117425   -0.204508
  H     -4.462104    0.620415   -0.659911
  H     -3.326808    1.934595   -1.024896
  H     -3.767091    1.580855    0.664475
  C     -1.152792    0.858620    0.269875
  N     -2.623671   -1.000697    0.706442
  H     -2.185354   -0.276112   -1.206931
  O     -0.518365    1.491573   -0.744004
  O     -0.787528    0.933322    1.423177
  H      0.224756    1.978329   -0.338218
  H     -3.577369   -1.342032    0.604431
  H     -2.512874   -0.672336    1.664795

----------------------------
CARTESIAN COORDINATES (A.U.)
----------------------------
  NO LB      ZA    FRAG     MASS         X           Y           Z
   0 C     6.0000    0    12.011   -6.721073    2.140556   -0.593047
   1 C     6.0000    0    12.011   -4.524272    0.221900   -0.386464
   2 H     1.0000    0     1.008   -8.432155    1.172414   -1.247051
   3 H     1.0000    0     1.008   -6.286755    3.655854   -1.936774
   4 H     1.0000    0     1.008   -7.118770    2.987383    1.255677
   5 C     6.0000    0    12.011   -2.178461    1.622557    0.509990
   6 N     7.0000    0    14.007   -4.958019   -1.891043    1.334982
   7 H     1.0000    0     1.008   -4.129721   -0.521777   -2.280768
   8 O     8.0000    0    15.999   -0.979568    2.818665   -1.405963
   9 O     8.0000    0    15.999   -1.488213    1.763723    2.689414
  10 H     1.0000    0     1.008    0.424727    3.738500   -0.639139
  11 H     1.0000    0     1.008   -6.760247   -2.536073    1.142208
  12 H     1.0000    0     1.008   -4.748643   -1.270530    3.146007

--------------------------------
INTERNAL COORDINATES (ANGSTROEM)
--------------------------------
 C      0   0   0     0.000000000000     0.00000000     0.00000000
 C      1   0   0     1.547320801989     0.00000000     0.00000000
 H      1   2   0     1.096408575075   109.64235000     0.00000000
 H      1   2   3     1.096094846734   111.61269502   240.28336816
 H      1   2   3     1.096439384391   110.44746729   119.27559618
 C      2   1   3     1.521630712577   108.37953881   179.70439206
 N      2   1   3     1.460379671220   115.36468650   300.71398285
 H      2   1   3     1.096957399599   108.29071847    63.11325501
 O      6   2   1     1.353172840973   112.13196609   278.26799349
 O      6   2   1     1.212065379480   124.92566094    95.35934563
 H      9   6   2     0.976638224139   106.17418622   176.61738495
 H      7   2   1     1.018064661230   109.96416484    41.39298538
 H      7   2   1     1.019086595896   108.83333226   283.63391131

---------------------------
INTERNAL COORDINATES (A.U.)
---------------------------
 C      0   0   0     0.000000000000     0.00000000     0.00000000
 C      1   0   0     2.924012557078     0.00000000     0.00000000
 H      1   2   0     2.071911937775   109.64235000     0.00000000
 H      1   2   3     2.071319077130   111.61269502   240.28336816
 H      1   2   3     2.071970158944   110.44746729   119.27559618
 C      2   1   3     2.875465323733   108.37953881   179.70439206
 N      2   1   3     2.759717630152   115.36468650   300.71398285
 H      2   1   3     2.072949065821   108.29071847    63.11325501
 O      6   2   1     2.557126081299   112.13196609   278.26799349
 O      6   2   1     2.290471623624   124.92566094    95.35934563
 H      9   6   2     1.845578775542   106.17418622   176.61738495
 H      7   2   1     1.923863396348   109.96416484    41.39298538
 H      7   2   1     1.925794572994   108.83333226   283.63391131

---------------------
BASIS SET INFORMATION
---------------------
There are 4 groups of distinct atoms

 Group   1 Type C   : 10s4p1d contracted to 3s2p1d pattern {631/31/1}
 Group   2 Type H   : 4s contracted to 2s pattern {31}
 Group   3 Type N   : 10s4p1d contracted to 3s2p1d pattern {631/31/1}
 Group   4 Type O   : 10s4p1d contracted to 3s2p1d pattern {631/31/1}

Atom   0C    basis set group =>   1
Atom   1C    basis set group =>   1
Atom   2H    basis set group =>   2
Atom   3H    basis set group =>   2
Atom   4H    basis set group =>   2
Atom   5C    basis set group =>   1
Atom   6N    basis set group =>   3
Atom   7H    basis set group =>   2
Atom   8O    basis set group =>   4
Atom   9O    basis set group =>   4
Atom  10H    basis set group =>   2
Atom  11H    basis set group =>   2
Atom  12H    basis set group =>   2

-------------------------
BASIS SET IN INPUT FORMAT
-------------------------

 # Basis set for element : H 
 NewGTO H 
 S 3 
   1      18.7311370000      0.0334945995
   2       2.8253937000      0.2347269467
   3       0.6401217000      0.8137573184
 S 1 
   1       0.1612778000      1.0000000000
  end;

 # Basis set for element : C 
 NewGTO C 
 S 6 
   1    3047.5249000000      0.0018347002
   2     457.3695100000      0.0140373012
   3     103.9486900000      0.0688426061
   4      29.2101550000      0.2321844206
   5       9.2866630000      0.4679413416
   6       3.1639270000      0.3623120322
 S 3 
   1       7.8682724000     -0.1193324086
   2       1.8812885000     -0.1608542116
   3       0.5442493000      1.1434564826
 P 3 
   1       7.8682724000      0.0689990956
   2       1.8812885000      0.3164239798
   3       0.5442493000      0.7443082524
 S 1 
   1       0.1687144000      1.0000000000
 P 1 
   1       0.1687144000      1.0000000000
 D 1 
   1       0.8000000000      1.0000000000
  end;

 # Basis set for element : N 
 NewGTO N 
 S 6 
   1    4173.5110000000      0.0018347994
   2     627.4579000000      0.0139949958
   3     142.9021000000      0.0685869792
   4      40.2343300000      0.2322409295
   5      12.8202100000      0.4690698576
   6       4.3904370000      0.3604548906
 S 3 
   1      11.6263580000     -0.1149610229
   2       2.7162800000     -0.1691180337
   3       0.7722180000      1.1458522281
 P 3 
   1      11.6263580000      0.0675800232
   2       2.7162800000      0.3239071114
   3       0.7722180000      0.7408952549
 S 1 
   1       0.2120313000      1.0000000000
 P 1 
   1       0.2120313000      1.0000000000
 D 1 
   1       0.8000000000      1.0000000000
  end;

 # Basis set for element : O 
 NewGTO O 
 S 6 
   1    5484.6717000000      0.0018310998
   2     825.2349500000      0.0139500985
   3     188.0469600000      0.0684450927
   4      52.9645000000      0.2327142753
   5      16.8975700000      0.4701929501
   6       5.7996353000      0.3585208619
 S 3 
   1      15.5396160000     -0.1107775038
   2       3.5999336000     -0.1480263051
   3       1.0137618000      1.1307670390
 P 3 
   1      15.5396160000      0.0708742995
   2       3.5999336000      0.3397527978
   3       1.0137618000      0.7271585953
 S 1 
   1       0.2700058000      1.0000000000
 P 1 
   1       0.2700058000      1.0000000000
 D 1 
   1       0.8000000000      1.0000000000
  end;

------------------------------------------------------------------------------
                           ORCA GTO INTEGRAL CALCULATION
------------------------------------------------------------------------------

                         BASIS SET STATISTICS AND STARTUP INFO

 # of primitive gaussian shells          ...  118
 # of primitive gaussian functions       ...  190
 # of contracted shells                  ...   50
 # of contracted basis functions         ...   98
 Highest angular momentum                ...    2
 Maximum contraction depth               ...    6
 Integral package used                   ... LIBINT
 Integral threshhold            Thresh   ...  2.500e-11
 Primitive cut-off              TCut     ...  2.500e-12


------------------------------ INTEGRAL EVALUATION ----------------------------


 * One electron integrals 
 Pre-screening matrix                    ... done
 Shell pair data                         ... done (   0.002 sec)

-------------------------------------------------------------------------------
                                 ORCA SCF
-------------------------------------------------------------------------------

------------
SCF SETTINGS
------------
Hamiltonian:
 Density Functional     Method          .... DFT(GTOs)
 Exchange Functional    Exchange        .... B88
   X-Alpha parameter    XAlpha          ....  0.666667
   Becke's b parameter  XBeta           ....  0.004200
 Correlation Functional Correlation     .... LYP
 LDA part of GGA corr.  LDAOpt          .... VWN-5
 Gradients option       PostSCFGGA      .... off
 Hybrid DFT is turned on
   Fraction HF Exchange ScalHFX         ....  0.200000
   Scaling of DF-GGA-X  ScalDFX         ....  0.720000
   Scaling of DF-GGA-C  ScalDFC         ....  0.810000
   Scaling of DF-LDA-C  ScalLDAC        ....  1.000000
   Perturbative correction              ....  0.000000
   Density functional embedding theory  .... OFF
   NL short-range parameter             ....  4.800000


General Settings:
 Integral files         IntName         .... /Users/lailaal-madhagi/Desktop/Testing_XAS_Analysis_code/Alanine//Results_dir_Alanine_geom_element_O_2019-11-03_23-33-49//GTE1_Alanine_geom_2019-11-03_23-34-01//TDDFT_O-edge
 Hartree-Fock type      HFTyp           .... RHF
 Total Charge           Charge          ....    0
 Multiplicity           Mult            ....    1
 Number of Electrons    NEL             ....   48
 Basis Dimension        Dim             ....   98
 Nuclear Repulsion      ENuc            ....    248.8866956652 Eh

Convergence Acceleration:
 DIIS                   CNVDIIS         .... on
   Start iteration      DIISMaxIt       ....    12
   Startup error        DIISStart       ....  0.200000
   # of expansion vecs  DIISMaxEq       ....     5
   Bias factor          DIISBfac        ....   1.050
   Max. coefficient     DIISMaxC        ....  10.000
 Newton-Raphson         CNVNR           .... off
 SOSCF                  CNVSOSCF        .... on
   Start iteration      SOSCFMaxIt      ....   150
   Startup grad/error   SOSCFStart      ....  0.003300
 Level Shifting         CNVShift        .... on
   Level shift para.    LevelShift      ....    0.2500
   Turn off err/grad.   ShiftErr        ....    0.0010
 Zerner damping         CNVZerner       .... off
 Static damping         CNVDamp         .... on
   Fraction old density DampFac         ....    0.7000
   Max. Damping (<1)    DampMax         ....    0.9800
   Min. Damping (>=0)   DampMin         ....    0.0000
   Turn off err/grad.   DampErr         ....    0.1000
 Fernandez-Rico         CNVRico         .... off

SCF Procedure:
 Maximum # iterations   MaxIter         ....   125
 SCF integral mode      SCFMode         .... Direct
   Integral package                     .... LIBINT
 Reset frequency        DirectResetFreq ....    20
 Integral Threshold     Thresh          ....  2.500e-11 Eh
 Primitive CutOff       TCut            ....  2.500e-12 Eh

Convergence Tolerance:
 Convergence Check Mode ConvCheckMode   .... Total+1el-Energy
 Convergence forced     ConvForced      .... 1
 Energy Change          TolE            ....  1.000e-08 Eh
 1-El. energy change                    ....  1.000e-05 Eh
 Orbital Gradient       TolG            ....  1.000e-05
 Orbital Rotation angle TolX            ....  1.000e-05
 DIIS Error             TolErr          ....  5.000e-07


Diagonalization of the overlap matrix:
Smallest eigenvalue                        ... 3.942e-03
Time for diagonalization                   ...    0.003 sec
Threshold for overlap eigenvalues          ... 1.000e-08
Number of eigenvalues below threshold      ... 0
Time for construction of square roots      ...    0.001 sec
Total time needed                          ...    0.004 sec

-------------------
DFT GRID GENERATION
-------------------

General Integration Accuracy     IntAcc      ...  4.340
Radial Grid Type                 RadialGrid  ... Gauss-Chebyshev
Angular Grid (max. acc.)         AngularGrid ... Lebedev-194
Angular grid pruning method      GridPruning ... 3 (G Style)
Weight generation scheme         WeightScheme... Becke
Basis function cutoff            BFCut       ...    1.0000e-11
Integration weight cutoff        WCut        ...    1.0000e-14
Grids for H and He will be reduced by one unit

# of grid points (after initial pruning)     ...  30582 (   0.0 sec)
# of grid points (after weights+screening)   ...  28635 (   0.0 sec)
nearest neighbour list constructed           ...    0.0 sec
Grid point re-assignment to atoms done       ...    0.0 sec
Grid point division into batches done        ...    0.0 sec
Reduced shell lists constructed in    0.1 sec

Total number of grid points                  ...    28635
Total number of batches                      ...      454
Average number of points per batch           ...       63
Average number of grid points per atom       ...     2203
Average number of shells per batch           ...    37.28 (74.56%)
Average number of basis functions per batch  ...    75.46 (77.00%)
Average number of large shells per batch     ...    29.99 (80.43%)
Average number of large basis fcns per batch ...    60.19 (79.77%)
Maximum spatial batch extension              ...  19.30, 21.21, 18.40 au
Average spatial batch extension              ...   3.06,  3.10,  3.05 au

Time for grid setup =    0.226 sec

------------------------------
INITIAL GUESS: MODEL POTENTIAL
------------------------------
Loading Hartree-Fock densities                     ... done
Calculating cut-offs                               ... done
Setting up the integral package                    ... done
Initializing the effective Hamiltonian             ... done
Starting the Coulomb interaction                   ... done (   0.0 sec)
Reading the grid                                   ... done
Mapping shells                                     ... done
Starting the XC term evaluation                    ... done (   0.2 sec)
  promolecular density results
     # of electrons  =     47.996062898
     EX              =    -40.466244262
     EC              =     -1.634535180
     EX+EC           =    -42.100779442
Transforming the Hamiltonian                       ... done (   0.0 sec)
Diagonalizing the Hamiltonian                      ... done (   0.0 sec)
Back transforming the eigenvectors                 ... done (   0.0 sec)
Now organizing SCF variables                       ... done
                      ------------------
                      INITIAL GUESS DONE (   0.5 sec)
                      ------------------
--------------
SCF ITERATIONS
--------------
               ***  Starting incremental Fock matrix formation  ***

                         ----------------------------
                         !        ITERATION     0   !
                         ----------------------------
   Total Energy        :    -323.286170400119 Eh
   Energy Change       :    -323.286170400119 Eh
   MAX-DP              :       0.094296805199
   RMS-DP              :       0.003880697941
   Actual Damping      :       0.7000
   Actual Level Shift  :       0.2500 Eh
   Int. Num. El.       :    48.00054182 (UP=   24.00027091 DN=   24.00027091)
   Exchange            :   -33.34498839
   Correlation         :    -1.95416917


                         ----------------------------
                         !        ITERATION     1   !
                         ----------------------------
   Total Energy        :    -323.415757159732 Eh
   Energy Change       :      -0.129586759614 Eh
   MAX-DP              :       0.052564635204
   RMS-DP              :       0.002488887079
   Actual Damping      :       0.7000
   Actual Level Shift  :       0.2500 Eh
   Int. Num. El.       :    48.00062192 (UP=   24.00031096 DN=   24.00031096)
   Exchange            :   -33.00183771
   Correlation         :    -1.94271590

                               ***Turning on DIIS***

                         ----------------------------
                         !        ITERATION     2   !
                         ----------------------------
   Total Energy        :    -323.461348645034 Eh
   Energy Change       :      -0.045591485302 Eh
   MAX-DP              :       0.070505094390
   RMS-DP              :       0.003635157401
   Actual Damping      :       0.0000
   Actual Level Shift  :       0.2500 Eh
   Int. Num. El.       :    48.00066287 (UP=   24.00033144 DN=   24.00033144)
   Exchange            :   -32.80026086
   Correlation         :    -1.93542350
   DIIS-Error          :       0.036883749850


                         ----------------------------
                         !        ITERATION     3   !
                         ----------------------------
   Total Energy        :    -323.536442686985 Eh
   Energy Change       :      -0.075094041950 Eh
   MAX-DP              :       0.034386949267
   RMS-DP              :       0.001644650346
   Actual Damping      :       0.0000
   Actual Level Shift  :       0.2500 Eh
   Int. Num. El.       :    48.00069718 (UP=   24.00034859 DN=   24.00034859)
   Exchange            :   -32.55011685
   Correlation         :    -1.92537595
   DIIS-Error          :       0.066252802388
   DIIS coefficients:
      0.63138   0.36862


                         ----------------------------
                         !        ITERATION     4   !
                         ----------------------------
   Total Energy        :    -323.552277673912 Eh
   Energy Change       :      -0.015834986927 Eh
   MAX-DP              :       0.009694085056
   RMS-DP              :       0.000550015262
   Actual Damping      :       0.0000
   Actual Level Shift  :       0.2500 Eh
   Int. Num. El.       :    48.00066700 (UP=   24.00033350 DN=   24.00033350)
   Exchange            :   -32.67436716
   Correlation         :    -1.93007885
   DIIS-Error          :       0.014209322813
   DIIS coefficients:
      0.29945   0.07526   0.62529


                         ----------------------------
                         !        ITERATION     5   !
                         ----------------------------
   Total Energy        :    -323.553360861646 Eh
   Energy Change       :      -0.001083187734 Eh
   MAX-DP              :       0.003552167919
   RMS-DP              :       0.000162402498
   Actual Damping      :       0.0000
   Actual Level Shift  :       0.2500 Eh
   Int. Num. El.       :    48.00066463 (UP=   24.00033232 DN=   24.00033232)
   Exchange            :   -32.69507709
   Correlation         :    -1.93123086
   DIIS-Error          :       0.004866264924
   DIIS coefficients:
      0.06236  -0.00838   0.14709   0.79893

                      *** Initiating the SOSCF procedure ***
                           *** Shutting down DIIS ***
                      *** Re-Reading the Fockian *** 
                      *** Removing any level shift *** 

                         ----------------------------
                         !        ITERATION     6   !
                         ----------------------------
   Total Energy        :    -323.553410633089 Eh
   Energy Change       :      -0.000049771443 Eh
   MAX-DP              :       0.000807848084
   RMS-DP              :       0.000053062952
   Orbital gradient    :       0.000333249888
   Orbital Rotation    :       0.000333249888
   Actual Damping      :       0.0000
   Int. Num. El.       :    48.00066299 (UP=   24.00033149 DN=   24.00033149)
   Exchange            :   -32.70099197
   Correlation         :    -1.93143591

               *** Restarting incremental Fock matrix formation ***

                         ----------------------------
                         !        ITERATION     7   !
                         ----------------------------
   Total Energy        :    -323.553416351333 Eh
   Energy Change       :      -0.000005718244 Eh
   MAX-DP              :       0.000620406360
   RMS-DP              :       0.000033615664
   Orbital gradient    :       0.000135697475
   Orbital Rotation    :       0.000386924654
   Actual Damping      :       0.0000
   Int. Num. El.       :    48.00066377 (UP=   24.00033188 DN=   24.00033188)
   Exchange            :   -32.70154746
   Correlation         :    -1.93145233


                         ----------------------------
                         !        ITERATION     8   !
                         ----------------------------
   Total Energy        :    -323.553416385181 Eh
   Energy Change       :      -0.000000033848 Eh
   MAX-DP              :       0.000378369161
   RMS-DP              :       0.000013223679
   Orbital gradient    :       0.000163663335
   Orbital Rotation    :       0.000235165807
   Actual Damping      :       0.0000
   Int. Num. El.       :    48.00066409 (UP=   24.00033204 DN=   24.00033204)
   Exchange            :   -32.70128802
   Correlation         :    -1.93145761


                         ----------------------------
                         !        ITERATION     9   !
                         ----------------------------
   Total Energy        :    -323.553417076206 Eh
   Energy Change       :      -0.000000691025 Eh
   MAX-DP              :       0.000116016960
   RMS-DP              :       0.000006152413
   Orbital gradient    :       0.000050188719
   Orbital Rotation    :       0.000123856968
   Actual Damping      :       0.0000
   Int. Num. El.       :    48.00066412 (UP=   24.00033206 DN=   24.00033206)
   Exchange            :   -32.70153510
   Correlation         :    -1.93145935


                         ----------------------------
                         !        ITERATION    10   !
                         ----------------------------
   Total Energy        :    -323.553417052174 Eh
   Energy Change       :       0.000000024032 Eh
   MAX-DP              :       0.000090191742
   RMS-DP              :       0.000003036881
   Orbital gradient    :       0.000073730475
   Orbital Rotation    :       0.000072196706
   Actual Damping      :       0.0000
   Int. Num. El.       :    48.00066411 (UP=   24.00033205 DN=   24.00033205)
   Exchange            :   -32.70148301
   Correlation         :    -1.93145411


                         ----------------------------
                         !        ITERATION    11   !
                         ----------------------------
   Total Energy        :    -323.553417096839 Eh
   Energy Change       :      -0.000000044664 Eh
   MAX-DP              :       0.000029043642
   RMS-DP              :       0.000001493848
   Orbital gradient    :       0.000009390172
   Orbital Rotation    :       0.000016747774
   Actual Damping      :       0.0000
   Int. Num. El.       :    48.00066412 (UP=   24.00033206 DN=   24.00033206)
   Exchange            :   -32.70145770
   Correlation         :    -1.93145558


                         ----------------------------
                         !        ITERATION    12   !
                         ----------------------------
   Total Energy        :    -323.553417096012 Eh
   Energy Change       :       0.000000000826 Eh
   MAX-DP              :       0.000014774321
   RMS-DP              :       0.000000698023
   Orbital gradient    :       0.000008984002
   Orbital Rotation    :       0.000007828124
   Actual Damping      :       0.0000
   Int. Num. El.       :    48.00066409 (UP=   24.00033204 DN=   24.00033204)
   Exchange            :   -32.70152934
   Correlation         :    -1.93145832

                  ***Gradient check signals convergence***
              ***Rediagonalizing the Fockian in SOSCF/NRSCF***

               *****************************************************
               *                     SUCCESS                       *
               *           SCF CONVERGED AFTER  13 CYCLES          *
               *****************************************************

Setting up the final grid:

General Integration Accuracy     IntAcc      ...  5.010
Radial Grid Type                 RadialGrid  ... Gauss-Chebyshev
Angular Grid (max. acc.)         AngularGrid ... Lebedev-434
Angular grid pruning method      GridPruning ... 3 (G Style)
Weight generation scheme         WeightScheme... Becke
Basis function cutoff            BFCut       ...    1.0000e-11
Integration weight cutoff        WCut        ...    1.0000e-14
Grids for H and He will be reduced by one unit

# of grid points (after initial pruning)     ... 111212 (   0.0 sec)
# of grid points (after weights+screening)   ... 103040 (   0.1 sec)
nearest neighbour list constructed           ...    0.0 sec
Grid point re-assignment to atoms done       ...    0.0 sec
Grid point division into batches done        ...    0.5 sec
Reduced shell lists constructed in    0.9 sec

Total number of grid points                  ...   103040
Total number of batches                      ...     1618
Average number of points per batch           ...       63
Average number of grid points per atom       ...     7926
Average number of shells per batch           ...    34.77 (69.54%)
Average number of basis functions per batch  ...    70.13 (71.56%)
Average number of large shells per batch     ...    27.34 (78.64%)
Average number of large basis fcns per batch ...    54.65 (77.93%)
Maximum spatial batch extension              ...  17.85, 18.51, 18.96 au
Average spatial batch extension              ...   2.06,  2.13,  2.10 au

Final grid set up in    1.1 sec
Final integration                            ... done (   0.6 sec)
Change in XC energy                          ...    -0.000056266
Integrated number of electrons               ...    48.000021517
Previous integrated no of electrons          ...    48.000664106

----------------
TOTAL SCF ENERGY
----------------

Total Energy       :         -323.55347336 Eh           -8804.33761 eV

Components:
Nuclear Repulsion  :          248.88669567 Eh            6772.55130 eV
Electronic Energy  :         -572.44016903 Eh          -15576.88891 eV
One Electron Energy:         -933.91621230 Eh          -25413.15212 eV
Two Electron Energy:          361.47604327 Eh            9836.26320 eV

Virial components:
Potential Energy   :         -645.22669864 Eh          -17557.51108 eV
Kinetic Energy     :          321.67322528 Eh            8753.17346 eV
Virial Ratio       :            2.00584521


DFT components:
N(Alpha)           :       24.000010758607 electrons
N(Beta)            :       24.000010758607 electrons
N(Total)           :       48.000021517214 electrons
E(X)               :      -32.701533466913 Eh       
E(C)               :       -1.931469641706 Eh       
E(XC)              :      -34.633003108619 Eh       
DFET-embed. en.    :        0.000000000000 Eh       

---------------
SCF CONVERGENCE
---------------

  Last Energy change         ...   -1.7974e-09  Tolerance :   1.0000e-08
  Last MAX-Density change    ...    2.7500e-06  Tolerance :   1.0000e-07
  Last RMS-Density change    ...    1.7025e-07  Tolerance :   5.0000e-09
  Last Orbital Gradient      ...    5.1560e-07  Tolerance :   1.0000e-05
  Last Orbital Rotation      ...    1.3507e-06  Tolerance :   1.0000e-05

             **** THE GBW FILE WAS UPDATED (/Users/lailaal-madhagi/Desktop/Testing_XAS_Analysis_code/Alanine//Results_dir_Alanine_geom_element_O_2019-11-03_23-33-49//GTE1_Alanine_geom_2019-11-03_23-34-01//TDDFT_O-edge.gbw) ****
             **** DENSITY FILE WAS UPDATED (/Users/lailaal-madhagi/Desktop/Testing_XAS_Analysis_code/Alanine//Results_dir_Alanine_geom_element_O_2019-11-03_23-33-49//GTE1_Alanine_geom_2019-11-03_23-34-01//TDDFT_O-edge.scfp.tmp) ****
             **** ENERGY FILE WAS UPDATED (/Users/lailaal-madhagi/Desktop/Testing_XAS_Analysis_code/Alanine//Results_dir_Alanine_geom_element_O_2019-11-03_23-33-49//GTE1_Alanine_geom_2019-11-03_23-34-01//TDDFT_O-edge.en.tmp) ****
----------------
ORBITAL ENERGIES
----------------

  NO   OCC          E(Eh)            E(eV) 
   0   2.0000     -19.192107      -522.2438 
   1   2.0000     -19.137343      -520.7536 
   2   2.0000     -14.302961      -389.2033 
   3   2.0000     -10.314877      -280.6821 
   4   2.0000     -10.222253      -278.1616 
   5   2.0000     -10.178505      -276.9712 
   6   2.0000      -1.106009       -30.0960 
   7   2.0000      -1.015680       -27.6381 
   8   2.0000      -0.886669       -24.1275 
   9   2.0000      -0.748599       -20.3704 
  10   2.0000      -0.669091       -18.2069 
  11   2.0000      -0.582958       -15.8631 
  12   2.0000      -0.522197       -14.2097 
  13   2.0000      -0.483271       -13.1505 
  14   2.0000      -0.461360       -12.5543 
  15   2.0000      -0.438822       -11.9410 
  16   2.0000      -0.431418       -11.7395 
  17   2.0000      -0.405323       -11.0294 
  18   2.0000      -0.403361       -10.9760 
  19   2.0000      -0.371368       -10.1054 
  20   2.0000      -0.361773        -9.8443 
  21   2.0000      -0.318397        -8.6640 
  22   2.0000      -0.276061        -7.5120 
  23   2.0000      -0.233902        -6.3648 
  24   0.0000       0.009931         0.2702 
  25   0.0000       0.074790         2.0351 
  26   0.0000       0.088887         2.4187 
  27   0.0000       0.139624         3.7994 
  28   0.0000       0.144610         3.9350 
  29   0.0000       0.158594         4.3156 
  30   0.0000       0.170763         4.6467 
  31   0.0000       0.185835         5.0568 
  32   0.0000       0.216929         5.9029 
  33   0.0000       0.228424         6.2157 
  34   0.0000       0.271382         7.3847 
  35   0.0000       0.322065         8.7638 
  36   0.0000       0.372570        10.1381 
  37   0.0000       0.523134        14.2352 
  38   0.0000       0.540137        14.6979 
  39   0.0000       0.550913        14.9911 
  40   0.0000       0.560586        15.2543 
  41   0.0000       0.608625        16.5615 
  42   0.0000       0.636022        17.3070 
  43   0.0000       0.671815        18.2810 
  44   0.0000       0.698424        19.0051 
  45   0.0000       0.729060        19.8387 
  46   0.0000       0.761397        20.7187 
  47   0.0000       0.778014        21.1708 
  48   0.0000       0.806567        21.9478 
  49   0.0000       0.830375        22.5957 
  50   0.0000       0.855149        23.2698 
  51   0.0000       0.880266        23.9532 
  52   0.0000       0.898440        24.4478 
  53   0.0000       0.921203        25.0672 
  54   0.0000       0.939453        25.5638 
  55   0.0000       0.956389        26.0247 
  56   0.0000       0.962918        26.2023 
  57   0.0000       0.979538        26.6546 
  58   0.0000       0.987391        26.8683 
  59   0.0000       1.044440        28.4207 
  60   0.0000       1.061631        28.8885 
  61   0.0000       1.107803        30.1449 
  62   0.0000       1.139553        31.0088 
  63   0.0000       1.252811        34.0907 
  64   0.0000       1.348425        36.6925 
  65   0.0000       1.404871        38.2285 
  66   0.0000       1.458052        39.6756 
  67   0.0000       1.503730        40.9186 
  68   0.0000       1.553519        42.2734 
  69   0.0000       1.645803        44.7846 
  70   0.0000       1.713369        46.6231 
  71   0.0000       1.732250        47.1369 
  72   0.0000       1.750394        47.6306 
  73   0.0000       1.790072        48.7103 
  74   0.0000       1.817909        49.4678 
  75   0.0000       1.846340        50.2415 
  76   0.0000       1.865755        50.7698 
  77   0.0000       1.931483        52.5583 
  78   0.0000       1.968249        53.5588 
  79   0.0000       1.996582        54.3297 
  80   0.0000       2.018452        54.9249 
  81   0.0000       2.068667        56.2913 
  82   0.0000       2.122951        57.7684 
  83   0.0000       2.138644        58.1955 
  84   0.0000       2.184995        59.4568 
  85   0.0000       2.287304        62.2407 
  86   0.0000       2.345207        63.8163 
  87   0.0000       2.354754        64.0761 
  88   0.0000       2.409618        65.5690 
  89   0.0000       2.459320        66.9215 
  90   0.0000       2.545393        69.2637 
  91   0.0000       2.622651        71.3660 
  92   0.0000       2.660944        72.4080 
  93   0.0000       2.699139        73.4473 
  94   0.0000       2.780923        75.6728 
  95   0.0000       2.870409        78.1078 
  96   0.0000       2.990966        81.3883 
  97   0.0000       3.099772        84.3491 
------------------
MOLECULAR ORBITALS
------------------
                      0         1         2         3         4         5   
                 -19.19211 -19.13734 -14.30296 -10.31488 -10.22225 -10.17850
                   2.00000   2.00000   2.00000   2.00000   2.00000   2.00000
                  --------  --------  --------  --------  --------  --------
  0C   1s        -0.000086  0.000014  0.000036  0.000214 -0.001362 -0.995307
  0C   2s        -0.000706  0.000201  0.000682  0.001047  0.001225 -0.037473
  0C   1pz       -0.000066 -0.000006  0.000193  0.000129  0.000035 -0.000085
  0C   1px        0.000016  0.000092  0.000149  0.000427  0.000051 -0.000302
  0C   1py       -0.000139  0.000024 -0.000370  0.000067 -0.000173  0.000113
  0C   3s         0.003500 -0.000498 -0.000356 -0.002573 -0.010478  0.032002
  0C   2pz        0.001285  0.001078  0.000105 -0.001094 -0.001415  0.000232
  0C   2px        0.001372 -0.000908  0.000289 -0.002478 -0.003519  0.001462
  0C   2py       -0.000417 -0.000446  0.000137 -0.000173  0.003340 -0.000503
  0C   1dz2      -0.000053 -0.000050 -0.000006  0.000050 -0.000478 -0.000044
  0C   1dxz       0.000041  0.000075  0.000168 -0.000086 -0.000026 -0.000021
  0C   1dyz      -0.000102 -0.000066 -0.000019  0.000026  0.000017  0.000020
  0C   1dx2y2     0.000062 -0.000093 -0.000090 -0.000075  0.000045  0.000020
  0C   1dxy      -0.000082  0.000074 -0.000091  0.000013 -0.000656 -0.000042
  1C   1s         0.000069 -0.000034  0.000047 -0.000845 -0.995549  0.001347
  1C   2s         0.000998 -0.000492  0.001246  0.000763 -0.039587  0.000433
  1C   1pz        0.000170 -0.000011  0.000109  0.000175 -0.000582  0.000044
  1C   1px        0.000109 -0.000212 -0.000026  0.000469 -0.000113 -0.000211
  1C   1py        0.000221 -0.000056  0.000033  0.000186 -0.000153  0.000288
  1C   3s        -0.003255  0.003736 -0.009368 -0.006310  0.042288 -0.002582
  1C   2pz       -0.003299 -0.003580 -0.003967 -0.000019  0.003324  0.001382
  1C   2px        0.001778  0.002959  0.000807 -0.004683  0.000624  0.003839
  1C   2py       -0.001230  0.002409  0.002928 -0.001369  0.003127 -0.001847
  1C   1dz2      -0.000190 -0.000195  0.000023 -0.000407 -0.000088 -0.000548
  1C   1dxz      -0.000219 -0.000417 -0.000043  0.000471  0.000137  0.000123
  1C   1dyz      -0.000100 -0.000135 -0.000468  0.000149  0.000119 -0.000136
  1C   1dx2y2     0.000035  0.000030 -0.000379  0.000296  0.000127  0.000113
  1C   1dxy       0.000235  0.000097  0.000041  0.000571 -0.000085 -0.000693
  2H   1s        -0.000079 -0.000049  0.000011 -0.000038  0.000499  0.000561
  2H   2s         0.000344 -0.000089  0.000736 -0.001313  0.000146 -0.005194
  3H   1s        -0.000157  0.000096  0.000111  0.000314  0.000428  0.000484
  3H   2s         0.000157  0.000866 -0.000492  0.000089 -0.000401 -0.005796
  4H   1s        -0.000216  0.000139  0.000058  0.000368  0.000606  0.000470
  4H   2s        -0.000939 -0.000845  0.000327  0.000352  0.000327 -0.005826
  5C   1s        -0.000019  0.000296  0.000007 -0.995157  0.000824  0.000010
  5C   2s         0.000073  0.000689  0.000469 -0.037034  0.001330  0.001153
  5C   1pz        0.000436 -0.000021  0.000030 -0.000607 -0.000121 -0.000159
  5C   1px       -0.000457  0.000064 -0.000142 -0.001131 -0.000118 -0.000371
  5C   1py       -0.000235  0.000017 -0.000194 -0.000968 -0.000188 -0.000075
  5C   3s        -0.007618  0.007952  0.002007  0.011581 -0.009356 -0.005301
  5C   2pz        0.008874  0.013531  0.000158 -0.005039 -0.000469  0.001223
  5C   2px       -0.005287  0.004085 -0.000276 -0.008654  0.006563  0.002278
  5C   2py       -0.005437  0.000908  0.000009 -0.004517  0.004564  0.000269
  5C   1dz2       0.000196 -0.000873  0.000016 -0.001909 -0.000346 -0.000068
  5C   1dxz      -0.000185 -0.000406 -0.000011 -0.000283  0.000422  0.000037
  5C   1dyz      -0.000159 -0.000059  0.000109  0.000535  0.000258  0.000101
  5C   1dx2y2    -0.000075  0.000010  0.000108 -0.000325  0.000230 -0.000065
  5C   1dxy      -0.000346  0.000157  0.000079 -0.000877  0.000664  0.000016
  6N   1s         0.000015 -0.000004 -0.995275  0.000034 -0.000001  0.000040
  6N   2s         0.000220 -0.000056 -0.032144  0.000537  0.000668  0.000704
  6N   1pz       -0.000031  0.000039 -0.000115 -0.000040 -0.000372 -0.000042
  6N   1px        0.000187  0.000092  0.001103  0.000180  0.000018 -0.000054
  6N   1py        0.000156 -0.000010 -0.001464  0.000193  0.000308  0.000206
  6N   3s         0.000766  0.001519  0.023585 -0.001016 -0.006689 -0.001895
  6N   2pz       -0.000040 -0.000703 -0.001042 -0.000049  0.001627  0.000083
  6N   2px       -0.001491 -0.000963 -0.001538 -0.000682  0.000178 -0.000108
  6N   2py       -0.000211  0.000435  0.004468 -0.001120 -0.002324 -0.000859
  6N   1dz2      -0.000084 -0.000002  0.000018  0.000050  0.000171  0.000063
  6N   1dxz       0.000049  0.000046  0.000040 -0.000155 -0.000238  0.000083
  6N   1dyz       0.000005 -0.000037 -0.000196 -0.000032 -0.001093  0.000036
  6N   1dx2y2     0.000000 -0.000032 -0.000158  0.000052 -0.000525 -0.000045
  6N   1dxy      -0.000205 -0.000141  0.000134 -0.000186  0.000282  0.000065
  7H   1s        -0.000096 -0.000464  0.000411  0.000531  0.000218  0.000343
  7H   2s        -0.001113 -0.001000 -0.000188 -0.000166 -0.005563 -0.000336
  8O   1s        -0.995168  0.000553  0.000010 -0.000133  0.000033 -0.000023
  8O   2s        -0.030348 -0.000507  0.000214 -0.001056  0.000770 -0.000342
  8O   1pz       -0.001780 -0.000023 -0.000011  0.000243  0.000122  0.000043
  8O   1px       -0.000073  0.000170 -0.000101 -0.000374 -0.000245  0.000072
  8O   1py        0.000217  0.000157 -0.000003 -0.000308 -0.000178  0.000014
  8O   3s         0.023219  0.002628 -0.000691  0.003894 -0.002363  0.001529
  8O   2pz        0.005959 -0.000841 -0.000129  0.004075 -0.001049  0.000180
  8O   2px       -0.001953 -0.001845  0.000555 -0.000196  0.000931 -0.000970
  8O   2py       -0.002357 -0.001333  0.000210 -0.001003  0.000739 -0.000381
  8O   1dz2       0.000234 -0.000467  0.000009  0.001032 -0.000107 -0.000092
  8O   1dxz      -0.000275 -0.000095  0.000039 -0.001143 -0.000053 -0.000118
  8O   1dyz      -0.000322  0.000008  0.000042 -0.001354  0.000044 -0.000009
  8O   1dx2y2     0.000089  0.000067 -0.000031  0.000030 -0.000136  0.000057
  8O   1dxy       0.000423  0.000312 -0.000031  0.000917 -0.000168  0.000084
  9O   1s         0.000590  0.995176  0.000005  0.000022  0.000009 -0.000010
  9O   2s         0.000555  0.030593  0.000088 -0.000868  0.000324 -0.000196
  9O   1pz       -0.000088 -0.002206 -0.000057 -0.000960 -0.000123  0.000007
  9O   1px       -0.000133 -0.000688  0.000020 -0.000509 -0.000091  0.000100
  9O   1py       -0.000098 -0.000117 -0.000039 -0.000128  0.000018 -0.000018
  9O   3s        -0.002493 -0.025269 -0.000533  0.008087  0.000157  0.000604
  9O   2pz       -0.000121  0.007058  0.000537 -0.005428  0.000505 -0.000317
  9O   2px        0.001932  0.002248 -0.000072  0.000098 -0.000752 -0.000751
  9O   2py        0.001532  0.000402 -0.000080  0.000531 -0.000809  0.000035
  9O   1dz2       0.000208 -0.000256 -0.000124  0.001832 -0.000259 -0.000013
  9O   1dxz      -0.000357 -0.000133 -0.000072  0.000705  0.000141  0.000150
  9O   1dyz      -0.000309 -0.000011  0.000008  0.000046  0.000218  0.000017
  9O   1dx2y2    -0.000131 -0.000010  0.000039  0.000086 -0.000087  0.000054
  9O   1dxy      -0.000247  0.000030  0.000041  0.000106 -0.000135 -0.000012
 10H   1s        -0.000802  0.000124 -0.000048 -0.000505  0.000056  0.000012
 10H   2s        -0.001496  0.000168 -0.000154  0.000013 -0.001115  0.000119
 11H   1s        -0.000238 -0.000192 -0.000089 -0.000071  0.000434  0.000220
 11H   2s        -0.000617 -0.000182 -0.003707 -0.000646 -0.000072 -0.000018
 12H   1s         0.000129 -0.000132 -0.000096  0.000265  0.000382  0.000263
 12H   2s        -0.000250  0.000430 -0.003758 -0.000064 -0.000790  0.000223
                      6         7         8         9        10        11   
                  -1.10601  -1.01568  -0.88667  -0.74860  -0.66909  -0.58296
                   2.00000   2.00000   2.00000   2.00000   2.00000   2.00000
                  --------  --------  --------  --------  --------  --------
  0C   1s         0.003932  0.001782 -0.042198 -0.132407  0.129445  0.046325
  0C   2s        -0.005706 -0.005310  0.081049  0.251780 -0.250821 -0.088307
  0C   1pz       -0.000566 -0.002127  0.008614 -0.003798  0.001608 -0.003784
  0C   1px       -0.004442 -0.001682  0.024897  0.037561  0.056546  0.065739
  0C   1py        0.001769  0.001494 -0.028781 -0.014167 -0.018623 -0.073507
  0C   3s        -0.007190  0.005831  0.049573  0.223853 -0.249276 -0.117068
  0C   2pz       -0.001798  0.007946  0.001581 -0.004017 -0.002496 -0.007135
  0C   2px       -0.003179  0.002310  0.001266  0.004554  0.016519  0.014058
  0C   2py        0.000300 -0.003360 -0.002844  0.004970 -0.003741 -0.020402
  0C   1dz2       0.000483 -0.000128 -0.002192 -0.000924 -0.003703 -0.004356
  0C   1dxz      -0.000049 -0.000065  0.001026 -0.000173  0.000194  0.000754
  0C   1dyz       0.000147 -0.000243 -0.000739  0.000296 -0.000609  0.000231
  0C   1dx2y2    -0.000329 -0.000045  0.000080  0.001841  0.002905  0.000267
  0C   1dxy       0.000599  0.000239 -0.003633 -0.000703 -0.006239 -0.007749
  1C   1s         0.017991  0.010074 -0.112730 -0.096632 -0.051990 -0.101497
  1C   2s        -0.034671 -0.017949  0.216244  0.188707  0.107849  0.207361
  1C   1pz       -0.007340 -0.016584  0.061123 -0.056151  0.003836 -0.029806
  1C   1px       -0.020074 -0.004998 -0.017570  0.005335  0.165385  0.015064
  1C   1py       -0.011751  0.001814 -0.056627  0.120860 -0.004669 -0.074646
  1C   3s        -0.011316 -0.008949  0.134116  0.166551  0.099746  0.216719
  1C   2pz        0.003651 -0.020363 -0.001334 -0.009523 -0.000438 -0.009756
  1C   2px       -0.004369  0.014172 -0.004134 -0.005925  0.041142 -0.005296
  1C   2py        0.000312  0.005472  0.002472  0.027766 -0.002398 -0.011363
  1C   1dz2       0.001792 -0.001043  0.002693 -0.004551  0.002588  0.007383
  1C   1dxz      -0.001678 -0.003180 -0.003028  0.003157  0.001875  0.000436
  1C   1dyz      -0.000738 -0.000746 -0.010736  0.009507  0.003811  0.003509
  1C   1dx2y2    -0.001647 -0.000036 -0.005807  0.004677  0.002215 -0.002183
  1C   1dxy      -0.003953 -0.000165  0.002614 -0.006392  0.011289 -0.002521
  2H   1s        -0.000789 -0.000828  0.020298  0.075624 -0.107817 -0.046494
  2H   2s        -0.001273  0.001175  0.005123  0.014017 -0.037445 -0.023966
  3H   1s        -0.001581 -0.000647  0.016909  0.083952 -0.091729 -0.055512
  3H   2s        -0.000914  0.006282 -0.000131  0.013858 -0.030255 -0.027342
  4H   1s        -0.001347 -0.001620  0.020695  0.077497 -0.098185 -0.058418
  4H   2s         0.001257 -0.006473  0.003255  0.013930 -0.031072 -0.024080
  5C   1s         0.116087  0.053993 -0.013294 -0.050158 -0.090312  0.052399
  5C   2s        -0.223182 -0.103188  0.027390  0.105132  0.195310 -0.115470
  5C   1pz       -0.011774 -0.232402 -0.046175 -0.072549 -0.137711  0.127029
  5C   1px       -0.075891 -0.006892 -0.063187 -0.091141 -0.073375 -0.115084
  5C   1py       -0.055178  0.033687 -0.038231 -0.027354 -0.051107 -0.128082
  5C   3s        -0.043471 -0.041252  0.022333  0.069188  0.131088 -0.088198
  5C   2pz       -0.005987  0.033371 -0.004238 -0.023775 -0.033369  0.017709
  5C   2px        0.021056  0.004229 -0.006141 -0.019416 -0.023648 -0.016717
  5C   2py        0.015700 -0.003754 -0.004829 -0.002436 -0.017462 -0.027233
  5C   1dz2      -0.016729 -0.017472 -0.006127 -0.001614  0.002411 -0.011033
  5C   1dxz       0.003290 -0.022583 -0.000130  0.003021 -0.001791  0.009573
  5C   1dyz       0.008984 -0.012373  0.000624  0.001193 -0.002187  0.010829
  5C   1dx2y2    -0.001797 -0.002080  0.001560  0.003518 -0.000071  0.001815
  5C   1dxy      -0.008790  0.004817  0.004480  0.001811  0.004175  0.002400
  6N   1s         0.006114  0.011250 -0.169389  0.097229  0.016088  0.033673
  6N   2s        -0.013177 -0.023121  0.350022 -0.205755 -0.034095 -0.072660
  6N   1pz        0.001166 -0.000619 -0.005736 -0.058177 -0.028995 -0.136545
  6N   1px       -0.002165 -0.000906 -0.046491  0.055220  0.060744  0.090506
  6N   1py       -0.006549 -0.009040  0.083367  0.013075  0.025543  0.084957
  6N   3s        -0.009443 -0.010050  0.356407 -0.238207 -0.044649 -0.103565
  6N   2pz        0.000097 -0.002455  0.002744 -0.025171 -0.008779 -0.062386
  6N   2px        0.003683 -0.006392 -0.025966  0.028540  0.023803  0.048509
  6N   2py        0.000247 -0.001752  0.038621 -0.001909  0.005316  0.034296
  6N   1dz2       0.000140  0.000119  0.003183 -0.003303  0.000142 -0.001663
  6N   1dxz      -0.000200 -0.000212  0.002339 -0.001234 -0.001413  0.000982
  6N   1dyz       0.000373 -0.000294 -0.001542 -0.006971 -0.002710 -0.010316
  6N   1dx2y2     0.000373  0.000320  0.000916 -0.007384 -0.004231 -0.009878
  6N   1dxy      -0.000338 -0.001645  0.007480 -0.004635  0.002463 -0.000810
  7H   1s        -0.006466 -0.001912  0.048194  0.065381  0.049416  0.106162
  7H   2s         0.002288 -0.002350  0.002151  0.012907  0.013035  0.047581
  8O   1s         0.164028 -0.127800  0.006885  0.021083  0.023404 -0.014714
  8O   2s        -0.357990  0.283152 -0.015052 -0.048069 -0.053689  0.030741
  8O   1pz       -0.107125  0.050593 -0.007839 -0.000487  0.029152 -0.115977
  8O   1px       -0.006570  0.018994 -0.017748 -0.087192 -0.188130  0.280838
  8O   1py        0.011500  0.006611 -0.011378 -0.055845 -0.153220  0.213827
  8O   3s        -0.363204  0.300280 -0.020163 -0.066153 -0.074828  0.052675
  8O   2pz       -0.058664  0.022305 -0.004663 -0.003177  0.012191 -0.056119
  8O   2px       -0.002947  0.006603 -0.005780 -0.038636 -0.089824  0.144887
  8O   2py        0.006593  0.002306 -0.003641 -0.024108 -0.074809  0.108083
  8O   1dz2      -0.004792 -0.003010 -0.000957  0.000247  0.002921 -0.010973
  8O   1dxz      -0.001615  0.004453 -0.001466 -0.006442 -0.012833  0.015920
  8O   1dyz       0.001850  0.002843 -0.000756 -0.003980 -0.010313  0.012449
  8O   1dx2y2    -0.003275  0.003253 -0.000261 -0.000912 -0.003510  0.004639
  8O   1dxy      -0.010488  0.008127 -0.000026 -0.001302 -0.003175  0.008667
  9O   1s         0.100254  0.167972  0.031296  0.021764  0.037222 -0.016900
  9O   2s        -0.218066 -0.366587 -0.071013 -0.049745 -0.086313  0.037822
  9O   1pz        0.094750  0.122743  0.020054 -0.000418 -0.021257  0.042173
  9O   1px        0.021963  0.047298 -0.005759 -0.016147 -0.021009 -0.027489
  9O   1py       -0.000334  0.013283 -0.008380 -0.003360 -0.020130 -0.037158
  9O   3s        -0.189999 -0.345925 -0.065828 -0.046421 -0.091247  0.054924
  9O   2pz        0.034588  0.038135  0.006493 -0.005979 -0.018408  0.021652
  9O   2px        0.001000  0.018059 -0.005192 -0.007304 -0.011775 -0.012925
  9O   2py       -0.005538  0.006270 -0.005419 -0.000779 -0.010164 -0.016592
  9O   1dz2      -0.008313 -0.006325 -0.001909  0.000183  0.002127 -0.004565
  9O   1dxz      -0.002310 -0.005635  0.000740  0.002150  0.002439  0.002603
  9O   1dyz       0.000677 -0.002224  0.000906  0.000655  0.001986  0.003892
  9O   1dx2y2     0.000119 -0.000867  0.000367  0.000657  0.000209  0.001082
  9O   1dxy       0.001196  0.000111  0.001165 -0.000480  0.000309  0.002011
 10H   1s        -0.093772  0.078438 -0.013309 -0.056549 -0.119536  0.160645
 10H   2s         0.003909 -0.003765 -0.002790 -0.014872 -0.042292  0.076748
 11H   1s        -0.001532 -0.005718  0.107406 -0.087159 -0.042787 -0.079975
 11H   2s         0.002166 -0.001649  0.003187 -0.012917 -0.016904 -0.033222
 12H   1s        -0.005044 -0.009173  0.105448 -0.083861 -0.017492 -0.072253
 12H   2s         0.000859 -0.003001 -0.002473 -0.011419 -0.009202 -0.022146
                     12        13        14        15        16        17   
                  -0.52220  -0.48327  -0.46136  -0.43882  -0.43142  -0.40532
                   2.00000   2.00000   2.00000   2.00000   2.00000   2.00000
                  --------  --------  --------  --------  --------  --------
  0C   1s         0.010190  0.001059  0.019830  0.001468 -0.000655  0.003818
  0C   2s        -0.019631 -0.001775 -0.043016 -0.002848  0.003216 -0.004085
  0C   1pz       -0.082566 -0.043247  0.047785  0.234274  0.132317 -0.178434
  0C   1px       -0.018639  0.025387  0.188168 -0.055792 -0.099016 -0.166177
  0C   1py       -0.091992  0.034185 -0.042816 -0.122616  0.013035 -0.229487
  0C   3s        -0.028535 -0.012995 -0.046190 -0.004028 -0.008233 -0.029875
  0C   2pz       -0.028788 -0.012353  0.031843  0.113796  0.071993 -0.088914
  0C   2px       -0.012072  0.012830  0.098714 -0.026713 -0.044553 -0.075926
  0C   2py       -0.039006  0.004334 -0.017493 -0.058535  0.004104 -0.113973
  0C   1dz2      -0.005660 -0.000294 -0.002392  0.002378  0.004239 -0.011739
  0C   1dxz      -0.001117 -0.001812 -0.000433  0.004396  0.001414  0.009158
  0C   1dyz       0.001109 -0.002098 -0.001892  0.009458  0.005892  0.000489
  0C   1dx2y2    -0.002065  0.000030  0.001958  0.001041  0.001364  0.006495
  0C   1dxy      -0.000653  0.000159 -0.008568 -0.004615  0.002078  0.008708
  1C   1s        -0.025802  0.007409 -0.015470 -0.018011  0.024020  0.009678
  1C   2s         0.055189 -0.013580  0.037070  0.038507 -0.040678 -0.014704
  1C   1pz       -0.210024 -0.070092 -0.011867  0.209155  0.113004 -0.010260
  1C   1px       -0.113205  0.038492 -0.087162 -0.144157  0.039057 -0.079348
  1C   1py       -0.144309  0.044474  0.182454 -0.093373 -0.021936 -0.055933
  1C   3s         0.052572 -0.048053  0.010022  0.053771 -0.142020 -0.087700
  1C   2pz       -0.098991 -0.045373 -0.018148  0.081081  0.043531 -0.005376
  1C   2px       -0.049427  0.027813 -0.035232 -0.043683 -0.032375 -0.063955
  1C   2py       -0.055757  0.045338  0.052900 -0.021769 -0.021737 -0.029751
  1C   1dz2       0.001619  0.003305 -0.005263 -0.003264 -0.010208  0.006378
  1C   1dxz      -0.009079 -0.002137 -0.002149 -0.005551 -0.000110  0.005479
  1C   1dyz       0.001599  0.001125  0.007259 -0.008735  0.002556 -0.003835
  1C   1dx2y2    -0.002593  0.001362 -0.005526 -0.003546  0.002619  0.003993
  1C   1dxy      -0.000977 -0.001054  0.005095 -0.001008  0.007696 -0.001392
  2H   1s         0.036825 -0.014515 -0.104733  0.014185  0.026244  0.192769
  2H   2s         0.026700 -0.010022 -0.060911  0.009877  0.026633  0.159058
  3H   1s        -0.017318  0.033400 -0.030742 -0.153062 -0.057888 -0.056530
  3H   2s        -0.006532  0.040164 -0.011007 -0.107202 -0.033945 -0.028795
  4H   1s        -0.066224 -0.017119 -0.025268  0.100121  0.086483 -0.144747
  4H   2s        -0.043695 -0.006109 -0.012074  0.072665  0.059551 -0.107597
  5C   1s         0.033598  0.070362 -0.002859  0.033345 -0.024745 -0.005084
  5C   2s        -0.076338 -0.165514  0.004909 -0.074915  0.051618  0.010813
  5C   1pz       -0.071910 -0.135196  0.044189 -0.107280  0.110158  0.145820
  5C   1px        0.187469 -0.122155 -0.193954  0.031218 -0.069701 -0.023847
  5C   1py        0.089998 -0.063332  0.205355  0.117252 -0.152342  0.099730
  5C   3s        -0.048323 -0.097216  0.024303 -0.066610  0.096139  0.013591
  5C   2pz       -0.016431 -0.018047  0.014295  0.032167 -0.063664 -0.017423
  5C   2px        0.055464 -0.023513 -0.095270  0.023189 -0.067488 -0.066642
  5C   2py        0.016545 -0.018745  0.099622  0.048953 -0.081308  0.027866
  5C   1dz2       0.006320  0.010991 -0.001569 -0.002252  0.010960  0.013321
  5C   1dxz       0.001856 -0.001354  0.003474 -0.011190 -0.000683  0.000441
  5C   1dyz       0.000696 -0.003378  0.004326 -0.006171 -0.000804 -0.001569
  5C   1dx2y2    -0.000907 -0.003188 -0.003798 -0.002184  0.001291 -0.010389
  5C   1dxy       0.001129 -0.008064  0.000594  0.004177 -0.007915 -0.001837
  6N   1s        -0.000965 -0.003330  0.008613  0.008482  0.006341  0.002081
  6N   2s         0.003764  0.003207 -0.021703 -0.014558 -0.015565 -0.006124
  6N   1pz       -0.211806  0.105977 -0.011324 -0.132153 -0.220273  0.063338
  6N   1px       -0.145743  0.014077 -0.193556  0.096847 -0.179259  0.083670
  6N   1py       -0.098700 -0.028964 -0.096429  0.212601 -0.092427  0.084553
  6N   3s         0.000186  0.032117 -0.017050 -0.034026 -0.021757  0.001211
  6N   2pz       -0.103682  0.033294 -0.009326 -0.073416 -0.117079  0.037131
  6N   2px       -0.067842  0.010442 -0.105256  0.039592 -0.079102  0.051936
  6N   2py       -0.047594 -0.000199 -0.039617  0.109997 -0.038894  0.055342
  6N   1dz2      -0.005426  0.004749 -0.008297 -0.004095 -0.017079  0.006232
  6N   1dxz       0.004483 -0.001979  0.000918  0.003925  0.003590  0.000169
  6N   1dyz      -0.013309  0.004907 -0.001117 -0.006822 -0.010163  0.002948
  6N   1dx2y2     0.012060  0.000496  0.009569 -0.015654  0.011902 -0.007600
  6N   1dxy      -0.002096  0.001946 -0.002139 -0.009490  0.003195 -0.003139
  7H   1s         0.136197  0.027965 -0.025626 -0.091889 -0.073146  0.004342
  7H   2s         0.070191  0.035309 -0.032132 -0.071313 -0.035494  0.018368
  8O   1s         0.005670 -0.057022  0.003144 -0.008494 -0.041286 -0.030950
  8O   2s        -0.009436  0.133823 -0.008227  0.023525  0.096150  0.071345
  8O   1pz        0.065876 -0.295556  0.017247  0.080228 -0.293815 -0.149537
  8O   1px       -0.076656 -0.140169 -0.119537 -0.124306 -0.008259 -0.186449
  8O   1py       -0.107563 -0.047634  0.231113 -0.040185 -0.070841  0.103425
  8O   3s        -0.032968  0.200569 -0.013017  0.036801  0.148414  0.125860
  8O   2pz        0.030637 -0.191207  0.012522  0.046861 -0.184953 -0.092453
  8O   2px       -0.040147 -0.085737 -0.079512 -0.077847  0.013070 -0.112101
  8O   2py       -0.059048 -0.025478  0.147397 -0.024494 -0.036551  0.080735
  8O   1dz2       0.006469 -0.018895  0.002155  0.005767 -0.015052 -0.002523
  8O   1dxz      -0.001803 -0.009772 -0.008563 -0.006088 -0.003823 -0.011993
  8O   1dyz      -0.005057 -0.001672  0.014288 -0.000719 -0.005614  0.005469
  8O   1dx2y2    -0.002516 -0.000597  0.003084 -0.001659 -0.001154 -0.001714
  8O   1dxy      -0.004374  0.000890  0.002646 -0.003349 -0.000188 -0.001291
  9O   1s        -0.035665 -0.087432 -0.001333 -0.032164  0.017644  0.022962
  9O   2s         0.084001  0.198474  0.003409  0.075451 -0.042794 -0.053356
  9O   1pz        0.034128  0.337432  0.026898  0.169153 -0.112374 -0.151378
  9O   1px        0.134497  0.032419 -0.127684  0.066319 -0.120784 -0.163440
  9O   1py        0.061806 -0.031656  0.174159  0.092615 -0.131515  0.042419
  9O   3s         0.115656  0.322750  0.003597  0.102532 -0.035725 -0.071001
  9O   2pz        0.017154  0.177535  0.014719  0.098686 -0.070656 -0.089405
  9O   2px        0.074818  0.007771 -0.069396  0.037070 -0.072368 -0.098406
  9O   2py        0.036733 -0.020973  0.100632  0.055285 -0.075129  0.023539
  9O   1dz2       0.001527 -0.017640 -0.003845 -0.006566  0.003824  0.004682
  9O   1dxz      -0.010004 -0.004440  0.009583 -0.005629  0.008053  0.009818
  9O   1dyz      -0.004193  0.001925 -0.013065 -0.007084  0.009461 -0.004525
  9O   1dx2y2    -0.003194 -0.000400  0.003698 -0.000584  0.002022  0.001871
  9O   1dxy      -0.003115 -0.000233 -0.003875 -0.002417  0.001676 -0.000560
 10H   1s        -0.051234 -0.096985  0.017864 -0.046029 -0.067965 -0.074877
 10H   2s        -0.023137 -0.039034  0.014093 -0.031458 -0.042629 -0.053807
 11H   1s         0.111046 -0.006595  0.120332 -0.104374  0.141493 -0.074027
 11H   2s         0.062892 -0.004261  0.071762 -0.075022  0.107727 -0.045736
 12H   1s        -0.138836  0.061549 -0.048066 -0.037625 -0.164857  0.058781
 12H   2s        -0.068233  0.064505 -0.026466 -0.016663 -0.104331  0.030624
                     18        19        20        21        22        23   
                  -0.40336  -0.37137  -0.36177  -0.31840  -0.27606  -0.23390
                   2.00000   2.00000   2.00000   2.00000   2.00000   2.00000
                  --------  --------  --------  --------  --------  --------
  0C   1s         0.002070 -0.008958  0.004793  0.003656  0.001825 -0.031143
  0C   2s        -0.004026  0.020821 -0.009771 -0.005107 -0.006191  0.061085
  0C   1pz       -0.085710 -0.018279  0.276667 -0.042216 -0.017856  0.035811
  0C   1px       -0.071985  0.281601 -0.073812 -0.024516 -0.058155  0.111019
  0C   1py        0.291936  0.052114  0.047919  0.029087 -0.023860 -0.143002
  0C   3s        -0.012640  0.025598 -0.016833 -0.020112  0.010947  0.191606
  0C   2pz       -0.039288 -0.015068  0.125380 -0.044471  0.003820 -0.000263
  0C   2px       -0.024821  0.129398 -0.034365 -0.015487 -0.033382  0.106284
  0C   2py        0.145106  0.018598  0.016069  0.018843 -0.010403 -0.048093
  0C   1dz2       0.007196  0.001693  0.009773  0.000029 -0.002824 -0.003346
  0C   1dxz      -0.004716 -0.005680 -0.009005  0.000979  0.004577  0.001691
  0C   1dyz      -0.007866 -0.010143  0.019255 -0.001317 -0.000523  0.004715
  0C   1dx2y2    -0.007683 -0.010959 -0.000012 -0.000684  0.007293  0.006098
  0C   1dxy       0.007477 -0.010836 -0.005490  0.001848  0.003714 -0.002754
  1C   1s         0.018886 -0.010532 -0.000664  0.001600 -0.017213  0.013190
  1C   2s        -0.039181  0.025285 -0.006897 -0.010182  0.034780 -0.026458
  1C   1pz        0.066342  0.031234 -0.271366  0.002233  0.105849 -0.002840
  1C   1px        0.124824 -0.258163  0.052030  0.016977  0.155467 -0.082309
  1C   1py       -0.249185 -0.022390 -0.085885 -0.028895  0.103926  0.123678
  1C   3s        -0.047320 -0.014896  0.020651  0.023847  0.146052 -0.029011
  1C   2pz        0.018277  0.027300 -0.098201  0.051526  0.054353  0.009684
  1C   2px        0.044432 -0.118215  0.040244  0.014261  0.130602 -0.039399
  1C   2py       -0.105511  0.016334 -0.050536 -0.014377  0.055530 -0.019429
  1C   1dz2       0.001659  0.003859  0.015438  0.002419 -0.007709 -0.017314
  1C   1dxz       0.000714 -0.002586 -0.009441 -0.000479  0.002817  0.012199
  1C   1dyz      -0.009900 -0.010088  0.016068  0.000356 -0.002326 -0.003592
  1C   1dx2y2    -0.015592 -0.009922 -0.000021 -0.003082  0.002944 -0.011132
  1C   1dxy       0.004330 -0.011887 -0.007200  0.002238  0.004974 -0.015915
  2H   1s        -0.035818 -0.170082 -0.042594  0.011361  0.056339  0.008844
  2H   2s        -0.026848 -0.168967 -0.044776  0.011264  0.068536 -0.007947
  3H   1s         0.165895  0.089484 -0.118686  0.024925 -0.019227 -0.060790
  3H   2s         0.146282  0.086970 -0.101221 -0.005696 -0.014780 -0.124179
  4H   1s         0.034117 -0.023894  0.198634 -0.016708 -0.023103 -0.007038
  4H   2s         0.026858 -0.024005  0.199248  0.015807 -0.051335 -0.052849
  5C   1s         0.005824  0.029600  0.011795  0.000714 -0.016947  0.004256
  5C   2s        -0.017368 -0.069451 -0.028123 -0.002533  0.042250 -0.020109
  5C   1pz        0.028422  0.152111  0.102782  0.018101 -0.032141  0.012014
  5C   1px       -0.043290  0.201819  0.064765 -0.074412 -0.077064  0.004241
  5C   1py        0.106725  0.055866  0.077455  0.109197 -0.043060  0.034457
  5C   3s         0.004599 -0.094469 -0.058895 -0.019081  0.052586  0.033056
  5C   2pz        0.011044 -0.023938 -0.007964  0.004978 -0.043693  0.022144
  5C   2px       -0.033128  0.068004  0.019971 -0.028130  0.057003 -0.018534
  5C   2py        0.057167  0.013470  0.049407  0.065637  0.050842 -0.006578
  5C   1dz2       0.001056  0.010666  0.009299  0.009458 -0.020415  0.001210
  5C   1dxz      -0.000450  0.004641  0.009260 -0.024008  0.032241 -0.001530
  5C   1dyz       0.000171 -0.002089  0.010477  0.030635  0.027692 -0.004698
  5C   1dx2y2    -0.015154  0.006305 -0.006420  0.005449  0.008824  0.002838
  5C   1dxy       0.004475 -0.008762 -0.002432  0.003398  0.005923 -0.004357
  6N   1s        -0.032582 -0.004325  0.000082 -0.003824 -0.010805 -0.059084
  6N   2s         0.077699  0.006781 -0.000559  0.015637  0.023131  0.136573
  6N   1pz       -0.224554 -0.011080  0.154497 -0.007647  0.020320 -0.110028
  6N   1px        0.139040  0.047673  0.073391  0.018383  0.019397  0.352903
  6N   1py        0.039938  0.146077 -0.079520  0.014981 -0.027915 -0.391521
  6N   3s         0.106849  0.049239 -0.015372 -0.015455  0.062032  0.220461
  6N   2pz       -0.119494 -0.008012  0.094344 -0.002513  0.037968 -0.073447
  6N   2px        0.082969  0.022201  0.034044 -0.011631 -0.001824  0.289294
  6N   2py        0.005433  0.088628 -0.058297 -0.011305 -0.029688 -0.352131
  6N   1dz2       0.000079  0.003099  0.015279  0.001590 -0.001592  0.008840
  6N   1dxz       0.003129  0.002557 -0.004721 -0.000174 -0.003301  0.008706
  6N   1dyz      -0.009080 -0.001153  0.006686  0.000471  0.000042 -0.006131
  6N   1dx2y2    -0.004505 -0.010061  0.001817 -0.001119  0.000592  0.000901
  6N   1dxy       0.006656 -0.008341  0.000985 -0.000848  0.003252  0.020004
  7H   1s         0.008764 -0.025942  0.205080  0.010986 -0.066227 -0.087171
  7H   2s         0.006491  0.003005  0.197972  0.046599 -0.087174 -0.108014
  8O   1s        -0.006092 -0.033867 -0.007877 -0.000570  0.012605 -0.005291
  8O   2s         0.014447  0.080557  0.017190  0.002201 -0.028437  0.012478
  8O   1pz        0.005100 -0.211275 -0.099210 -0.055689 -0.233458  0.002408
  8O   1px       -0.163819 -0.051770 -0.058543  0.267805  0.041072  0.010441
  8O   1py        0.164663 -0.140372  0.059549 -0.366052  0.060891 -0.038645
  8O   3s         0.022893  0.127511  0.022889 -0.001681 -0.128758  0.034843
  8O   2pz        0.001608 -0.147552 -0.070412 -0.045165 -0.186110  0.004084
  8O   2px       -0.111981 -0.018009 -0.037269  0.205614  0.021827  0.008680
  8O   2py        0.118466 -0.082877  0.042506 -0.281372  0.040306 -0.026718
  8O   1dz2       0.002420 -0.004311 -0.001445 -0.003528 -0.010461  0.000555
  8O   1dxz      -0.009055 -0.003090 -0.003903  0.009498 -0.002349 -0.000234
  8O   1dyz       0.009610 -0.008421  0.003333 -0.014197  0.000197 -0.001700
  8O   1dx2y2    -0.000977 -0.001834 -0.001469  0.004515  0.001013  0.001348
  8O   1dxy      -0.000042 -0.007525  0.000176 -0.003489  0.003398 -0.001581
  9O   1s        -0.000534  0.014865  0.012302  0.000608  0.000760 -0.000453
  9O   2s         0.002051 -0.032249 -0.027426 -0.002321 -0.003221  0.004248
  9O   1pz        0.004808 -0.231520 -0.149708  0.062135 -0.138471  0.010663
  9O   1px       -0.060547  0.068522 -0.029392 -0.268664  0.432588 -0.030323
  9O   1py        0.108175 -0.007110  0.092436  0.360726  0.341172 -0.032495
  9O   3s        -0.003887 -0.051138 -0.043744  0.002037 -0.001506 -0.018816
  9O   2pz        0.005597 -0.136847 -0.087399  0.043143 -0.097750  0.014744
  9O   2px       -0.036424  0.040359 -0.022334 -0.189319  0.302848 -0.012374
  9O   2py        0.064276 -0.008967  0.057272  0.249973  0.236040 -0.027731
  9O   1dz2      -0.001208  0.011795  0.005301 -0.005787  0.008993 -0.001012
  9O   1dxz       0.004309 -0.003856  0.001868  0.012828 -0.014187  0.000821
  9O   1dyz      -0.007370  0.000013 -0.005467 -0.018846 -0.012410  0.000390
  9O   1dx2y2     0.000394 -0.001622 -0.000066  0.006370 -0.004701 -0.001003
  9O   1dxy      -0.002075 -0.000866 -0.002038 -0.005672 -0.004601 -0.000329
 10H   1s        -0.021201 -0.101809 -0.026269 -0.000605  0.004044 -0.009322
 10H   2s        -0.013285 -0.073910 -0.015021 -0.003151  0.083677 -0.019617
 11H   1s        -0.047222 -0.074216 -0.040695 -0.012788  0.007042 -0.063856
 11H   2s        -0.045081 -0.079235 -0.031681 -0.024865  0.011776 -0.058287
 12H   1s        -0.084288  0.023997  0.094082  0.006263 -0.011799 -0.062293
 12H   2s        -0.066681 -0.002375  0.077481  0.005168 -0.087617 -0.052072
                     24        25        26        27        28        29   
                   0.00993   0.07479   0.08889   0.13962   0.14461   0.15859
                   0.00000   0.00000   0.00000   0.00000   0.00000   0.00000
                  --------  --------  --------  --------  --------  --------
  0C   1s         0.040937  0.026895  0.060864 -0.007111 -0.112962 -0.014549
  0C   2s        -0.073474 -0.042427 -0.069878  0.002532  0.123898  0.000182
  0C   1pz       -0.008852  0.018186  0.017157  0.192110  0.099629  0.048784
  0C   1px       -0.088318  0.035402  0.143409  0.055074 -0.052548 -0.256031
  0C   1py        0.076546 -0.056407 -0.032104  0.001615  0.162569 -0.192690
  0C   3s        -0.439552 -0.408565 -0.961769  0.089753  1.952846  0.350959
  0C   2pz       -0.001433  0.090538  0.048733  0.365651  0.422475  0.043888
  0C   2px       -0.039216  0.187656  0.439717  0.185581 -0.047951 -0.690053
  0C   2py        0.230237 -0.189924 -0.149386 -0.066161  0.399881 -0.645242
  0C   1dz2      -0.002667  0.000529  0.002748  0.003416 -0.006250  0.004554
  0C   1dxz       0.005772 -0.000800  0.002703  0.004793  0.002605  0.005488
  0C   1dyz       0.003503 -0.000679 -0.005850 -0.005338 -0.007196 -0.014685
  0C   1dx2y2     0.009379 -0.002732 -0.005757  0.004782 -0.002815 -0.007478
  0C   1dxy       0.005920  0.002976  0.005819  0.004998  0.003133 -0.004228
  1C   1s         0.000559  0.043781  0.016375  0.062811 -0.007202  0.008951
  1C   2s        -0.002976 -0.054618 -0.015072 -0.079108  0.032709 -0.010096
  1C   1pz       -0.001417  0.010333  0.124468  0.213812  0.048201  0.169622
  1C   1px        0.014298 -0.085986  0.006174  0.019209  0.047861 -0.095410
  1C   1py        0.024914 -0.034746 -0.034871  0.128579 -0.093923 -0.040847
  1C   3s        -0.011557 -0.627488 -0.322880 -1.089180  0.004094 -0.171990
  1C   2pz        0.000762 -0.065889  0.324519  0.694789  0.068408  0.638795
  1C   2px       -0.166128 -0.109361 -0.084354  0.057114  0.145761 -0.084083
  1C   2py        0.159931 -0.012818 -0.131700  0.300202 -0.340355 -0.046093
  1C   1dz2       0.008494 -0.003920  0.001279  0.009924 -0.001237 -0.001554
  1C   1dxz      -0.002518 -0.005011  0.009538 -0.008873 -0.003710  0.001231
  1C   1dyz       0.008777 -0.004894  0.009709  0.003206  0.008151  0.019995
  1C   1dx2y2    -0.027029  0.000568  0.000010  0.001451 -0.005803  0.012812
  1C   1dxy       0.016864  0.003138 -0.006713 -0.009621 -0.006412  0.007568
  2H   1s         0.054242  0.002063  0.002740  0.027990 -0.004674 -0.068293
  2H   2s         0.304409  0.225667  0.719595  0.383750 -0.403725 -1.305735
  3H   1s        -0.026557  0.007596  0.049405  0.008183  0.012113  0.080612
  3H   2s        -0.047178  0.358631  0.482490  0.343396 -0.741215  0.905845
  4H   1s        -0.009700  0.003110 -0.012762 -0.030256 -0.080954 -0.032039
  4H   2s         0.022729  0.206128  0.416279 -0.600625 -1.500002 -0.140894
  5C   1s         0.003598 -0.019196  0.000152  0.021008  0.016681 -0.026852
  5C   2s        -0.007955  0.003804 -0.035220 -0.069021 -0.015792  0.062530
  5C   1pz        0.077902 -0.063604  0.041500  0.048661  0.035970  0.019214
  5C   1px       -0.316444  0.028619  0.020815  0.044204 -0.035634 -0.122717
  5C   1py        0.451214  0.001992 -0.027013 -0.032246  0.110677  0.006207
  5C   3s         0.016203  0.363347  0.302468 -0.224628 -0.211598  0.221148
  5C   2pz        0.080198  0.030716  0.041689 -0.100088 -0.026776 -0.030125
  5C   2px       -0.291225 -0.065700  0.126387  0.115980 -0.076266  0.002821
  5C   2py        0.366783 -0.086676  0.057814 -0.059972  0.074156  0.088264
  5C   1dz2      -0.003348  0.010988 -0.011075 -0.003394 -0.001243 -0.006784
  5C   1dxz       0.009910  0.002003 -0.009203 -0.012305 -0.002654 -0.011040
  5C   1dyz      -0.015619  0.000319 -0.003096 -0.005874 -0.002097 -0.002073
  5C   1dx2y2     0.015888 -0.002907  0.000626  0.001364 -0.004061  0.001409
  5C   1dxy      -0.006959 -0.012323  0.005255  0.001837  0.003471  0.004286
  6N   1s        -0.014892  0.007107  0.082444 -0.047002  0.061549  0.033997
  6N   2s         0.034044 -0.016382 -0.131045  0.062961 -0.091861 -0.068511
  6N   1pz       -0.040339 -0.058622 -0.046524  0.160827 -0.000717 -0.054932
  6N   1px        0.015021  0.047228  0.177164  0.011422  0.096656 -0.092509
  6N   1py        0.028508  0.014954 -0.014716  0.044525  0.044441 -0.184035
  6N   3s         0.132176 -0.061646 -1.162278  0.705988 -0.904885 -0.444155
  6N   2pz       -0.080579 -0.151673 -0.130303  0.273391  0.036159 -0.180055
  6N   2px        0.025836  0.085615  0.408993  0.062630  0.245620 -0.259778
  6N   2py        0.025831  0.066842 -0.024211  0.121069  0.000264 -0.456406
  6N   1dz2       0.004176  0.000365 -0.001808 -0.010109  0.002209 -0.000694
  6N   1dxz       0.002350  0.005325  0.000816 -0.004874 -0.002459  0.001143
  6N   1dyz       0.000970 -0.000782  0.001063  0.008536 -0.000516 -0.004772
  6N   1dx2y2    -0.004056 -0.002227 -0.006317 -0.003791 -0.002950  0.001169
  6N   1dxy       0.000579 -0.004455  0.001090  0.002471  0.002444 -0.005725
  7H   1s         0.060630 -0.026510  0.003382  0.098833  0.033227  0.039578
  7H   2s         0.217113  0.186241  0.426225  1.486688 -0.025455  0.749709
  8O   1s         0.000403  0.074496 -0.019100 -0.001569  0.000615 -0.000644
  8O   2s        -0.002823 -0.154929  0.046009 -0.000739  0.008815  0.005442
  8O   1pz       -0.027383 -0.131470  0.038758  0.076532 -0.024826  0.014847
  8O   1px        0.142937 -0.211034  0.069379 -0.022765 -0.066936  0.025297
  8O   1py       -0.195983 -0.139541  0.040792  0.012046 -0.059436  0.003248
  8O   3s         0.007294 -0.814617  0.161250  0.015259 -0.072246 -0.026294
  8O   2pz       -0.025876 -0.233746  0.007082  0.044456 -0.003866 -0.027241
  8O   2px        0.139407 -0.374935  0.121275 -0.037015 -0.080056  0.049005
  8O   2py       -0.200277 -0.230737  0.099250  0.017902 -0.094035  0.019293
  8O   1dz2       0.002173 -0.009476  0.001505  0.002798  0.004339  0.000285
  8O   1dxz      -0.005148 -0.008976  0.006582  0.007802 -0.006859  0.000943
  8O   1dyz       0.003427 -0.004862  0.003829  0.006181  0.001563  0.003860
  8O   1dx2y2     0.021390 -0.002138 -0.001005 -0.003252  0.000422 -0.000707
  8O   1dxy      -0.005372 -0.004024 -0.006620 -0.003255 -0.001420 -0.002843
  9O   1s        -0.000166  0.018018  0.016801 -0.010831 -0.000616  0.015268
  9O   2s         0.002002 -0.042149 -0.036988  0.023337 -0.006254 -0.037957
  9O   1pz       -0.054064  0.014825  0.009224  0.035908 -0.015763  0.012509
  9O   1px        0.220172 -0.066770  0.082382 -0.041934  0.000811  0.090185
  9O   1py       -0.308966 -0.041866  0.064975  0.001029 -0.018420  0.014690
  9O   3s        -0.010921 -0.166971 -0.185451  0.122341  0.075457 -0.113857
  9O   2pz       -0.051780  0.079047  0.081209 -0.014898 -0.046520  0.052451
  9O   2px        0.229374 -0.028429  0.059494 -0.066498  0.020774  0.097654
  9O   2py       -0.313504 -0.012542  0.052228  0.005237 -0.037274  0.010154
  9O   1dz2      -0.001313 -0.010199 -0.004761  0.002274  0.001364 -0.003380
  9O   1dxz       0.002234 -0.006190 -0.004133  0.006492  0.001308  0.000123
  9O   1dyz      -0.005259 -0.001360 -0.001146  0.004740 -0.005795 -0.002143
  9O   1dx2y2     0.003466 -0.000311 -0.000143  0.001396 -0.001932  0.002667
  9O   1dxy      -0.001372  0.000823 -0.000031  0.000299  0.003193  0.000590
 10H   1s         0.001098  0.160645 -0.063799  0.008592  0.013403 -0.013429
 10H   2s         0.008363  1.363373 -0.457832 -0.029639  0.256118 -0.105714
 11H   1s        -0.022163 -0.011280  0.057666  0.005434  0.064323 -0.042372
 11H   2s        -0.070410  0.123524  1.031821 -0.029216  0.803934 -0.500732
 12H   1s         0.008002  0.013386  0.038051 -0.090567  0.043766  0.029893
 12H   2s         0.020733  0.202188  0.530460 -0.985504  0.294204  0.654048
                     30        31        32        33        34        35   
                   0.17076   0.18584   0.21693   0.22842   0.27138   0.32207
                   0.00000   0.00000   0.00000   0.00000   0.00000   0.00000
                  --------  --------  --------  --------  --------  --------
  0C   1s        -0.056307  0.011174  0.068753  0.018209 -0.027416 -0.009498
  0C   2s         0.048071 -0.020688 -0.012773 -0.024948  0.023456  0.016605
  0C   1pz       -0.257025  0.213741  0.000024 -0.045070 -0.037739  0.090500
  0C   1px        0.080242  0.122350 -0.019992 -0.056115  0.172597  0.031027
  0C   1py        0.094124  0.113955  0.203762  0.065930 -0.106982  0.059277
  0C   3s         0.984948 -0.131581 -1.412714 -0.200261  0.609437  0.083461
  0C   2pz       -0.996147  0.724003 -0.314726 -0.212809 -0.090422  0.177407
[...]
CI-vector output               ... /Users/lailaal-madhagi/Desktop/Testing_XAS_Analysis_code/Alanine//Results_dir_Alanine_geom_element_O_2019-11-03_23-33-49//GTE1_Alanine_geom_2019-11-03_23-34-01//TDDFT_O-edge.cis
Tamm-Dancoff approximation     ... operative
CIS-Integral strategy          ... AO-integrals
Integral handling              ... AO integral Direct
Max. core memory used          ... 512 MB
Reference state                ... RHF
Generation of triplets         ... off
Follow IRoot                   ... off
Number of operators            ... 1
Orbital ranges used for CIS calculation:
 Operator 0:  Orbitals   0...  1  to  24... 97
XAS localization array:
 Operator 0:  Orbitals  -1... -1
-------------------
XC-INTEGRATION GRID
-------------------

General Integration Accuracy     IntAcc      ...  3.670
Radial Grid Type                 RadialGrid  ... Gauss-Chebyshev
Angular Grid (max. acc.)         AngularGrid ... Lebedev-50
Angular grid pruning method      GridPruning ... 3 (G Style)
Weight generation scheme         WeightScheme... Becke
Basis function cutoff            BFCut       ...    1.0000e-11
Integration weight cutoff        WCut        ...    1.0000e-14
Grids for H and He will be reduced by one unit

# of grid points (after initial pruning)     ...   7336 (   0.0 sec)
# of grid points (after weights+screening)   ...   6903 (   0.0 sec)
nearest neighbour list constructed           ...    0.0 sec
Grid point re-assignment to atoms done       ...    0.0 sec
Grid point division into batches done        ...    0.0 sec
Reduced shell lists constructed in    0.0 sec

Total number of grid points                  ...     6903
Total number of batches                      ...      115
Average number of points per batch           ...       60
Average number of grid points per atom       ...      531
Average number of shells per batch           ...    40.76 (81.52%)
Average number of basis functions per batch  ...    82.36 (84.04%)
Average number of large shells per batch     ...    33.54 (82.30%)
Average number of large basis fcns per batch ...    67.54 (82.01%)
Maximum spatial batch extension              ...  17.18, 17.43, 18.64 au
Average spatial batch extension              ...   4.74,  4.85,  4.70 au


---------------
TD-DFT XC SETUP
---------------

DFT calculation                         ... on
Name of the grid file                   ... /Users/lailaal-madhagi/Desktop/Testing_XAS_Analysis_code/Alanine//Results_dir_Alanine_geom_element_O_2019-11-03_23-33-49//GTE1_Alanine_geom_2019-11-03_23-34-01//TDDFT_O-edge.grid_cis.tmp
Exchange functional (SCF)               ... B88
Exchange functional (TD-DFT)            ... B88
   X-Alpha parameter    XAlpha (SCF)    ...  0.666667
   X-Alpha parameter    XAlpha (TD-DFT) ...  0.666667
   Becke's b parameter  XBeta (SCF)     ...  0.004200
   Becke's b parameter  XBeta (TD-DFT)  ...  0.004200
Correlation functional (SCF)            ... LYP
Correlation functional (TD-DFT)         ... LYP
 LDA part of GGA corr.  LDAOpt (SCF)    ... VWN-5
 LDA part of GGA corr.  LDAOpt (TD-DFT) ... VWN-5
Hybrid DFT                              ... on
   Exchange mixing (SCF)                ...  0.200
   Exchange mixing (TD-DFT)             ...  0.200
   GGA exch. scaling(SCF)               ...  0.720
   GGA exch. scaling (TD-DFT)           ...  0.720
   GGA corr. scaling (SCF)              ...  0.810
   GGA corr. scaling (TD-DFT)           ...  0.810

Building densities             ... done
Calculating rho(r) on the grid ... done
Building xc-kernel on the grid ... done
                    *** TD-DFT CALCULATION INITIALIZED ***


------------------------
DAVIDSON-DIAGONALIZATION
------------------------

Dimension of the eigenvalue problem            ...    148
Number of roots to be determined               ...     20
Maximum size of the expansion space            ...    148
Maximum number of iterations                   ...    100
Convergence tolerance for the residual         ...    2.500e-07
Convergence tolerance for the energies         ...    2.500e-07
Orthogonality tolerance                        ...    1.000e-14
Level Shift                                    ...    0.000e+00
Constructing the preconditioner                ... o.k.
Building the initial guess                     ... o.k.
Number of trial vectors determined             ...    148


                       ****Iteration    0****

   Memory handling for direct AO based CIS:
   Memory per vector needed      ...     1 MB
   Memory needed                 ...    17 MB
   Memory available              ...   512 MB
   Number of vectors per batch   ...   512
   Number of batches             ...     1
   Time for densities:     0.007
   Using LibInt in JK Direct
   Time for J+K (Direct):    40.532
   Time for XC-Integration:     1.718
   Time for Sigma-Completion:     0.076
   Size of expansion space: 60
   Lowest Energy          :    19.052180679052
   Maximum Energy change  :    19.364434794360 (vector 19)
   Maximum residual norm  :     0.000990556455

                       ****Iteration    1****
   Time for densities:     0.002
   Using LibInt in JK Direct
   Time for J+K (Direct):     8.959
   Time for XC-Integration:     0.560
   Time for Sigma-Completion:     0.028
   Size of expansion space: 80
   Lowest Energy          :    19.051330267508
   Maximum Energy change  :     0.000850411544 (vector 0)
   Maximum residual norm  :     0.000000298938

                       ****Iteration    2****
   Time for densities:     0.002
   Using LibInt in JK Direct
   Time for J+K (Direct):     9.049
   Time for XC-Integration:     0.552
   Time for Sigma-Completion:     0.024
   Size of expansion space: 100
   Lowest Energy          :    19.051330151394
   Maximum Energy change  :     0.000000152803 (vector 16)

         *** CONVERGENCE OF ENERGIES REACHED ***

Storing the converged CI vectors               ... /Users/lailaal-madhagi/Desktop/Testing_XAS_Analysis_code/Alanine//Results_dir_Alanine_geom_element_O_2019-11-03_23-33-49//GTE1_Alanine_geom_2019-11-03_23-34-01//TDDFT_O-edge.cis1

                 *** DAVIDSON DONE ***

Total time for solving the CIS problem:    61.845sec

------------------------------------
TD-DFT/TDA EXCITED STATES (SINGLETS)
------------------------------------

the weight of the individual excitations are printed if larger than 1.0e-02

STATE  1:  E=  19.051330 au    518.413 eV  4181283.7 cm**-1
     1a ->  24a  :     0.992360 (c= -0.99617292)

STATE  2:  E=  19.130453 au    520.566 eV  4198649.0 cm**-1
     0a ->  24a  :     0.995393 (c=  0.99769398)

STATE  3:  E=  19.167522 au    521.575 eV  4206784.8 cm**-1
     1a ->  25a  :     0.966359 (c= -0.98303568)
     1a ->  26a  :     0.030763 (c=  0.17539490)

STATE  4:  E=  19.188166 au    522.137 eV  4211315.7 cm**-1
     0a ->  25a  :     0.931007 (c= -0.96488692)
     0a ->  26a  :     0.052829 (c=  0.22984546)

STATE  5:  E=  19.190857 au    522.210 eV  4211906.3 cm**-1
     1a ->  25a  :     0.030724 (c=  0.17528272)
     1a ->  26a  :     0.948500 (c=  0.97390962)

STATE  6:  E=  19.240724 au    523.567 eV  4222850.8 cm**-1
     1a ->  27a  :     0.967013 (c=  0.98336839)
     1a ->  29a  :     0.014387 (c= -0.11994763)

STATE  7:  E=  19.249806 au    523.814 eV  4224844.0 cm**-1
     1a ->  28a  :     0.989499 (c= -0.99473543)

STATE  8:  E=  19.250594 au    523.835 eV  4225017.0 cm**-1
     0a ->  25a  :     0.057285 (c=  0.23934387)
     0a ->  26a  :     0.929243 (c=  0.96397246)

STATE  9:  E=  19.260756 au    524.112 eV  4227247.3 cm**-1
     1a ->  27a  :     0.020228 (c= -0.14222613)
     1a ->  29a  :     0.890384 (c= -0.94360137)
     1a ->  30a  :     0.056869 (c= -0.23847266)
     1a ->  31a  :     0.010533 (c= -0.10263228)

STATE 10:  E=  19.275223 au    524.505 eV  4230422.5 cm**-1
     1a ->  29a  :     0.073910 (c=  0.27186304)
     1a ->  30a  :     0.858213 (c= -0.92639766)
     1a ->  31a  :     0.040390 (c= -0.20097248)

STATE 11:  E=  19.286890 au    524.823 eV  4232983.1 cm**-1
     1a ->  30a  :     0.066184 (c=  0.25726225)
     1a ->  31a  :     0.820806 (c= -0.90598341)
     1a ->  32a  :     0.074849 (c=  0.27358627)
     1a ->  33a  :     0.019387 (c= -0.13923817)

STATE 12:  E=  19.293845 au    525.012 eV  4234509.5 cm**-1
     0a ->  27a  :     0.932427 (c= -0.96562267)
     0a ->  28a  :     0.010239 (c= -0.10119027)
     0a ->  31a  :     0.011820 (c=  0.10871914)
     0a ->  32a  :     0.018870 (c= -0.13736722)

STATE 13:  E=  19.303999 au    525.289 eV  4236738.1 cm**-1
     0a ->  27a  :     0.016290 (c=  0.12763219)
     0a ->  28a  :     0.925016 (c= -0.96177767)
     0a ->  29a  :     0.010235 (c=  0.10116743)
     0a ->  32a  :     0.013908 (c= -0.11793255)

STATE 14:  E=  19.305713 au    525.335 eV  4237114.3 cm**-1
     1a ->  31a  :     0.114517 (c=  0.33840313)
     1a ->  32a  :     0.629745 (c=  0.79356497)
     1a ->  33a  :     0.236615 (c= -0.48643038)

STATE 15:  E=  19.318520 au    525.684 eV  4239925.0 cm**-1
     0a ->  28a  :     0.015846 (c=  0.12588128)
     0a ->  29a  :     0.935545 (c=  0.96723551)
     0a ->  31a  :     0.012164 (c=  0.11029036)
     0a ->  33a  :     0.011021 (c=  0.10498175)

STATE 16:  E=  19.321260 au    525.758 eV  4240526.4 cm**-1
     1a ->  32a  :     0.261548 (c=  0.51141782)
     1a ->  33a  :     0.718697 (c=  0.84776020)

STATE 17:  E=  19.323685 au    525.824 eV  4241058.7 cm**-1
     0a ->  29a  :     0.030609 (c=  0.17495448)
     0a ->  30a  :     0.627988 (c= -0.79245690)
     0a ->  31a  :     0.164371 (c= -0.40542661)
     0a ->  32a  :     0.094309 (c=  0.30709697)
     0a ->  33a  :     0.029545 (c= -0.17188623)
     0a ->  34a  :     0.024443 (c=  0.15634243)

STATE 18:  E=  19.331407 au    526.034 eV  4242753.5 cm**-1
     0a ->  27a  :     0.029898 (c= -0.17291173)
     0a ->  28a  :     0.026375 (c= -0.16240439)
     0a ->  30a  :     0.354068 (c=  0.59503580)
     0a ->  31a  :     0.365454 (c= -0.60452821)
     0a ->  32a  :     0.161341 (c=  0.40167326)
     0a ->  33a  :     0.014861 (c= -0.12190709)
     0a ->  34a  :     0.025811 (c=  0.16065781)

STATE 19:  E=  19.360735 au    526.832 eV  4249190.1 cm**-1
     0a ->  31a  :     0.407010 (c=  0.63797311)
     0a ->  32a  :     0.542816 (c=  0.73676066)
     0a ->  33a  :     0.018236 (c= -0.13503957)
     0a ->  34a  :     0.015917 (c=  0.12616117)

STATE 20:  E=  19.364324 au    526.930 eV  4249977.9 cm**-1
     1a ->  32a  :     0.014822 (c=  0.12174391)
     1a ->  34a  :     0.941735 (c= -0.97043017)
     1a ->  35a  :     0.032444 (c= -0.18012291)


-----------------------------
TD-DFT/TDA-EXCITATION SPECTRA
-----------------------------

Center of mass = ( -3.4515,  1.1446,  0.3707)
Calculating the Dipole integrals                  ... done
Transforming integrals                            ... done
Calculating the Linear Momentum integrals         ... done
Transforming integrals                            ... done
Calculating angular momentum integrals            ... done
Transforming integrals                            ... done

-----------------------------------------------------------------------------
         ABSORPTION SPECTRUM VIA TRANSITION ELECTRIC DIPOLE MOMENTS
-----------------------------------------------------------------------------
State   Energy    Wavelength  fosc         T2        TX        TY        TZ  
        (cm-1)      (nm)                 (au**2)    (au)      (au)      (au) 
-----------------------------------------------------------------------------
   1 4181283.7      2.4   0.032719674   0.00258  -0.02921   0.04088   0.00722
   2 4198649.0      2.4   0.013182944   0.00103  -0.01881   0.02582   0.00362
   3 4206784.8      2.4   0.002365874   0.00019   0.01086   0.00787  -0.00230
   4 4211315.7      2.4   0.022032790   0.00172  -0.03180  -0.02139  -0.01592
   5 4211906.3      2.4   0.002762774   0.00022   0.01202   0.00807   0.00249
   6 4222850.8      2.4   0.000684334   0.00005  -0.00582  -0.00105   0.00429
   7 4224844.0      2.4   0.000121779   0.00001   0.00127   0.00106   0.00260
   8 4225017.0      2.4   0.000217657   0.00002  -0.00369  -0.00183  -0.00015
   9 4227247.3      2.4   0.002455088   0.00019  -0.01173  -0.00454  -0.00574
  10 4230422.5      2.4   0.001345111   0.00010  -0.00480  -0.00236  -0.00872
  11 4232983.1      2.4   0.002077391   0.00016   0.00345   0.00124  -0.01217
  12 4234509.5      2.4   0.004154588   0.00032  -0.00899  -0.00414   0.01500
  13 4236738.1      2.4   0.003153660   0.00025  -0.01193  -0.01003   0.00144
  14 4237114.3      2.4   0.005539681   0.00043  -0.00413   0.00756  -0.01887
  15 4239925.0      2.4   0.000758263   0.00006  -0.00529  -0.00333   0.00445
  16 4240526.4      2.4   0.002370932   0.00018   0.00698   0.00565   0.01017
  17 4241058.7      2.4   0.008988171   0.00070   0.01127   0.01688  -0.01691
  18 4242753.5      2.4   0.008936323   0.00069   0.01955   0.00993  -0.01458
  19 4249190.1      2.4   0.003997666   0.00031   0.01418   0.00448  -0.00941
  20 4249977.9      2.4   0.002119036   0.00016  -0.00972   0.00153   0.00820

-----------------------------------------------------------------------------
         ABSORPTION SPECTRUM VIA TRANSITION VELOCITY DIPOLE MOMENTS
-----------------------------------------------------------------------------
State   Energy    Wavelength   fosc        P2         PX        PY        PZ  
        (cm-1)      (nm)                 (au**2)     (au)      (au)      (au) 
-----------------------------------------------------------------------------
   1 4181283.7      2.4   0.031828087   0.90955   0.54913  -0.76809  -0.13432
   2 4198649.0      2.4   0.012916275   0.37064   0.35555  -0.48933  -0.06917
   3 4206784.8      2.4   0.002337700   0.06721  -0.20745  -0.15048   0.03913
   4 4211315.7      2.4   0.022264444   0.64082   0.61305   0.41100   0.30995
   5 4211906.3      2.4   0.002648749   0.07625  -0.22664  -0.15041  -0.04751
   6 4222850.8      2.4   0.000658932   0.01902   0.10689   0.02793  -0.08253
   7 4224844.0      2.4   0.000152497   0.00440  -0.02002  -0.02066  -0.05980
   8 4225017.0      2.4   0.000246822   0.00713   0.07492   0.03870   0.00406
   9 4227247.3      2.4   0.002434385   0.07033   0.22651   0.07921   0.11291
  10 4230422.5      2.4   0.001230291   0.03557   0.08775   0.04749   0.16005
  11 4232983.1      2.4   0.001845898   0.05340  -0.06061  -0.02560   0.22153
  12 4234509.5      2.4   0.004224998   0.12227   0.17601   0.07367  -0.29303
  13 4236738.1      2.4   0.003107528   0.08998   0.23228   0.18748  -0.02965
  14 4237114.3      2.4   0.005342536   0.15471   0.06948  -0.14229   0.36005
  15 4239925.0      2.4   0.000737332   0.02137   0.09900   0.06750  -0.08372
  16 4240526.4      2.4   0.002248946   0.06518  -0.12385  -0.10283  -0.19816
  17 4241058.7      2.4   0.008579443   0.24868  -0.20760  -0.32254   0.31867
  18 4242753.5      2.4   0.008615264   0.24982  -0.36729  -0.19275   0.27887
  19 4249190.1      2.4   0.003956401   0.11490  -0.27391  -0.08661   0.17991
  20 4249977.9      2.4   0.002008022   0.05833   0.17776  -0.03290  -0.16014

-------------------------------------------------------------------
                             CD SPECTRUM
-------------------------------------------------------------------
State  Energy     Wavelength     R         MX        MY        MZ   
       (cm-1)       (nm)     (1e40*cgs)   (au)      (au)      (au)  
-------------------------------------------------------------------
   1 4181283.7      2.4      0.02305  -0.84835  -0.76805   0.92374
   2 4198649.0      2.4     -0.02401   0.49274   0.23047   0.90237
   3 4206784.8      2.4     -0.00948  -0.18519   0.27711   0.08318
   4 4211315.7      2.4     -0.03049  -0.62567   0.92931   0.00545
   5 4211906.3      2.4      0.00889  -0.15731   0.21288   0.07705
   6 4222850.8      2.4     -0.04379   0.05756  -0.20522   0.00606
   7 4224844.0      2.4     -0.00366  -0.00526  -0.03545   0.01410
   8 4225017.0      2.4      0.00321  -0.03795   0.07176   0.01485
   9 4227247.3      2.4      0.03158   0.05698  -0.15184  -0.00795
  10 4230422.5      2.4      0.00610   0.00553   0.05539  -0.01953
  11 4232983.1      2.4     -0.02664  -0.09834   0.28819   0.00617
  12 4234509.5      2.4      0.03533   0.17981  -0.20549   0.05608
  13 4236738.1      2.4     -0.03237  -0.14184   0.17025  -0.03731
  14 4237114.3      2.4      0.07413  -0.27669   0.27322   0.16157
  15 4239925.0      2.4     -0.00079   0.00967  -0.01489  -0.00004
  16 4240526.4      2.4     -0.02625  -0.05963  -0.04919   0.06277
  17 4241058.7      2.4     -0.01830   0.01883   0.21055   0.22494
  18 4242753.5      2.4     -0.01209  -0.06250   0.01878  -0.06929
  19 4249190.1      2.4      0.00389  -0.07399  -0.02086  -0.12227
  20 4249977.9      2.4      0.02251   0.01164  -0.36343   0.08723

Total run time:       62.070 sec

           *** ORCA-CIS/TD-DFT FINISHED WITHOUT ERROR ***

-----------------------
CIS/TD-DFT TOTAL ENERGY
-----------------------

    E(SCF)  =   -323.553473364 Eh
    DE(CIS) =     19.051330151 Eh (Root  1)
    ----------------------------- ---------
    E(tot)  =   -304.502143213 Eh


-------------------------   --------------------
FINAL SINGLE POINT ENERGY      -304.502143212852
-------------------------   --------------------


                            ***************************************
                            *     ORCA property calculations      *
                            ***************************************

                                    ---------------------
                                    Active property flags
                                    ---------------------
   (+) Dipole Moment


------------------------------------------------------------------------------
                       ORCA ELECTRIC PROPERTIES CALCULATION
------------------------------------------------------------------------------

Dipole Moment Calculation                       ... on
Quadrupole Moment Calculation                   ... off
Polarizability Calculation                      ... off
GBWName                                         ... /Users/lailaal-madhagi/Desktop/Testing_XAS_Analysis_code/Alanine//Results_dir_Alanine_geom_element_O_2019-11-03_23-33-49//GTE1_Alanine_geom_2019-11-03_23-34-01//TDDFT_O-edge.gbw
Electron density file                           ... /Users/lailaal-madhagi/Desktop/Testing_XAS_Analysis_code/Alanine//Results_dir_Alanine_geom_element_O_2019-11-03_23-33-49//GTE1_Alanine_geom_2019-11-03_23-34-01//TDDFT_O-edge.scfp.tmp
The origin for moment calculation is the CENTER OF MASS  = (-3.451527,  1.144559  0.370724)

-------------
DIPOLE MOMENT
-------------
                                X             Y             Z
Electronic contribution:      5.85776       0.85060       1.14558
Nuclear contribution   :     -6.36950      -0.38119      -1.55924
                        -----------------------------------------
Total Dipole Moment    :     -0.51174       0.46941      -0.41366
                        -----------------------------------------
Magnitude (a.u.)       :      0.80829
Magnitude (Debye)      :      2.05452



--------------------
Rotational spectrum 
--------------------
 
Rotational constants in cm-1:     0.167579     0.100804     0.077855 
Rotational constants in MHz :  5023.887062  3022.021359  2334.032814 

 Dipole components along the rotational axes: 
x,y,z [a.u.] :    -0.210046     0.747010     0.226270 
x,y,z [Debye]:    -0.533893     1.898748     0.575133 

 

Timings for individual modules:

Sum of individual times         ...       83.419 sec (=   1.390 min)
GTO integral calculation        ...        1.335 sec (=   0.022 min)   1.6 %
SCF iterations                  ...       19.461 sec (=   0.324 min)  23.3 %
CIS module                      ...       62.622 sec (=   1.044 min)  75.1 %
                             ****ORCA TERMINATED NORMALLY****
TOTAL RUN TIME: 0 days 0 hours 1 minutes 23 seconds 562 msec
