
                                 *****************
                                 * O   R   C   A *
                                 *****************

           --- An Ab Initio, DFT and Semiempirical electronic structure package ---

                  #######################################################
                  #                        -***-                        #
                  #          Department of theory and spectroscopy      #
                  #               Directorship: Frank Neese             #
                  #        Max Planck Institute fuer Kohlenforschung    #
                  #                Kaiser Wilhelm Platz 1               #
                  #                 D-45470 Muelheim/Ruhr               #
                  #                      Germany                        #
                  #                                                     #
                  #                  All rights reserved                #
                  #                        -***-                        #
                  #######################################################


                         Program Version 4.1.0  - RELEASE  -


 With contributions from (in alphabetic order):
   Daniel Aravena         : Magnetic Properties
   Michael Atanasov       : Ab Initio Ligand Field Theory
   Alexander A. Auer      : GIAO ZORA
   Ute Becker             : Parallelization
   Giovanni Bistoni       : ED, Open-shell LED
   Martin Brehm           : Molecular dynamics
   Dmytro Bykov           : SCF Hessian
   Vijay G. Chilkuri      : MRCI spin determinant printing
   Dipayan Datta          : RHF DLPNO-CCSD density
   Achintya Kumar Dutta   : EOM-CC, STEOM-CC
   Dmitry Ganyushin       : Spin-Orbit,Spin-Spin,Magnetic field MRCI
   Miquel Garcia          : C-PCM Hessian
   Yang Guo               : DLPNO-NEVPT2, CIM, IAO-localization
   Andreas Hansen         : Spin unrestricted coupled pair/coupled cluster methods
   Benjamin Helmich-Paris : CASSCF linear response (MC-RPA)
   Lee Huntington         : MR-EOM, pCC
   Robert Izsak           : Overlap fitted RIJCOSX, COSX-SCS-MP3, EOM
   Christian Kollmar      : KDIIS, OOCD, Brueckner-CCSD(T), CCSD density
   Simone Kossmann        : Meta GGA functionals, TD-DFT gradient, OOMP2, MP2 Hessian
   Martin Krupicka        : AUTO-CI
   Lucas Lang             : DCDCAS
   Dagmar Lenk            : GEPOL surface, SMD
   Dimitrios Liakos       : Extrapolation schemes; parallel MDCI
   Dimitrios Manganas     : ROCIS; embedding schemes
   Dimitrios Pantazis     : SARC Basis sets
   Taras Petrenko         : DFT Hessian,TD-DFT gradient, ASA, ECA, R-Raman, ABS, FL, XAS/XES, NRVS
   Peter Pinski           : DLPNO-MP2, DLPNO-MP2 Gradient
   Christoph Reimann      : Effective Core Potentials
   Marius Retegan         : Local ZFS, SOC
   Christoph Riplinger    : Optimizer, TS searches, QM/MM, DLPNO-CCSD(T), (RO)-DLPNO pert. Triples
   Tobias Risthaus        : Range-separated hybrids, TD-DFT gradient, RPA, STAB
   Michael Roemelt        : Restricted open shell CIS
   Masaaki Saitow         : Open-shell DLPNO
   Barbara Sandhoefer     : DKH picture change effects
   Avijit Sen             : IP-ROCIS
   Kantharuban Sivalingam : CASSCF convergence, NEVPT2, FIC-MRCI
   Bernardo de Souza      : ESD, SOC TD-DFT
   Georgi Stoychev        : AutoAux, RI-MP2 NMR
   Willem Van den Heuvel  : Paramagnetic NMR
   Boris Wezisla          : Elementary symmetry handling
   Frank Wennmohs         : Technical directorship


 We gratefully acknowledge several colleagues who have allowed us to
 interface, adapt or use parts of their codes:
   Stefan Grimme, W. Hujo, H. Kruse,             : VdW corrections, initial TS optimization,
                  C. Bannwarth                     DFT functionals, gCP, sTDA/sTD-DF
   Ed Valeev                                     : LibInt (2-el integral package), F12 methods
   Garnet Chan, S. Sharma, J. Yang, R. Olivares  : DMRG
   Ulf Ekstrom                                   : XCFun DFT Library
   Mihaly Kallay                                 : mrcc  (arbitrary order and MRCC methods)
   Andreas Klamt, Michael Diedenhofen            : otool_cosmo (COSMO solvation model)
   Jiri Pittner, Ondrej Demel                    : Mk-CCSD
   Frank Weinhold                                : gennbo (NPA and NBO analysis)
   Christopher J. Cramer and Donald G. Truhlar   : smd solvation model
   Lars Goerigk                                  : TD-DFT with DH, B97 family of functionals
   V. Asgeirsson, H. Jonsson                     : NEB implementation
   FAccTs GmbH                                   : IRC, NEB, NEB-TS, Multilevel


 Your calculation uses the libint2 library for the computation of 2-el integrals
 For citations please refer to: http://libint.valeyev.net

 This ORCA versions uses:
   CBLAS   interface :  Fast vector & matrix operations
   LAPACKE interface :  Fast linear algebra routines
   SCALAPACK package :  Parallel linear algebra routines




***************************************
The coordinates will be read from file: /Users/lailaal-madhagi/Desktop/Testing_XAS_Analysis_code/Borazine/Borazine_geom.xyz
***************************************


----- Orbital basis set information -----
Your calculation utilizes the basis: 6-31G*
   H-He, Li-Ne : W. J. Hehre, R. Ditchfield and J.A. Pople, J. Chem. Phys. 56, 2257 (1972).
                 Note: He and Ne are unpublished basis sets taken from the Gaussian program.
                 Note: Li and B from J. D. Dill and J. A. Pople, J. Chem. Phys. 62, 2921 (1975).
   Na - Ar     : M. M. Francl, W. J. Pietro, W. J. Hehre, J. S. Binkley, M. S. Gordon, 
                 D. J. DeFrees and J. A. Pople, J. Chem. Phys. 77, 3654 (1982).
   K - Zn      : V. A. Rassolov, J. A. Pople, M. A. Ratner, and T. L. Windus, J. Chem. Phys. 109, 1223 (1998).

================================================================================
                                        WARNINGS
                       Please study these warnings very carefully!
================================================================================


WARNING: Geometry Optimization
  ===> : Switching off AutoStart
         For restart on a previous wavefunction, please use MOREAD

INFO   : the flag for use of LIBINT has been found!

================================================================================
                                       INPUT FILE
================================================================================
NAME = /Users/lailaal-madhagi/Desktop/Testing_XAS_Analysis_code/Borazine//Results_dir_Borazine_geom_element_B_2019-11-09_12-51-34//GTE1_Borazine_geom_2019-11-09_12-51-43//opt.inp
|  1> ! B3LYP 6-31G* TIGHTSCF Grid3 FinalGrid5 Opt 
|  2> !NormalPrint 
|  3> %output 
|  4> Print[P_Basis] 2 
|  5> Print[P_MOS] 1 
|  6> end 
|  7> *xyzfile 0 1 /Users/lailaal-madhagi/Desktop/Testing_XAS_Analysis_code/Borazine/Borazine_geom.xyz                           ****END OF INPUT****
================================================================================

                       *****************************
                       * Geometry Optimization Run *
                       *****************************

Geometry optimization settings:
Update method            Update   .... BFGS
Choice of coordinates    CoordSys .... Z-matrix Internals
Initial Hessian          InHess   .... Almoef's Model

Convergence Tolerances:
Energy Change            TolE     ....  5.0000e-06 Eh
Max. Gradient            TolMAXG  ....  3.0000e-04 Eh/bohr
RMS Gradient             TolRMSG  ....  1.0000e-04 Eh/bohr
Max. Displacement        TolMAXD  ....  4.0000e-03 bohr
RMS Displacement         TolRMSD  ....  2.0000e-03 bohr

------------------------------------------------------------------------------
                        ORCA OPTIMIZATION COORDINATE SETUP
------------------------------------------------------------------------------

The optimization will be done in new redundant internal coordinates
Making redundant internal coordinates   ...  (new redundants) done
Evaluating the initial hessian          ...  (Almloef) done
Evaluating the coordinates              ...  done
Calculating the B-matrix                .... done
Calculating the G-matrix                .... done
Diagonalizing the G-matrix              .... done
The first mode is                       ....   24
The number of degrees of freedom        ....   30

    -----------------------------------------------------------------
                    Redundant Internal Coordinates


    -----------------------------------------------------------------
         Definition                    Initial Value    Approx d2E/dq
    -----------------------------------------------------------------
      1. B(B   1,N   0)                  1.5261         0.393187   
      2. B(B   2,N   0)                  1.5261         0.393192   
      3. B(N   3,B   2)                  1.5261         0.393190   
      4. B(B   4,N   3)                  1.5261         0.393199   
      5. B(N   5,B   4)                  1.5261         0.393184   
      6. B(N   5,B   1)                  1.5261         0.393197   
      7. B(H   6,B   2)                  1.1813         0.298240   
      8. B(H   7,N   0)                  1.0445         0.381223   
      9. B(H   8,B   1)                  1.1813         0.298251   
     10. B(H   9,N   5)                  1.0445         0.381225   
     11. B(H  10,B   4)                  1.1813         0.298248   
     12. B(H  11,N   3)                  1.0445         0.381220   
     13. A(B   1,N   0,B   2)          118.4811         0.371312   
     14. A(B   2,N   0,H   7)          120.7592         0.327991   
     15. A(B   1,N   0,H   7)          120.7597         0.327990   
     16. A(N   0,B   1,N   5)          121.5188         0.371313   
     17. A(N   5,B   1,H   8)          119.2407         0.321231   
     18. A(N   0,B   1,H   8)          119.2405         0.321229   
     19. A(N   0,B   2,H   6)          119.2403         0.321228   
     20. A(N   3,B   2,H   6)          119.2406         0.321228   
     21. A(N   0,B   2,N   3)          121.5190         0.371312   
     22. A(B   2,N   3,B   4)          118.4809         0.371313   
     23. A(B   4,N   3,H  11)          120.7598         0.327991   
     24. A(B   2,N   3,H  11)          120.7593         0.327990   
     25. A(N   3,B   4,H  10)          119.2404         0.321230   
     26. A(N   3,B   4,N   5)          121.5191         0.371312   
     27. A(N   5,B   4,H  10)          119.2405         0.321228   
     28. A(B   4,N   5,H   9)          120.7593         0.327990   
     29. A(B   1,N   5,H   9)          120.7597         0.327992   
     30. A(B   1,N   5,B   4)          118.4811         0.371312   
     31. D(H   8,B   1,N   0,B   2)    180.0000         0.010186   
     32. D(H   8,B   1,N   0,H   7)      0.0004         0.010186   
     33. D(N   5,B   1,N   0,H   7)   -179.9994         0.010186   
     34. D(N   5,B   1,N   0,B   2)      0.0001         0.010186   
     35. D(H   6,B   2,N   0,B   1)   -179.9996         0.010186   
     36. D(N   3,B   2,N   0,B   1)     -0.0003         0.010186   
     37. D(N   3,B   2,N   0,H   7)    179.9993         0.010186   
     38. D(H   6,B   2,N   0,H   7)     -0.0000         0.010186   
     39. D(H  11,N   3,B   2,H   6)     -0.0006         0.010186   
     40. D(H  11,N   3,B   2,N   0)   -179.9999         0.010186   
     41. D(B   4,N   3,B   2,H   6)    179.9999         0.010186   
     42. D(B   4,N   3,B   2,N   0)      0.0006         0.010186   
     43. D(H  10,B   4,N   3,B   2)    179.9993         0.010187   
     44. D(N   5,B   4,N   3,H  11)    179.9998         0.010187   
     45. D(N   5,B   4,N   3,B   2)     -0.0007         0.010187   
     46. D(H  10,B   4,N   3,H  11)     -0.0002         0.010187   
     47. D(H   9,N   5,B   4,H  10)     -0.0002         0.010186   
     48. D(B   1,N   5,B   4,H  10)   -179.9994         0.010186   
     49. D(B   1,N   5,B   4,N   3)      0.0006         0.010186   
     50. D(H   9,N   5,B   1,H   8)      0.0007         0.010187   
     51. D(H   9,N   5,B   1,N   0)   -179.9995         0.010187   
     52. D(H   9,N   5,B   4,N   3)    179.9998         0.010186   
     53. D(B   4,N   5,B   1,H   8)    179.9999         0.010187   
     54. D(B   4,N   5,B   1,N   0)     -0.0003         0.010187   
    -----------------------------------------------------------------

Number of atoms                         .... 12
Number of degrees of freedom            .... 54

         *************************************************************
         *                GEOMETRY OPTIMIZATION CYCLE   1            *
         *************************************************************
---------------------------------
CARTESIAN COORDINATES (ANGSTROEM)
---------------------------------
  N     -2.622320    0.616540    0.042700
  B     -1.115400    0.857340    0.032620
  B     -3.129280   -0.822860    0.044550
  N     -2.167300   -2.007520    0.036590
  B     -0.667300   -1.726860    0.026610
  N     -0.122360   -0.301400    0.024480
  H     -4.293190   -1.024700    0.052310
  H     -3.291420    1.418550    0.048200
  H     -0.708240    1.966250    0.031080
  H      0.906740   -0.122940    0.017620
  H      0.089440   -2.633930    0.020390
  H     -2.527310   -2.988000    0.037950

----------------------------
CARTESIAN COORDINATES (A.U.)
----------------------------
  NO LB      ZA    FRAG     MASS         X           Y           Z
   0 N     7.0000    0    14.007   -4.955467    1.165092    0.080691
   1 B     5.0000    0    10.810   -2.107801    1.620138    0.061643
   2 B     5.0000    0    10.810   -5.913482   -1.554980    0.084187
   3 N     7.0000    0    14.007   -4.095603   -3.793663    0.069145
   4 B     5.0000    0    10.810   -1.261014   -3.263292    0.050286
   5 N     7.0000    0    14.007   -0.231227   -0.569563    0.046260
   6 H     1.0000    0     1.008   -8.112953   -1.936402    0.098852
   7 H     1.0000    0     1.008   -6.219882    2.680671    0.091085
   8 H     1.0000    0     1.008   -1.338380    3.715674    0.058733
   9 H     1.0000    0     1.008    1.713490   -0.232323    0.033297
  10 H     1.0000    0     1.008    0.169017   -4.977406    0.038532
  11 H     1.0000    0     1.008   -4.775924   -5.646502    0.071715

--------------------------------
INTERNAL COORDINATES (ANGSTROEM)
--------------------------------
 N      0   0   0     0.000000000000     0.00000000     0.00000000
 B      1   0   0     1.526071470410     0.00000000     0.00000000
 B      1   2   0     1.526068223934   118.48109012     0.00000000
 N      3   1   2     1.526069525808   121.51903977     0.00000000
 B      4   3   1     1.526063444291   118.48090336     0.00000000
 N      2   1   3     1.526064575567   121.51878459     0.00000000
 H      3   1   2     1.181306942035   119.24032131   180.00042097
 H      1   2   3     1.044483173680   120.75974329   180.00044092
 H      2   1   3     1.181297179079   119.24051571   179.99995998
 H      6   2   1     1.044481613625   120.75965381   180.00050214
 H      5   4   3     1.181300173919   119.24042865   179.99925901
 H      4   3   1     1.044485557631   120.75931518   180.00007136

---------------------------
INTERNAL COORDINATES (A.U.)
---------------------------
 N      0   0   0     0.000000000000     0.00000000     0.00000000
 B      1   0   0     2.883857139866     0.00000000     0.00000000
 B      1   2   0     2.883851004914   118.48109012     0.00000000
 N      3   1   2     2.883853465100   121.51903977     0.00000000
 B      4   3   1     2.883841972698   118.48090336     0.00000000
 N      2   1   3     2.883844110500   121.51878459     0.00000000
 H      3   1   2     2.232346600546   119.24032131   180.00042097
 H      1   2   3     1.973787149744   120.75974329   180.00044092
 H      2   1   3     2.232328151233   119.24051571   179.99995998
 H      6   2   1     1.973784201667   120.75965381   180.00050214
 H      5   4   3     2.232333810660   119.24042865   179.99925901
 H      4   3   1     1.973791654759   120.75931518   180.00007136

---------------------
BASIS SET INFORMATION
---------------------
There are 3 groups of distinct atoms

 Group   1 Type N   : 10s4p1d contracted to 3s2p1d pattern {631/31/1}
 Group   2 Type B   : 10s4p1d contracted to 3s2p1d pattern {631/31/1}
 Group   3 Type H   : 4s contracted to 2s pattern {31}

Atom   0N    basis set group =>   1
Atom   1B    basis set group =>   2
Atom   2B    basis set group =>   2
Atom   3N    basis set group =>   1
Atom   4B    basis set group =>   2
Atom   5N    basis set group =>   1
Atom   6H    basis set group =>   3
Atom   7H    basis set group =>   3
Atom   8H    basis set group =>   3
Atom   9H    basis set group =>   3
Atom  10H    basis set group =>   3
Atom  11H    basis set group =>   3

-------------------------
BASIS SET IN INPUT FORMAT
-------------------------

 # Basis set for element : H 
 NewGTO H 
 S 3 
   1      18.7311370000      0.0334945995
   2       2.8253937000      0.2347269467
   3       0.6401217000      0.8137573184
 S 1 
   1       0.1612778000      1.0000000000
  end;

 # Basis set for element : B 
 NewGTO B 
 S 6 
   1    2068.8823000000      0.0018663001
   2     310.6495700000      0.0142515011
   3      70.6830330000      0.0695516052
   4      19.8610800000      0.2325729174
   5       6.2993048000      0.4670787350
   6       2.1270270000      0.3634314273
 S 3 
   1       4.7279710000     -0.1303938072
   2       1.1903377000     -0.1307889072
   3       0.3594117000      1.1309444622
 P 3 
   1       4.7279710000      0.0745975998
   2       1.1903377000      0.3078466992
   3       0.3594117000      0.7434567980
 S 1 
   1       0.1267512000      1.0000000000
 P 1 
   1       0.1267512000      1.0000000000
 D 1 
   1       0.6000000000      1.0000000000
  end;

 # Basis set for element : N 
 NewGTO N 
 S 6 
   1    4173.5110000000      0.0018347994
   2     627.4579000000      0.0139949958
   3     142.9021000000      0.0685869792
   4      40.2343300000      0.2322409295
   5      12.8202100000      0.4690698576
   6       4.3904370000      0.3604548906
 S 3 
   1      11.6263580000     -0.1149610229
   2       2.7162800000     -0.1691180337
   3       0.7722180000      1.1458522281
 P 3 
   1      11.6263580000      0.0675800232
   2       2.7162800000      0.3239071114
   3       0.7722180000      0.7408952549
 S 1 
   1       0.2120313000      1.0000000000
 P 1 
   1       0.2120313000      1.0000000000
 D 1 
   1       0.8000000000      1.0000000000
  end;

------------------------------------------------------------------------------
                           ORCA GTO INTEGRAL CALCULATION
------------------------------------------------------------------------------

                         BASIS SET STATISTICS AND STARTUP INFO

 # of primitive gaussian shells          ...  114
 # of primitive gaussian functions       ...  186
 # of contracted shells                  ...   48
 # of contracted basis functions         ...   96
 Highest angular momentum                ...    2
 Maximum contraction depth               ...    6
 Integral package used                   ... LIBINT
 Integral threshhold            Thresh   ...  2.500e-11
 Primitive cut-off              TCut     ...  2.500e-12


------------------------------ INTEGRAL EVALUATION ----------------------------


 * One electron integrals 
 Pre-screening matrix                    ... done
 Shell pair data                         ... done (   0.001 sec)

-------------------------------------------------------------------------------
                                 ORCA SCF
-------------------------------------------------------------------------------

------------
SCF SETTINGS
------------
Hamiltonian:
 Density Functional     Method          .... DFT(GTOs)
 Exchange Functional    Exchange        .... B88
   X-Alpha parameter    XAlpha          ....  0.666667
   Becke's b parameter  XBeta           ....  0.004200
 Correlation Functional Correlation     .... LYP
 LDA part of GGA corr.  LDAOpt          .... VWN-5
 Gradients option       PostSCFGGA      .... off
 Hybrid DFT is turned on
   Fraction HF Exchange ScalHFX         ....  0.200000
   Scaling of DF-GGA-X  ScalDFX         ....  0.720000
   Scaling of DF-GGA-C  ScalDFC         ....  0.810000
   Scaling of DF-LDA-C  ScalLDAC        ....  1.000000
   Perturbative correction              ....  0.000000
   Density functional embedding theory  .... OFF
   NL short-range parameter             ....  4.800000


General Settings:
 Integral files         IntName         .... /Users/lailaal-madhagi/Desktop/Testing_XAS_Analysis_code/Borazine//Results_dir_Borazine_geom_element_B_2019-11-09_12-51-34//GTE1_Borazine_geom_2019-11-09_12-51-43//opt
 Hartree-Fock type      HFTyp           .... RHF
 Total Charge           Charge          ....    0
 Multiplicity           Mult            ....    1
 Number of Electrons    NEL             ....   42
 Basis Dimension        Dim             ....   96
 Nuclear Repulsion      ENuc            ....    186.5023119479 Eh

Convergence Acceleration:
 DIIS                   CNVDIIS         .... on
   Start iteration      DIISMaxIt       ....    12
   Startup error        DIISStart       ....  0.200000
   # of expansion vecs  DIISMaxEq       ....     5
   Bias factor          DIISBfac        ....   1.050
   Max. coefficient     DIISMaxC        ....  10.000
 Newton-Raphson         CNVNR           .... off
 SOSCF                  CNVSOSCF        .... on
   Start iteration      SOSCFMaxIt      ....   150
   Startup grad/error   SOSCFStart      ....  0.003300
 Level Shifting         CNVShift        .... on
   Level shift para.    LevelShift      ....    0.2500
   Turn off err/grad.   ShiftErr        ....    0.0010
 Zerner damping         CNVZerner       .... off
 Static damping         CNVDamp         .... on
   Fraction old density DampFac         ....    0.7000
   Max. Damping (<1)    DampMax         ....    0.9800
   Min. Damping (>=0)   DampMin         ....    0.0000
   Turn off err/grad.   DampErr         ....    0.1000
 Fernandez-Rico         CNVRico         .... off

SCF Procedure:
 Maximum # iterations   MaxIter         ....   125
 SCF integral mode      SCFMode         .... Direct
   Integral package                     .... LIBINT
 Reset frequency        DirectResetFreq ....    20
 Integral Threshold     Thresh          ....  2.500e-11 Eh
 Primitive CutOff       TCut            ....  2.500e-12 Eh

Convergence Tolerance:
 Convergence Check Mode ConvCheckMode   .... Total+1el-Energy
 Convergence forced     ConvForced      .... 0
 Energy Change          TolE            ....  1.000e-08 Eh
 1-El. energy change                    ....  1.000e-05 Eh
 Orbital Gradient       TolG            ....  1.000e-05
 Orbital Rotation angle TolX            ....  1.000e-05
 DIIS Error             TolErr          ....  5.000e-07


Diagonalization of the overlap matrix:
Smallest eigenvalue                        ... 9.426e-03
Time for diagonalization                   ...    0.008 sec
Threshold for overlap eigenvalues          ... 1.000e-08
Number of eigenvalues below threshold      ... 0
Time for construction of square roots      ...    0.002 sec
Total time needed                          ...    0.010 sec

-------------------
DFT GRID GENERATION
-------------------

General Integration Accuracy     IntAcc      ...  4.340
Radial Grid Type                 RadialGrid  ... Gauss-Chebyshev
Angular Grid (max. acc.)         AngularGrid ... Lebedev-194
Angular grid pruning method      GridPruning ... 3 (G Style)
Weight generation scheme         WeightScheme... Becke
Basis function cutoff            BFCut       ...    1.0000e-11
Integration weight cutoff        WCut        ...    1.0000e-14
Grids for H and He will be reduced by one unit

# of grid points (after initial pruning)     ...  29004 (   0.0 sec)
# of grid points (after weights+screening)   ...  27227 (   0.0 sec)
nearest neighbour list constructed           ...    0.0 sec
Grid point re-assignment to atoms done       ...    0.0 sec
Grid point division into batches done        ...    0.0 sec
Reduced shell lists constructed in    0.1 sec

Total number of grid points                  ...    27227
Total number of batches                      ...      430
Average number of points per batch           ...       63
Average number of grid points per atom       ...     2269
Average number of shells per batch           ...    36.19 (75.40%)
Average number of basis functions per batch  ...    75.74 (78.90%)
Average number of large shells per batch     ...    29.33 (81.03%)
Average number of large basis fcns per batch ...    61.03 (80.58%)
Maximum spatial batch extension              ...  24.36, 24.76, 28.67 au
Average spatial batch extension              ...   3.44,  3.58,  4.38 au

Time for grid setup =    0.225 sec

------------------------------
INITIAL GUESS: MODEL POTENTIAL
------------------------------
Loading Hartree-Fock densities                     ... done
Calculating cut-offs                               ... done
Setting up the integral package                    ... done
Initializing the effective Hamiltonian             ... done
Starting the Coulomb interaction                   ... done (   0.0 sec)
Reading the grid                                   ... done
Mapping shells                                     ... done
Starting the XC term evaluation                    ... done (   0.2 sec)
  promolecular density results
     # of electrons  =     41.997691606
     EX              =    -32.842989285
     EC              =     -1.357713034
     EX+EC           =    -34.200702320
Transforming the Hamiltonian                       ... done (   0.0 sec)
Diagonalizing the Hamiltonian                      ... done (   0.0 sec)
Back transforming the eigenvectors                 ... done (   0.0 sec)
Now organizing SCF variables                       ... done
                      ------------------
                      INITIAL GUESS DONE (   0.5 sec)
                      ------------------
--------------
SCF ITERATIONS
--------------
               ***  Starting incremental Fock matrix formation  ***

                         ----------------------------
                         !        ITERATION     0   !
                         ----------------------------
   Total Energy        :    -242.203396336907 Eh
   Energy Change       :    -242.203396336907 Eh
   MAX-DP              :       0.094781512125
   RMS-DP              :       0.003636412487
   Actual Damping      :       0.7000
   Actual Level Shift  :       0.2500 Eh
   Int. Num. El.       :    42.00021053 (UP=   21.00010527 DN=   21.00010527)
   Exchange            :   -27.25991664
   Correlation         :    -1.64451713


                         ----------------------------
                         !        ITERATION     1   !
                         ----------------------------
   Total Energy        :    -242.333231207454 Eh
   Energy Change       :      -0.129834870547 Eh
   MAX-DP              :       0.059793532567
   RMS-DP              :       0.002412012593
   Actual Damping      :       0.7000
   Actual Level Shift  :       0.2500 Eh
   Int. Num. El.       :    42.00025483 (UP=   21.00012742 DN=   21.00012742)
   Exchange            :   -26.92948418
   Correlation         :    -1.63254807

                               ***Turning on DIIS***

                         ----------------------------
                         !        ITERATION     2   !
                         ----------------------------
   Total Energy        :    -242.378043160869 Eh
   Energy Change       :      -0.044811953415 Eh
   MAX-DP              :       0.075997414571
   RMS-DP              :       0.003428888880
   Actual Damping      :       0.0000
   Actual Level Shift  :       0.2500 Eh
   Int. Num. El.       :    42.00028812 (UP=   21.00014406 DN=   21.00014406)
   Exchange            :   -26.72962335
   Correlation         :    -1.62480024
   DIIS-Error          :       0.032854986482


                         ----------------------------
                         !        ITERATION     3   !
                         ----------------------------
   Total Energy        :    -242.451021762459 Eh
   Energy Change       :      -0.072978601590 Eh
   MAX-DP              :       0.038143608530
   RMS-DP              :       0.001611474367
   Actual Damping      :       0.0000
   Actual Level Shift  :       0.2500 Eh
   Int. Num. El.       :    42.00034364 (UP=   21.00017182 DN=   21.00017182)
   Exchange            :   -26.48902705
   Correlation         :    -1.61461606
   DIIS-Error          :       0.063674864213
   DIIS coefficients:
      0.67601   0.32399


                         ----------------------------
                         !        ITERATION     4   !
                         ----------------------------
   Total Energy        :    -242.468680115359 Eh
   Energy Change       :      -0.017658352900 Eh
   MAX-DP              :       0.011535580381
   RMS-DP              :       0.000530698685
   Actual Damping      :       0.0000
   Actual Level Shift  :       0.2500 Eh
   Int. Num. El.       :    42.00032791 (UP=   21.00016395 DN=   21.00016395)
   Exchange            :   -26.61004664
   Correlation         :    -1.61938947
   DIIS-Error          :       0.010862594159
   DIIS coefficients:
      0.17949  -0.03735   0.85786

                      *** Initiating the SOSCF procedure ***
                           *** Shutting down DIIS ***
                      *** Re-Reading the Fockian *** 
                      *** Removing any level shift *** 

                         ----------------------------
                         !        ITERATION     5   !
                         ----------------------------
   Total Energy        :    -242.469471018424 Eh
   Energy Change       :      -0.000790903065 Eh
   MAX-DP              :       0.002286852571
   RMS-DP              :       0.000123673124
   Orbital gradient    :       0.001205133483
   Orbital Rotation    :       0.001205133483
   Actual Damping      :       0.0000
   Int. Num. El.       :    42.00032024 (UP=   21.00016012 DN=   21.00016012)
   Exchange            :   -26.63046701
   Correlation         :    -1.62050586

               *** Restarting incremental Fock matrix formation ***

                         ----------------------------
                         !        ITERATION     6   !
                         ----------------------------
   Total Energy        :    -242.469524079797 Eh
   Energy Change       :      -0.000053061374 Eh
   MAX-DP              :       0.001353696664
   RMS-DP              :       0.000067752921
   Orbital gradient    :       0.000473150507
   Orbital Rotation    :       0.001713655445
   Actual Damping      :       0.0000
   Int. Num. El.       :    42.00031875 (UP=   21.00015938 DN=   21.00015938)
   Exchange            :   -26.63659148
   Correlation         :    -1.62071854


                         ----------------------------
                         !        ITERATION     7   !
                         ----------------------------
   Total Energy        :    -242.469532058871 Eh
   Energy Change       :      -0.000007979074 Eh
   MAX-DP              :       0.000494268646
   RMS-DP              :       0.000025080921
   Orbital gradient    :       0.000142790973
   Orbital Rotation    :       0.000286430220
   Actual Damping      :       0.0000
   Int. Num. El.       :    42.00031814 (UP=   21.00015907 DN=   21.00015907)
   Exchange            :   -26.63816684
   Correlation         :    -1.62078239


                         ----------------------------
                         !        ITERATION     8   !
                         ----------------------------
   Total Energy        :    -242.469531851519 Eh
   Energy Change       :       0.000000207352 Eh
   MAX-DP              :       0.000266397283
   RMS-DP              :       0.000011659633
   Orbital gradient    :       0.000220490347
   Orbital Rotation    :       0.000145838861
   Actual Damping      :       0.0000
   Int. Num. El.       :    42.00031824 (UP=   21.00015912 DN=   21.00015912)
   Exchange            :   -26.63677622
   Correlation         :    -1.62072593


                         ----------------------------
                         !        ITERATION     9   !
                         ----------------------------
   Total Energy        :    -242.469532612485 Eh
   Energy Change       :      -0.000000760966 Eh
   MAX-DP              :       0.000063327474
   RMS-DP              :       0.000003354678
   Orbital gradient    :       0.000027952121
   Orbital Rotation    :       0.000051601427
   Actual Damping      :       0.0000
   Int. Num. El.       :    42.00031824 (UP=   21.00015912 DN=   21.00015912)
   Exchange            :   -26.63754055
   Correlation         :    -1.62075412


                         ----------------------------
                         !        ITERATION    10   !
                         ----------------------------
   Total Energy        :    -242.469532615342 Eh
   Energy Change       :      -0.000000002857 Eh
   MAX-DP              :       0.000029261410
   RMS-DP              :       0.000001592223
   Orbital gradient    :       0.000018224333
   Orbital Rotation    :       0.000023855908
   Actual Damping      :       0.0000
   Int. Num. El.       :    42.00031821 (UP=   21.00015911 DN=   21.00015911)
   Exchange            :   -26.63754927
   Correlation         :    -1.62075804

                 **** Energy Check signals convergence ****
              ***Rediagonalizing the Fockian in SOSCF/NRSCF***

               *****************************************************
               *                     SUCCESS                       *
               *           SCF CONVERGED AFTER  11 CYCLES          *
               *****************************************************

Setting up the final grid:

General Integration Accuracy     IntAcc      ...  5.010
Radial Grid Type                 RadialGrid  ... Gauss-Chebyshev
Angular Grid (max. acc.)         AngularGrid ... Lebedev-434
Angular grid pruning method      GridPruning ... 3 (G Style)
Weight generation scheme         WeightScheme... Becke
Basis function cutoff            BFCut       ...    1.0000e-11
Integration weight cutoff        WCut        ...    1.0000e-14
Grids for H and He will be reduced by one unit

# of grid points (after initial pruning)     ... 103692 (   0.0 sec)
# of grid points (after weights+screening)   ...  96503 (   0.1 sec)
nearest neighbour list constructed           ...    0.0 sec
Grid point re-assignment to atoms done       ...    0.0 sec
Grid point division into batches done        ...    0.5 sec
Reduced shell lists constructed in    0.9 sec

Total number of grid points                  ...    96503
Total number of batches                      ...     1514
Average number of points per batch           ...       63
Average number of grid points per atom       ...     8042
Average number of shells per batch           ...    33.45 (69.68%)
Average number of basis functions per batch  ...    69.71 (72.62%)
Average number of large shells per batch     ...    26.56 (79.40%)
Average number of large basis fcns per batch ...    55.24 (79.24%)
Maximum spatial batch extension              ...  26.31, 28.43, 39.96 au
Average spatial batch extension              ...   2.26,  2.31,  2.67 au

Final grid set up in    1.1 sec
Final integration                            ... done (   0.7 sec)
Change in XC energy                          ...    -0.000090879
Integrated number of electrons               ...    41.999999483
Previous integrated no of electrons          ...    42.000318225

----------------
TOTAL SCF ENERGY
----------------

Total Energy       :         -242.46962350 Eh           -6597.93389 eV

Components:
Nuclear Repulsion  :          186.50231195 Eh            5074.98592 eV
Electronic Energy  :         -428.97193545 Eh          -11672.91980 eV
One Electron Energy:         -696.88633506 Eh          -18963.24125 eV
Two Electron Energy:          267.91439961 Eh            7290.32145 eV

Virial components:
Potential Energy   :         -482.43997855 Eh          -13127.85922 eV
Kinetic Energy     :          239.97035505 Eh            6529.92534 eV
Virial Ratio       :            2.01041491


DFT components:
N(Alpha)           :       20.999999741370 electrons
N(Beta)            :       20.999999741370 electrons
N(Total)           :       41.999999482739 electrons
E(X)               :      -26.637603600459 Eh       
E(C)               :       -1.620782398955 Eh       
E(XC)              :      -28.258385999413 Eh       
DFET-embed. en.    :        0.000000000000 Eh       

---------------
SCF CONVERGENCE
---------------

  Last Energy change         ...   -8.8849e-09  Tolerance :   1.0000e-08
  Last MAX-Density change    ...    2.1662e-06  Tolerance :   1.0000e-07
  Last RMS-Density change    ...    7.0408e-08  Tolerance :   5.0000e-09
  Last Orbital Gradient      ...    5.5665e-07  Tolerance :   1.0000e-05
  Last Orbital Rotation      ...    1.2099e-06  Tolerance :   1.0000e-05

             **** THE GBW FILE WAS UPDATED (/Users/lailaal-madhagi/Desktop/Testing_XAS_Analysis_code/Borazine//Results_dir_Borazine_geom_element_B_2019-11-09_12-51-34//GTE1_Borazine_geom_2019-11-09_12-51-43//opt.gbw) ****
             **** DENSITY FILE WAS UPDATED (/Users/lailaal-madhagi/Desktop/Testing_XAS_Analysis_code/Borazine//Results_dir_Borazine_geom_element_B_2019-11-09_12-51-34//GTE1_Borazine_geom_2019-11-09_12-51-43//opt.scfp.tmp) ****
             **** ENERGY FILE WAS UPDATED (/Users/lailaal-madhagi/Desktop/Testing_XAS_Analysis_code/Borazine//Results_dir_Borazine_geom_element_B_2019-11-09_12-51-34//GTE1_Borazine_geom_2019-11-09_12-51-43//opt.en.tmp) ****
----------------
ORBITAL ENERGIES
----------------

  NO   OCC          E(Eh)            E(eV) 
   0   2.0000     -14.320313      -389.6755 
   1   2.0000     -14.320293      -389.6750 
   2   2.0000     -14.320272      -389.6744 
   3   2.0000      -6.762553      -184.0184 
   4   2.0000      -6.762492      -184.0168 
   5   2.0000      -6.762464      -184.0160 
   6   2.0000      -0.848009       -23.0755 
   7   2.0000      -0.809950       -22.0399 
   8   2.0000      -0.809950       -22.0399 
   9   2.0000      -0.525848       -14.3090 
  10   2.0000      -0.504345       -13.7239 
  11   2.0000      -0.504335       -13.7237 
  12   2.0000      -0.428718       -11.6660 
  13   2.0000      -0.428704       -11.6656 
  14   2.0000      -0.402265       -10.9462 
  15   2.0000      -0.392543       -10.6816 
  16   2.0000      -0.330624        -8.9967 
  17   2.0000      -0.312750        -8.5104 
  18   2.0000      -0.312740        -8.5101 
  19   2.0000      -0.261294        -7.1102 
  20   2.0000      -0.261272        -7.1096 
  21   0.0000       0.014512         0.3949 
  22   0.0000       0.014520         0.3951 
  23   0.0000       0.073078         1.9885 
  24   0.0000       0.098116         2.6699 
  25   0.0000       0.108704         2.9580 
  26   0.0000       0.108788         2.9603 
  27   0.0000       0.175407         4.7731 
  28   0.0000       0.189947         5.1687 
  29   0.0000       0.190014         5.1705 
  30   0.0000       0.260337         7.0841 
  31   0.0000       0.262549         7.1443 
  32   0.0000       0.262673         7.1477 
  33   0.0000       0.277929         7.5628 
  34   0.0000       0.292707         7.9650 
  35   0.0000       0.292825         7.9682 
  36   0.0000       0.425236        11.5712 
  37   0.0000       0.454552        12.3690 
  38   0.0000       0.454839        12.3768 
  39   0.0000       0.475589        12.9414 
  40   0.0000       0.487678        13.2704 
  41   0.0000       0.487861        13.2754 
  42   0.0000       0.518699        14.1145 
  43   0.0000       0.518813        14.1176 
  44   0.0000       0.561551        15.2806 
  45   0.0000       0.572118        15.5681 
  46   0.0000       0.756752        20.5923 
  47   0.0000       0.756926        20.5970 
  48   0.0000       0.780288        21.2327 
  49   0.0000       0.780438        21.2368 
  50   0.0000       0.867932        23.6176 
  51   0.0000       0.874381        23.7931 
  52   0.0000       0.874448        23.7949 
  53   0.0000       0.884312        24.0634 
  54   0.0000       0.905378        24.6366 
  55   0.0000       0.905501        24.6399 
  56   0.0000       0.940702        25.5978 
  57   0.0000       1.046115        28.4662 
  58   0.0000       1.046417        28.4745 
  59   0.0000       1.048897        28.5419 
  60   0.0000       1.093512        29.7560 
  61   0.0000       1.134407        30.8688 
  62   0.0000       1.187429        32.3116 
  63   0.0000       1.243944        33.8494 
  64   0.0000       1.243979        33.8504 
  65   0.0000       1.254911        34.1479 
  66   0.0000       1.255198        34.1557 
  67   0.0000       1.326534        36.0968 
  68   0.0000       1.326564        36.0976 
  69   0.0000       1.405561        38.2473 
  70   0.0000       1.420495        38.6536 
  71   0.0000       1.420586        38.6561 
  72   0.0000       1.504629        40.9430 
  73   0.0000       1.615695        43.9653 
  74   0.0000       1.728949        47.0471 
  75   0.0000       1.728988        47.0482 
  76   0.0000       1.766459        48.0678 
  77   0.0000       1.766565        48.0707 
  78   0.0000       1.905047        51.8390 
  79   0.0000       1.905074        51.8397 
  80   0.0000       1.947096        52.9832 
  81   0.0000       1.947124        52.9839 
  82   0.0000       1.951435        53.1012 
  83   0.0000       2.065262        56.1986 
  84   0.0000       2.076455        56.5032 
  85   0.0000       2.076513        56.5048 
  86   0.0000       2.335822        63.5609 
  87   0.0000       2.375554        64.6421 
  88   0.0000       2.375669        64.6452 
  89   0.0000       2.432614        66.1948 
  90   0.0000       2.471416        67.2507 
  91   0.0000       2.471442        67.2513 
  92   0.0000       2.539210        69.0954 
  93   0.0000       2.539311        69.0982 
  94   0.0000       2.672914        72.7337 
  95   0.0000       2.930723        79.7490 
------------------
MOLECULAR ORBITALS
------------------
                      0         1         2         3         4         5   
                 -14.32031 -14.32029 -14.32027  -6.76255  -6.76249  -6.76246
                   2.00000   2.00000   2.00000   2.00000   2.00000   2.00000
                  --------  --------  --------  --------  --------  --------
  0N   1s         0.015423  0.029261  0.994751  0.000110 -0.000041 -0.000019
  0N   2s         0.000723  0.001158  0.032202  0.001419 -0.000866 -0.000364
  0N   1pz        0.000001 -0.000001 -0.000001 -0.000001  0.000001 -0.000002
  0N   1px       -0.000114  0.000147  0.000106  0.000136 -0.000153  0.000344
  0N   1py       -0.000120  0.000096 -0.000131 -0.000133 -0.000074  0.000316
  0N   3s        -0.001462 -0.001717 -0.023032 -0.007522  0.003802  0.001651
  0N   2pz        0.000006  0.000008  0.000017  0.000026 -0.000021 -0.000026
  0N   2px       -0.000676 -0.001053 -0.002033 -0.003183  0.002260  0.003905
  0N   2py        0.001202  0.000845  0.002444  0.004035 -0.004607  0.000690
  0N   1dz2       0.000012  0.000013  0.000139  0.000425 -0.001104 -0.000407
  0N   1dxz       0.000001 -0.000001  0.000002  0.000005 -0.000010 -0.000013
  0N   1dyz      -0.000001 -0.000001 -0.000000  0.000001 -0.000003 -0.000001
  0N   1dx2y2    -0.000136  0.000174 -0.000008  0.000003 -0.000270  0.001156
  0N   1dxy       0.000110  0.000048 -0.000031 -0.000239  0.000746  0.000045
  1B   1s         0.000102  0.000122  0.000092  0.219665 -0.383695 -0.891204
  1B   2s         0.000256  0.001254  0.000174  0.009131 -0.015245 -0.034655
  1B   1pz       -0.000002  0.000001  0.000003  0.000001 -0.000001 -0.000003
  1B   1px        0.000277 -0.000157 -0.000459 -0.000373  0.000393  0.000784
  1B   1py       -0.000382 -0.000358 -0.000078 -0.000964  0.001168  0.002107
  1B   3s         0.005074 -0.001008  0.004983 -0.001019  0.004171  0.012244
  1B   2pz       -0.000011 -0.000001  0.000022  0.000012  0.000001  0.000002
  1B   2px        0.000856  0.000498 -0.003703 -0.002744  0.000412 -0.000601
  1B   2py       -0.004614  0.001780 -0.002929 -0.006346  0.003172 -0.002240
  1B   1dz2       0.000026  0.000071  0.000021 -0.000748  0.000797  0.001308
  1B   1dxz       0.000002  0.000001  0.000004 -0.000008  0.000011  0.000019
  1B   1dyz      -0.000004  0.000000  0.000001  0.000002 -0.000000 -0.000005
  1B   1dx2y2    -0.000085  0.000018 -0.000537 -0.000150 -0.000296 -0.000380
  1B   1dxy       0.000531 -0.000043 -0.000016 -0.000086 -0.000138  0.000437
  2B   1s         0.000127  0.000096  0.000092  0.273816 -0.852065  0.434429
  2B   2s         0.001264  0.000183  0.000190  0.011227 -0.033370  0.016646
  2B   1pz       -0.000003 -0.000002 -0.000001 -0.000008  0.000015 -0.000006
  2B   1px        0.000397  0.000305  0.000161  0.001141 -0.002311  0.000877
  2B   1py        0.000063 -0.000339  0.000444  0.000218 -0.000381  0.000180
  2B   3s        -0.000772  0.005203  0.004891 -0.001797  0.010901 -0.006804
  2B   2pz        0.000011 -0.000033 -0.000020 -0.000043  0.000006  0.000029
  2B   2px       -0.001623  0.004544  0.003451  0.006465 -0.000865 -0.004284
  2B   2py       -0.000318 -0.001606  0.003140  0.001548  0.000286 -0.000158
  2B   1dz2       0.000072  0.000022  0.000022 -0.000820  0.001422 -0.000460
  2B   1dxz       0.000001 -0.000001 -0.000003 -0.000010  0.000013 -0.000004
  2B   1dyz      -0.000000 -0.000004  0.000001  0.000003 -0.000003  0.000004
  2B   1dx2y2    -0.000023  0.000277  0.000493  0.000079  0.000500 -0.000260
  2B   1dxy      -0.000003  0.000465 -0.000212 -0.000159 -0.000013 -0.000350
  3N   1s         0.030090  0.994404 -0.029659  0.000088 -0.000063 -0.000049
  3N   2s         0.001195  0.032200 -0.000746  0.001400 -0.000886 -0.000391
  3N   1pz        0.000001 -0.000000 -0.000001  0.000001  0.000003 -0.000001
  3N   1px       -0.000149  0.000068  0.000165 -0.000172 -0.000429  0.000080
  3N   1py        0.000078  0.000155 -0.000049  0.000201  0.000049 -0.000140
  3N   3s        -0.001786 -0.023070 -0.000368 -0.006814  0.004523  0.002620
  3N   2pz        0.000000  0.000004  0.000003  0.000020  0.000016 -0.000006
  3N   2px       -0.000238 -0.001129 -0.000644 -0.003837 -0.001664  0.000899
  3N   2py       -0.001388 -0.003029 -0.000992 -0.005504  0.004454 -0.000201
  3N   1dz2       0.000013  0.000139  0.000005  0.001068 -0.000449  0.000473
  3N   1dxz       0.000000  0.000002 -0.000001  0.000019 -0.000003  0.000006
  3N   1dyz       0.000001 -0.000000 -0.000001 -0.000001  0.000008 -0.000004
  3N   1dx2y2    -0.000038 -0.000015  0.000165 -0.000856 -0.000456 -0.000046
  3N   1dxy      -0.000171  0.000025  0.000070 -0.000007 -0.000946  0.000432
  4B   1s         0.000101  0.000097  0.000118  0.930808  0.341318  0.082571
  4B   2s         0.000241  0.000245  0.001245  0.036651  0.012813  0.003030
  4B   1pz       -0.000000  0.000003  0.000002  0.000014  0.000003  0.000000
  4B   1px        0.000130 -0.000476 -0.000238 -0.001740 -0.000322 -0.000011
  4B   1py        0.000448 -0.000070  0.000295  0.002088  0.000366  0.000071
  4B   3s         0.005163  0.004841 -0.001225 -0.011238 -0.006247 -0.001748
  4B   2pz        0.000011  0.000032 -0.000011  0.000018 -0.000034 -0.000017
  4B   2px       -0.000831 -0.004390  0.001321 -0.002146  0.004082  0.002209
  4B   2py        0.004676  0.001352 -0.001525  0.002622 -0.005327 -0.001423
  4B   1dz2       0.000026  0.000025  0.000070 -0.001695 -0.000169  0.000009
  4B   1dxz      -0.000002  0.000003  0.000001 -0.000020 -0.000001 -0.000002
  4B   1dyz       0.000003  0.000003 -0.000001  0.000000 -0.000002 -0.000001
  4B   1dx2y2     0.000264 -0.000430  0.000016  0.000092 -0.000047  0.000344
  4B   1dxy      -0.000470 -0.000318  0.000057  0.000433  0.000390  0.000054
  5N   1s         0.994730 -0.030472 -0.014467  0.000090 -0.000077 -0.000008
  5N   2s         0.032221 -0.000763 -0.000258  0.001401 -0.000899 -0.000354
  5N   1pz        0.000001  0.000000 -0.000000  0.000001 -0.000000  0.000001
  5N   1px       -0.000168 -0.000040  0.000016 -0.000175  0.000096 -0.000066
  5N   1py       -0.000027  0.000160 -0.000174  0.000224  0.000275  0.000336
  5N   3s        -0.023127 -0.000395 -0.000704 -0.006867  0.004990  0.001301
  5N   2pz       -0.000022 -0.000008 -0.000007 -0.000038  0.000022  0.000023
  5N   2px        0.003245  0.001231  0.001120  0.005977 -0.002999 -0.003033
  5N   2py        0.000559 -0.000042  0.000465  0.002909  0.001390  0.002039
  5N   1dz2       0.000140  0.000005  0.000007  0.001019 -0.000025 -0.000725
  5N   1dxz       0.000002  0.000000  0.000001  0.000006 -0.000002 -0.000009
  5N   1dyz      -0.000000  0.000001 -0.000001 -0.000000  0.000004  0.000008
  5N   1dx2y2     0.000024 -0.000028 -0.000130  0.000785  0.000215 -0.000151
  5N   1dxy       0.000006 -0.000173  0.000126 -0.000363 -0.000579 -0.000935
  6H   1s         0.000011 -0.000310 -0.000292 -0.000506  0.001383 -0.000660
  6H   2s        -0.000917  0.001535  0.001433  0.004521 -0.002498 -0.001442
  7H   1s        -0.000222 -0.000215 -0.000412 -0.000453  0.000652  0.000249
  7H   2s         0.000076  0.000103  0.002085 -0.000614  0.000235  0.000109
  8H   1s        -0.000305  0.000025 -0.000297 -0.000422  0.000650  0.001416
  8H   2s         0.001455 -0.000986  0.001470  0.004548 -0.002733 -0.000776
  9H   1s        -0.000431 -0.000203 -0.000197 -0.000714  0.000178  0.000389
  9H   2s         0.002089 -0.000020  0.000011 -0.000507  0.000429  0.000051
 10H   1s        -0.000310 -0.000291  0.000038 -0.001535 -0.000485 -0.000109
 10H   2s         0.001491  0.001388 -0.001049  0.004193 -0.003097 -0.001266
 11H   1s        -0.000226 -0.000421 -0.000194 -0.000735  0.000364 -0.000138
 11H   2s         0.000107  0.002087 -0.000020 -0.000499  0.000353  0.000266
                      6         7         8         9        10        11   
                  -0.84801  -0.80995  -0.80995  -0.52585  -0.50434  -0.50434
                   2.00000   2.00000   2.00000   2.00000   2.00000   2.00000
                  --------  --------  --------  --------  --------  --------
  0N   1s         0.113827 -0.049468 -0.161190  0.012842  0.005933  0.009061
  0N   2s        -0.234288  0.103781  0.338188 -0.027314 -0.016330 -0.024895
  0N   1pz        0.000017  0.000117  0.000171 -0.001383 -0.001466  0.000020
  0N   1px       -0.001983 -0.016981 -0.020021  0.168216  0.227044 -0.034408
  0N   1py        0.002377  0.000222  0.030178 -0.201569  0.082820 -0.191482
  0N   3s        -0.252127  0.108486  0.353408 -0.050203 -0.002150 -0.003509
  0N   2pz        0.000035  0.000082  0.000106 -0.000626 -0.000802 -0.000051
  0N   2px       -0.004204 -0.012112 -0.012302  0.076510  0.123166 -0.010519
  0N   2py        0.005043 -0.000987  0.019523 -0.091666  0.037281 -0.108583
  0N   1dz2       0.008336 -0.003006 -0.009793  0.003409  0.000867  0.001328
  0N   1dxz       0.000099 -0.000016 -0.000122  0.000040 -0.000021  0.000035
  0N   1dyz      -0.000049  0.000020  0.000066 -0.000067 -0.000029 -0.000045
  0N   1dx2y2     0.000836 -0.003190 -0.000341  0.001555  0.005083 -0.001795
  0N   1dxy       0.004579 -0.001516 -0.006772  0.008522  0.003068  0.006418
  1B   1s         0.062429  0.031974 -0.034364 -0.048595 -0.149280  0.008473
  1B   2s        -0.095114 -0.052717  0.056658  0.082581  0.258013 -0.014619
  1B   1pz       -0.000068  0.000560  0.000582  0.000126 -0.000041 -0.000480
  1B   1px        0.017833 -0.072963 -0.083873 -0.033405  0.007450  0.065622
  1B   1py        0.048572  0.051414  0.004328 -0.090949  0.008757 -0.024753
  1B   3s        -0.021685 -0.008733  0.009377  0.060500  0.155132 -0.008831
  1B   2pz        0.000015 -0.000025 -0.000046  0.000028 -0.000086 -0.000061
  1B   2px       -0.003886  0.001873  0.007775 -0.007338  0.021813  0.008148
  1B   2py       -0.010653 -0.009962  0.007221 -0.020172  0.057869 -0.006734
  1B   1dz2       0.010654  0.004974 -0.005343 -0.006450 -0.013999  0.000794
  1B   1dxz       0.000162  0.000033 -0.000139 -0.000017 -0.000175  0.000013
  1B   1dyz      -0.000042 -0.000110 -0.000053 -0.000023  0.000033  0.000003
  1B   1dx2y2    -0.004502  0.006085  0.012075 -0.007558  0.001078 -0.000633
  1B   1dxy       0.003820  0.013645  0.007260  0.006409 -0.000983 -0.000623
  2B   1s         0.062428 -0.045742 -0.010512 -0.048547  0.067332 -0.133527
  2B   2s        -0.095100  0.075422  0.017321  0.082527 -0.116299  0.230752
  2B   1pz        0.000340 -0.000278  0.000213 -0.000637 -0.000175 -0.000011
  2B   1px       -0.050986  0.037097 -0.012110  0.095468  0.015458 -0.004080
  2B   1py       -0.008840 -0.020333  0.114382  0.016558 -0.060964 -0.032781
  2B   3s        -0.021702  0.012461  0.002881  0.060403 -0.070183  0.138841
  2B   2pz       -0.000075  0.000086  0.000004 -0.000142 -0.000205  0.000355
  2B   2px        0.011269 -0.012701 -0.001775  0.021157  0.029015 -0.053742
  2B   2py        0.001925 -0.000554 -0.007243  0.003605 -0.004096 -0.013702
  2B   1dz2       0.010652 -0.007111 -0.001635 -0.006445  0.006323 -0.012527
  2B   1dxz       0.000091 -0.000063  0.000054 -0.000137  0.000068 -0.000142
  2B   1dyz      -0.000041  0.000061 -0.000108 -0.000021 -0.000010  0.000031
  2B   1dx2y2     0.005562 -0.004170 -0.007730  0.009325  0.000886 -0.001093
  2B   1dxy       0.001982 -0.006146  0.017520  0.003331 -0.000540 -0.000801
  3N   1s         0.113843 -0.114859  0.123430  0.012853 -0.010821  0.000616
  3N   2s        -0.234254  0.240942 -0.258914 -0.027301  0.029755 -0.001662
  3N   1pz        0.000004  0.000101  0.000027 -0.000341  0.000299  0.001846
  3N   1px       -0.001072 -0.018103  0.000867  0.090466 -0.065903 -0.251886
  3N   1py       -0.002917 -0.020658  0.029026  0.246393 -0.134808  0.101482
  3N   3s        -0.252372  0.251911 -0.270740 -0.050424  0.004071 -0.000355
  3N   2pz        0.000008  0.000074  0.000025 -0.000156  0.000175  0.000962
  3N   2px       -0.002296 -0.012807 -0.000643  0.041186 -0.039156 -0.131144
  3N   2py       -0.006153 -0.012749  0.018970  0.112135 -0.083261  0.053631
  3N   1dz2       0.008347 -0.006985  0.007507  0.003411 -0.001584  0.000091
  3N   1dxz       0.000072 -0.000047  0.000066 -0.000011  0.000025  0.000018
  3N   1dyz       0.000000  0.000010  0.000016  0.000024 -0.000021  0.000033
  3N   1dx2y2     0.003551 -0.005077  0.002603  0.006600 -0.005656 -0.003135
  3N   1dxy      -0.003015  0.001425 -0.004891 -0.005597  0.004400 -0.004318
  4B   1s         0.062433  0.013767  0.044867 -0.048542  0.081994  0.125061
  4B   2s        -0.095102 -0.022682 -0.073988  0.082521 -0.141654 -0.216144
  4B   1pz       -0.000272  0.000459 -0.000328  0.000510  0.000298 -0.000125
  4B   1px        0.033157 -0.080048  0.047319 -0.062059 -0.048841  0.023792
  4B   1py       -0.039724 -0.079770 -0.002769  0.074411 -0.033105  0.031590
  4B   3s        -0.021656 -0.003759 -0.012171  0.060387 -0.085324 -0.129927
  4B   2pz        0.000060 -0.000009  0.000074  0.000113  0.000216  0.000244
  4B   2px       -0.007364  0.002649 -0.009563 -0.013792 -0.028330 -0.029188
  4B   2py        0.008691  0.007345  0.008088  0.016352  0.020794  0.043189
  4B   1dz2       0.010646  0.002137  0.006970 -0.006441  0.007687  0.011720
  4B   1dxz       0.000127 -0.000105  0.000123 -0.000076  0.000087  0.000143
  4B   1dyz       0.000020  0.000011  0.000026  0.000081 -0.000010 -0.000015
  4B   1dx2y2    -0.001049  0.018106 -0.006702 -0.001768  0.000600 -0.000679
  4B   1dxy      -0.005807 -0.005130 -0.004756 -0.009741 -0.000912 -0.001114
  5N   1s         0.113837  0.164326  0.037747  0.012850  0.004867 -0.009682
  5N   2s        -0.234273 -0.344712 -0.079191 -0.027301 -0.013388  0.026589
  5N   1pz       -0.000021  0.000233  0.000085  0.001726  0.000998 -0.000597
  5N   1px        0.003061 -0.035625 -0.010549 -0.258666 -0.107707  0.110552
  5N   1py        0.000530 -0.009249  0.011515 -0.044811  0.227719  0.143406
  5N   3s        -0.252221 -0.360423 -0.082756 -0.050329 -0.001783  0.003791
  5N   2pz       -0.000043  0.000148  0.000059  0.000787  0.000564 -0.000392
  5N   2px        0.006431 -0.022639 -0.007036 -0.117698 -0.062286  0.069790
  5N   2py        0.001106 -0.006272  0.009059 -0.020403  0.117601  0.076774
  5N   1dz2       0.008345  0.009995  0.002296  0.003412  0.000713 -0.001418
  5N   1dxz       0.000127  0.000163  0.000027  0.000093  0.000012 -0.000064
  5N   1dyz      -0.000001 -0.000000  0.000019  0.000023  0.000038 -0.000004
  5N   1dx2y2    -0.004384 -0.006680 -0.000498 -0.008153 -0.001438  0.006830
  5N   1dxy      -0.001571 -0.001682 -0.003283 -0.002918 -0.005564 -0.000101
  6H   1s        -0.014225  0.012966  0.002981 -0.001887 -0.055224  0.109549
  6H   2s         0.000734 -0.001435 -0.000389  0.000490 -0.024362  0.048420
  7H   1s        -0.071455  0.036625  0.119338 -0.155282 -0.052144 -0.079606
  7H   2s        -0.006853  0.005138  0.016737 -0.083849 -0.026559 -0.040644
  8H   1s        -0.014226 -0.009063  0.009741 -0.001853  0.122480 -0.006952
  8H   2s         0.000672  0.000942 -0.001072  0.000507  0.054128 -0.003076
  9H   1s        -0.071447 -0.121636 -0.027944 -0.155265 -0.042813  0.084983
  9H   2s        -0.006799 -0.016985 -0.003885 -0.083736 -0.021812  0.043302
 10H   1s        -0.014226 -0.003904 -0.012718 -0.001885 -0.067266 -0.102614
 10H   2s         0.000688  0.000528  0.001368  0.000427 -0.029629 -0.045365
 11H   1s        -0.071449  0.085017 -0.091362 -0.155241  0.095070 -0.005376
 11H   2s        -0.006810  0.011845 -0.012734 -0.083722  0.048402 -0.002712
                     12        13        14        15        16        17   
                  -0.42872  -0.42870  -0.40227  -0.39254  -0.33062  -0.31275
                   2.00000   2.00000   2.00000   2.00000   2.00000   2.00000
                  --------  --------  --------  --------  --------  --------
  0N   1s         0.033389  0.011473  0.000009  0.024940 -0.000001 -0.004431
  0N   2s        -0.076083 -0.026147 -0.000021 -0.058945 -0.000002  0.006935
  0N   1pz        0.002004  0.000232 -0.001376  0.000002  0.277369  0.000337
  0N   1px       -0.250588 -0.009149  0.232194 -0.000309  0.001900 -0.044233
  0N   1py        0.252199  0.150843  0.193830  0.000359 -0.000308  0.040972
  0N   3s        -0.100796 -0.034607 -0.000027 -0.076324  0.000015  0.048607
  0N   2pz        0.000972  0.000056 -0.000585 -0.000064  0.194502  0.000147
  0N   2px       -0.123087  0.004735  0.099089  0.007447  0.001349 -0.019781
  0N   2py        0.118158  0.079820  0.082721 -0.008850 -0.000215  0.016984
  0N   1dz2      -0.005880 -0.002020 -0.000002 -0.000295 -0.000028 -0.000852
  0N   1dxz      -0.000076 -0.000001  0.000018 -0.000005  0.001942 -0.000008
  0N   1dyz       0.000089  0.000030 -0.000000 -0.000067 -0.002323  0.000076
  0N   1dx2y2    -0.000918 -0.003830 -0.002559  0.001754  0.000011 -0.002021
  0N   1dxy      -0.011174 -0.003197  0.000466  0.009614 -0.000018 -0.010430
  1B   1s        -0.002744 -0.014135  0.000002 -0.070701  0.000000  0.002222
  1B   2s         0.004663  0.024036 -0.000003  0.118873 -0.000002  0.001886
  1B   1pz       -0.001214  0.000053  0.001610 -0.000250  0.152960 -0.000775
  1B   1px        0.170853  0.015264 -0.220760  0.066154  0.001054  0.081733
  1B   1py       -0.034558  0.139032  0.081061  0.180089 -0.000176 -0.182957
  1B   3s         0.002126  0.011269  0.000043  0.115351 -0.000014 -0.008101
  1B   2pz       -0.000106 -0.000050  0.000535 -0.000067  0.094725 -0.000277
  1B   2px        0.015749  0.015316 -0.073783  0.017568  0.000668  0.036674
  1B   2py        0.005002  0.049253  0.027130  0.047767 -0.000116 -0.019268
  1B   1dz2      -0.000020 -0.000121  0.000001 -0.003601  0.000030 -0.000161
  1B   1dxz       0.000108 -0.000023 -0.000055  0.000044 -0.004380 -0.000071
  1B   1dyz       0.000181 -0.000035 -0.000092 -0.000045 -0.011903  0.000112
  1B   1dx2y2    -0.019596  0.003838  0.009934 -0.011078 -0.000044  0.007315
  1B   1dxy      -0.023083  0.004493  0.011706  0.009395 -0.000078 -0.017369
  2B   1s        -0.010858  0.009443 -0.000017 -0.070693  0.000000  0.002427
  2B   2s         0.018399 -0.016022  0.000058  0.118791 -0.000002  0.002112
  2B   1pz        0.000420 -0.000901 -0.000539  0.001260  0.152908 -0.001346
  2B   1px       -0.083087  0.112097  0.040129 -0.189014  0.001054  0.177746
  2B   1py       -0.131301 -0.114921 -0.231781 -0.032787 -0.000179 -0.106893
  2B   3s         0.008771 -0.007490 -0.000111  0.115532  0.000002 -0.009030
  2B   2pz        0.000243 -0.000250 -0.000183  0.000340  0.094823 -0.000138
  2B   2px       -0.037489  0.035770  0.013680 -0.050278  0.000644  0.012747
  2B   2py       -0.015235 -0.004134 -0.077533 -0.008617 -0.000102 -0.038317
  2B   1dz2      -0.000100  0.000074  0.000000 -0.003604 -0.000145 -0.000170
  2B   1dxz      -0.000069 -0.000078 -0.000052 -0.000130  0.012503  0.000081
  2B   1dyz       0.000124  0.000142  0.000093 -0.000042  0.002169  0.000113
  2B   1dx2y2     0.006811  0.007842  0.005175  0.013675  0.000088 -0.014521
  2B   1dxy      -0.019068 -0.021923 -0.014484  0.004901 -0.000000 -0.013971
  3N   1s        -0.006755 -0.034631  0.000002  0.024923 -0.000000  0.002114
  3N   2s         0.015427  0.078978  0.000019 -0.058951 -0.000000 -0.003293
  3N   1pz        0.000541 -0.000603  0.002070  0.000002  0.277322  0.001771
  3N   1px       -0.062480  0.143689 -0.283974 -0.000184  0.001900 -0.238739
  3N   1py        0.099349  0.338841  0.104297 -0.000428 -0.000310  0.118108
  3N   3s         0.020228  0.104202 -0.000095 -0.075986  0.000001 -0.023251
  3N   2pz        0.000343 -0.000305  0.000884 -0.000017  0.194505  0.000987
  3N   2px       -0.041606  0.071110 -0.121286  0.004034  0.001327 -0.133645
  3N   2py        0.051789  0.161352  0.044528  0.010970 -0.000213  0.062207
  3N   1dz2       0.001194  0.006108  0.000001 -0.000297 -0.000007  0.000407
  3N   1dxz      -0.000011  0.000006 -0.000009 -0.000062  0.001050 -0.000011
  3N   1dyz      -0.000014  0.000033 -0.000016  0.000035  0.002844  0.000042
  3N   1dx2y2     0.003862  0.008410  0.001683  0.007455  0.000010  0.001241
  3N   1dxy       0.001065 -0.007976  0.001983 -0.006326  0.000018 -0.006380
  4B   1s         0.013616  0.004690  0.000004 -0.070672  0.000000 -0.004636
  4B   2s        -0.023073 -0.008019 -0.000039  0.118801 -0.000005 -0.004079
  4B   1pz        0.000430  0.000992 -0.001068 -0.001011  0.152943 -0.001603
  4B   1px       -0.040036 -0.156220  0.180570  0.122852  0.001052  0.195531
  4B   1py        0.136963 -0.071804  0.150741 -0.147288 -0.000175 -0.228047
  4B   3s        -0.010820 -0.003705  0.000144  0.115349  0.000007  0.017153
  4B   2pz        0.000241  0.000144 -0.000360 -0.000265  0.094718 -0.000063
  4B   2px       -0.028696 -0.020690  0.060535  0.032985  0.000647  0.008293
  4B   2py        0.040882  0.004949  0.050257 -0.039329 -0.000131 -0.008102
  4B   1dz2       0.000110  0.000044 -0.000006 -0.003590  0.000116  0.000329
  4B   1dxz       0.000071 -0.000202  0.000107 -0.000041 -0.008132  0.000010
  4B   1dyz      -0.000002  0.000003 -0.000002  0.000109  0.009734  0.000244
  4B   1dx2y2    -0.009846  0.028714 -0.015123 -0.002616 -0.000044 -0.006547
  4B   1dxy       0.001798 -0.005245  0.002751 -0.014297  0.000075 -0.034576
  5N   1s        -0.026627  0.023170 -0.000003  0.024929 -0.000000  0.002312
  5N   2s         0.060698 -0.052841  0.000010 -0.058932 -0.000002 -0.003621
  5N   1pz        0.001998 -0.001454 -0.000692 -0.000002  0.277404  0.000788
  5N   1px       -0.288980  0.230089  0.051589  0.000411  0.001904 -0.074692
  5N   1py        0.013058  0.112448 -0.298053  0.000126 -0.000307  0.248021
  5N   3s         0.080306 -0.069743 -0.000013 -0.076205  0.000010 -0.025355
  5N   2pz        0.000980 -0.000675 -0.000294  0.000077  0.194674  0.000411
  5N   2px       -0.139798  0.108558  0.022017 -0.011513  0.001331 -0.037622
  5N   2py        0.014434  0.063131 -0.127247 -0.001951 -0.000224  0.138168
  5N   1dz2       0.004691 -0.004085  0.000002 -0.000294  0.000035  0.000445
  5N   1dxz       0.000117 -0.000087 -0.000009  0.000056 -0.002989  0.000026
  5N   1dyz       0.000007 -0.000034  0.000016  0.000034 -0.000517  0.000042
  5N   1dx2y2    -0.009123  0.006431  0.000875 -0.009206 -0.000021 -0.003895
  5N   1dxy      -0.000912  0.005009 -0.002446 -0.003288  0.000000 -0.005577
  6H   1s         0.063727 -0.055477  0.000032  0.180348 -0.000003 -0.116089
  6H   2s         0.046976 -0.040859  0.000213  0.163738 -0.000006 -0.156420
  7H   1s         0.195276  0.067084  0.000039 -0.027830  0.000006  0.055418
  7H   2s         0.143079  0.049188  0.000073 -0.005506  0.000002  0.043421
  8H   1s         0.016159  0.082960  0.000003  0.180361 -0.000003 -0.106241
  8H   2s         0.011881  0.061155 -0.000022  0.163862  0.000000 -0.143221
  9H   1s        -0.155749  0.135579 -0.000052 -0.027846  0.000001 -0.028928
  9H   2s        -0.114000  0.099256 -0.000013 -0.005539 -0.000003 -0.022656
 10H   1s        -0.079933 -0.027479 -0.000018  0.180348  0.000003  0.222291
 10H   2s        -0.058892 -0.020280 -0.000181  0.163614 -0.000006  0.299578
 11H   1s        -0.039545 -0.202677 -0.000013 -0.027820 -0.000002 -0.026474
 11H   2s        -0.028943 -0.148394  0.000030 -0.005527 -0.000003 -0.020712
                     18        19        20        21        22        23   
                  -0.31274  -0.26129  -0.26127   0.01451   0.01452   0.07308
                   2.00000   2.00000   2.00000   0.00000   0.00000   0.00000
                  --------  --------  --------  --------  --------  --------
  0N   1s         0.000111  0.000000 -0.000001  0.000005 -0.000002 -0.067635
  0N   2s        -0.000176 -0.000001 -0.000002  0.000000  0.000001  0.135842
  0N   1pz        0.001363 -0.248453  0.386988  0.020256  0.225742  0.000437
  0N   1px       -0.230430 -0.001702  0.002652  0.000141  0.001548 -0.052969
  0N   1py       -0.194247  0.000280 -0.000434 -0.000029 -0.000253  0.063483
  0N   3s        -0.001211 -0.000003  0.000028 -0.000087  0.000033  0.717688
  0N   2pz        0.000755 -0.201977  0.314621  0.026518  0.294721  0.001544
  0N   2px       -0.127745 -0.001394  0.002170  0.000208  0.002001 -0.185795
  0N   2py       -0.107405  0.000224 -0.000353 -0.000034 -0.000328  0.222137
  0N   1dz2       0.000022 -0.000049 -0.000009  0.000226  0.000071  0.001073
  0N   1dxz       0.000032  0.004519  0.001251 -0.021732 -0.004472  0.000010
  0N   1dyz      -0.000002  0.002242  0.003425 -0.016967  0.009237 -0.000090
  0N   1dx2y2    -0.004485  0.000033  0.000013 -0.000168 -0.000021  0.002238
  0N   1dxy       0.001093  0.000010  0.000022 -0.000092  0.000069  0.012367
  1B   1s        -0.004084  0.000000  0.000000 -0.000001  0.000001  0.016088
  1B   2s        -0.003520 -0.000001  0.000003 -0.000009 -0.000000  0.041413
  1B   1pz       -0.000864  0.073222  0.141968 -0.388023 -0.179673 -0.000166
  1B   1px        0.162380  0.000497  0.000980 -0.002664 -0.001232  0.039157
  1B   1py        0.221676 -0.000084 -0.000159  0.000439  0.000210  0.106437
  1B   3s         0.014824  0.000001 -0.000018  0.000012  0.000010 -0.080728
  1B   2pz       -0.000164  0.046545  0.090272 -0.500591 -0.231862 -0.000159
  1B   2px        0.024475  0.000317  0.000639 -0.003479 -0.001599  0.035873
  1B   2py        0.001491 -0.000032 -0.000113  0.000572  0.000248  0.095747
  1B   1dz2       0.000296 -0.000276  0.000162 -0.000069  0.000215 -0.004616
  1B   1dxz       0.000205  0.021371 -0.013789  0.003637 -0.017954 -0.000148
  1B   1dyz      -0.000084 -0.011303 -0.001645 -0.013287  0.001052  0.000065
  1B   1dx2y2    -0.026585  0.000135 -0.000098  0.000010 -0.000122  0.011930
  1B   1dxy       0.016476 -0.000100  0.000002 -0.000094  0.000027 -0.010144
  2B   1s         0.003967 -0.000000  0.000001 -0.000002  0.000001  0.016091
  2B   2s         0.003444 -0.000002  0.000001 -0.000005  0.000008  0.041504
  2B   1pz       -0.001493 -0.159563 -0.007533  0.349606 -0.246100  0.000746
  2B   1px        0.238399 -0.001099 -0.000050  0.002413 -0.001695 -0.111659
  2B   1py        0.125662  0.000182  0.000006 -0.000391  0.000280 -0.019595
  2B   3s        -0.014506 -0.000003 -0.000001  0.000051 -0.000052 -0.080850
  2B   2pz       -0.000011 -0.101584 -0.004698  0.451258 -0.317580  0.000654
  2B   2px        0.005257 -0.000684 -0.000036  0.003048 -0.002141 -0.100777
  2B   2py        0.025824  0.000114 -0.000001 -0.000479  0.000343 -0.018983
  2B   1dz2      -0.000287  0.000076  0.000111  0.000157 -0.000018 -0.004617
  2B   1dxz       0.000196 -0.006763 -0.004925 -0.011822  0.004367  0.000040
  2B   1dyz       0.000072 -0.002462  0.026486  0.009031  0.016503  0.000062
  2B   1dx2y2    -0.029985 -0.000048 -0.000004 -0.000073  0.000050 -0.014717
  2B   1dxy      -0.005333 -0.000009  0.000186  0.000077  0.000108 -0.005319
  3N   1s        -0.003893 -0.000000 -0.000001 -0.000000  0.000003 -0.067455
  3N   2s         0.006082  0.000002  0.000002 -0.000001  0.000003  0.135627
  3N   1pz        0.001055 -0.210941 -0.408622 -0.205640 -0.095215  0.000117
  3N   1px       -0.153263 -0.001446 -0.002810 -0.001412 -0.000653 -0.028473
  3N   1py        0.000298  0.000239  0.000467  0.000232  0.000113 -0.077258
  3N   3s         0.042777 -0.000008  0.000005  0.000018 -0.000065  0.714694
  3N   2pz        0.000579 -0.171555 -0.332382 -0.268670 -0.124517  0.000390
  3N   2px       -0.082746 -0.001179 -0.002279 -0.001848 -0.000884 -0.099592
  3N   2py        0.006395  0.000195  0.000376  0.000307  0.000155 -0.272253
  3N   1dz2      -0.000750 -0.000064  0.000027  0.000117 -0.000306  0.001096
  3N   1dxz       0.000055  0.005202 -0.001855 -0.007793  0.025008 -0.000063
  3N   1dyz      -0.000019 -0.000853  0.002730  0.012523 -0.004711  0.000042
  3N   1dx2y2    -0.008547  0.000035 -0.000009 -0.000040  0.000166  0.009606
  3N   1dxy       0.004356 -0.000012  0.000021  0.000095 -0.000061 -0.008116
  4B   1s         0.000119  0.000000 -0.000000  0.000000 -0.000001  0.015976
  4B   2s         0.000089 -0.000000  0.000006 -0.000003 -0.000021  0.041473
  4B   1pz       -0.000681  0.086223 -0.134468  0.038312  0.425800 -0.000614
  4B   1px        0.117177  0.000591 -0.000919  0.000267  0.002916  0.072606
  4B   1py        0.107802 -0.000097  0.000146 -0.000045 -0.000473 -0.086908
  4B   3s        -0.000348  0.000002 -0.000014  0.000013  0.000083 -0.079704
  4B   2pz       -0.000211  0.054929 -0.085427  0.049628  0.549714 -0.000557
  4B   2px        0.035799  0.000376 -0.000585  0.000333  0.003757  0.065370
  4B   2py        0.030157 -0.000068  0.000119 -0.000038 -0.000714 -0.078461
  4B   1dz2      -0.000013 -0.000144 -0.000169 -0.000160 -0.000100 -0.004615
  4B   1dxz       0.000067  0.014964  0.015007  0.015214  0.006555 -0.000057
  4B   1dyz      -0.000008  0.017468  0.004757  0.011253 -0.010549 -0.000100
  4B   1dx2y2    -0.009374  0.000123  0.000107  0.000117  0.000036  0.002787
  4B   1dxy       0.002625  0.000104  0.000015  0.000060 -0.000080  0.015371
  5N   1s         0.003781 -0.000000  0.000000 -0.000001 -0.000002 -0.067449
  5N   2s        -0.005896 -0.000004  0.000002  0.000000  0.000001  0.135646
  5N   1pz       -0.000022  0.459250  0.021634  0.185237 -0.130487 -0.000529
  5N   1px       -0.023394  0.003159  0.000147  0.001276 -0.000893  0.081053
  5N   1py       -0.163750 -0.000523 -0.000022 -0.000210  0.000150  0.014038
  5N   3s        -0.041574  0.000018 -0.000017  0.000011  0.000040  0.714587
  5N   2pz       -0.000054  0.373603  0.017572  0.241983 -0.170464 -0.001878
  5N   2px       -0.006682  0.002557  0.000123  0.001672 -0.001162  0.285135
  5N   2py       -0.089676 -0.000420 -0.000018 -0.000260  0.000181  0.049517
  5N   1dz2       0.000728 -0.000026  0.000022 -0.000156 -0.000024  0.001090
  5N   1dxz       0.000072  0.002179 -0.000895  0.010774 -0.001805  0.000091
  5N   1dyz       0.000014  0.000101  0.005760 -0.014296 -0.023271  0.000040
  5N   1dx2y2    -0.009346  0.000015  0.000000  0.000058 -0.000039 -0.011850
  5N   1dxy      -0.000780 -0.000002  0.000041 -0.000111 -0.000157 -0.004223
  6H   1s        -0.189690  0.000001 -0.000001 -0.000004  0.000002  0.008346
  6H   2s        -0.255800  0.000010 -0.000003 -0.000046  0.000042 -0.126139
  7H   1s        -0.001416 -0.000002  0.000004  0.000003 -0.000003 -0.116902
  7H   2s        -0.001144  0.000001 -0.000003  0.000043 -0.000030 -0.854290
  8H   1s         0.195380 -0.000001  0.000001 -0.000001  0.000002  0.008358
  8H   2s         0.263532 -0.000013  0.000007 -0.000000  0.000008 -0.125933
  9H   1s        -0.047281  0.000004 -0.000001  0.000002 -0.000001 -0.116936
  9H   2s        -0.037063 -0.000001 -0.000005 -0.000014 -0.000017 -0.852755
 10H   1s        -0.005692 -0.000001  0.000004  0.000001 -0.000005  0.008304
 10H   2s        -0.007740 -0.000004  0.000018  0.000009 -0.000070 -0.126450
 11H   1s         0.048694  0.000000 -0.000001  0.000001  0.000000 -0.117030
 11H   2s         0.038254  0.000001  0.000001 -0.000001  0.000009 -0.853603
                     24        25        26        27        28        29   
                   0.09812   0.10870   0.10879   0.17541   0.18995   0.19001
                   0.00000   0.00000   0.00000   0.00000   0.00000   0.00000
                  --------  --------  --------  --------  --------  --------
  0N   1s        -0.000010  0.086180 -0.001813  0.049876 -0.011042  0.049621
  0N   2s         0.000009 -0.126544  0.002651 -0.081524  0.016316 -0.072958
  0N   1pz        0.277606 -0.001111  0.000221  0.000482 -0.000113  0.001040
  0N   1px        0.001886  0.141705 -0.037292 -0.057020  0.007050 -0.126509
  0N   1py       -0.000300 -0.171292 -0.024908  0.068532 -0.049186  0.143281
  0N   3s         0.000166 -1.254109  0.026499 -0.650316  0.172073 -0.777033
  0N   2pz        0.372726 -0.002626  0.000067  0.001866 -0.000222  0.002542
  0N   2px        0.002489  0.324638 -0.010533 -0.226288  0.011610 -0.313271
  0N   2py       -0.000399 -0.388314  0.005527  0.272163 -0.126653  0.353904
  0N   1dz2       0.000134  0.005056 -0.000100  0.012779 -0.000879  0.003810
  0N   1dxz      -0.009490  0.000057 -0.000106  0.000151 -0.000056  0.000032
  0N   1dyz       0.011369 -0.000049  0.000003 -0.000084  0.000039 -0.000174
  0N   1dx2y2    -0.000053  0.001435  0.014737  0.001570  0.005512  0.005817
  0N   1dxy       0.000087  0.005964 -0.002827  0.008466 -0.006414  0.023456
  1B   1s         0.000001 -0.019482 -0.032143 -0.090294 -0.070032 -0.063648
  1B   2s        -0.000004  0.029212  0.048276  0.018736  0.095694  0.087433
  1B   1pz       -0.238022  0.000542 -0.000141 -0.000121 -0.000999  0.000851
  1B   1px       -0.001624 -0.086284  0.001234  0.034231  0.153416 -0.098955
  1B   1py        0.000267 -0.038146 -0.116062  0.093651  0.050483  0.133724
  1B   3s         0.000004  0.091207  0.150492  1.481799  0.963779  0.874669
  1B   2pz       -0.452115  0.002405 -0.001523 -0.000157 -0.004263  0.004170
  1B   2px       -0.003090 -0.335595  0.215821  0.036885  0.617129 -0.544557
  1B   2py        0.000497  0.140208 -0.051215  0.100062 -0.025035  0.384072
  1B   1dz2       0.000027  0.004711  0.007734  0.012824  0.006991  0.006384
  1B   1dxz      -0.004158  0.000078  0.000116  0.000112 -0.000009  0.000121
  1B   1dyz      -0.011331 -0.000007 -0.000041 -0.000002 -0.000107  0.000124
  1B   1dx2y2    -0.000041 -0.003725 -0.002855  0.005005  0.015420 -0.009832
  1B   1dxy      -0.000072  0.000224  0.004210 -0.004287  0.010987 -0.018119
  2B   1s         0.000007 -0.018186  0.032845 -0.089825  0.090888 -0.028371
  2B   2s         0.000010  0.027029 -0.049528  0.017797 -0.123519  0.038807
  2B   1pz       -0.237898 -0.000306  0.000819  0.000629 -0.000714  0.000666
  2B   1px       -0.001645  0.048155 -0.115919 -0.097369  0.118542 -0.071080
  2B   1py        0.000264  0.078888  0.018442 -0.016132  0.078298  0.169289
  2B   3s        -0.000105  0.087432 -0.151905  1.476680 -1.252320  0.390865
  2B   2pz       -0.452081  0.000895  0.000307  0.000709 -0.001017  0.002458
  2B   2px       -0.003042 -0.078466 -0.007976 -0.105814  0.198299 -0.221460
  2B   2py        0.000420  0.364726  0.205271 -0.013861  0.301786  0.811989
  2B   1dz2      -0.000137  0.004321 -0.007955  0.012787 -0.009154  0.002822
  2B   1dxz       0.011881  0.000031 -0.000069  0.000194 -0.000175 -0.000042
  2B   1dyz       0.002073 -0.000002  0.000041 -0.000003  0.000047  0.000160
  2B   1dx2y2     0.000085  0.003329 -0.004310 -0.006134  0.008444  0.006961
  2B   1dxy      -0.000000 -0.001232 -0.002924 -0.002250 -0.005769 -0.025054
  3N   1s         0.000004 -0.044709 -0.073643  0.049609 -0.037965 -0.034722
  3N   2s        -0.000010  0.065756  0.108241 -0.081529  0.056009  0.051353
  3N   1pz        0.277407 -0.000066  0.000392  0.000123 -0.000068 -0.000306
  3N   1px        0.001908 -0.004064 -0.087328 -0.029854  0.033322  0.063758
  3N   1py       -0.000302 -0.121470 -0.170564 -0.081760  0.142145  0.117619
  3N   3s        -0.000048  0.650012  1.070954 -0.644445  0.593202  0.541936
  3N   2pz        0.372801  0.000368  0.000565  0.000448 -0.000142 -0.000777
  3N   2px        0.002606 -0.087383 -0.151825 -0.119252  0.079049  0.161770
  3N   2py       -0.000401 -0.249398 -0.407544 -0.327337  0.354006  0.290584
  3N   1dz2       0.000032 -0.002589 -0.004288  0.012708 -0.002960 -0.002702
  3N   1dxz      -0.005094  0.000034 -0.000046  0.000100  0.000058  0.000087
  3N   1dyz      -0.013893  0.000068 -0.000056  0.000004 -0.000086 -0.000025
  3N   1dx2y2    -0.000049 -0.010708  0.001065  0.006445 -0.010954 -0.015972
  3N   1dxy      -0.000087 -0.007745  0.009322 -0.005446  0.015313  0.006952
  4B   1s        -0.000002  0.037506 -0.000871 -0.089561 -0.020023  0.093228
  4B   2s         0.000027 -0.056399  0.000689  0.018096  0.027086 -0.127022
  4B   1pz       -0.237792 -0.000704 -0.000305 -0.000549 -0.000954  0.000555
  4B   1px       -0.001643  0.082627  0.059091  0.063309  0.159151 -0.054658
  4B   1py        0.000283 -0.096310  0.052799 -0.075031  0.095222  0.128515
  4B   3s        -0.000081 -0.173709  0.005543  1.470514  0.276329 -1.283448
  4B   2pz       -0.452205  0.000069 -0.001921 -0.000565 -0.004216  0.000465
  4B   2px       -0.003068 -0.012850  0.326079  0.071361  0.694793 -0.019789
  4B   2py        0.000590  0.029391  0.270388 -0.078125  0.505328  0.312695
  4B   1dz2       0.000112 -0.009072  0.000210  0.012845  0.002009 -0.009463
  4B   1dxz      -0.007705 -0.000111 -0.000015  0.000150 -0.000162 -0.000152
  4B   1dyz       0.009258 -0.000022  0.000000 -0.000069 -0.000011  0.000060
  4B   1dx2y2    -0.000044  0.001077  0.002577  0.001193  0.026361  0.004674
  4B   1dxy       0.000071  0.005655 -0.000640  0.006385 -0.003487 -0.007095
  5N   1s         0.000011 -0.041544  0.075598  0.049859  0.048540 -0.015677
  5N   2s        -0.000017  0.061110 -0.111147 -0.081587 -0.071525  0.023242
  5N   1pz        0.277470 -0.000769  0.001224 -0.000573 -0.001246  0.000328
  5N   1px        0.001880  0.112203 -0.188458  0.087319  0.184928 -0.054613
  5N   1py       -0.000315 -0.020207 -0.054415  0.015137  0.024064 -0.035270
  5N   3s        -0.000154  0.603917 -1.099359 -0.650069 -0.759472  0.244025
  5N   2pz        0.372800 -0.001572  0.002896 -0.002319 -0.003085  0.000817
  5N   2px        0.002498  0.241901 -0.437953  0.347648  0.458305 -0.134042
  5N   2py       -0.000419  0.038368 -0.078565  0.060033  0.057618 -0.094463
  5N   1dz2      -0.000168 -0.002413  0.004423  0.012759  0.003734 -0.001233
  5N   1dxz       0.014586 -0.000090  0.000060  0.000205  0.000180 -0.000083
  5N   1dyz       0.002522  0.000076  0.000052  0.000005  0.000084  0.000015
[...]
 4 B  dxy             0.0       0.6       0.1       0.0       0.0       9.4
 5 N  s               3.6       0.0       0.8       1.0       4.6       4.6
 5 N  px              0.5       0.3       0.8       0.5       1.3       2.1
 5 N  py              0.0      11.1       0.6       0.9       1.9       1.1
 5 N  dz2             3.9       0.0       2.4       3.1       0.0       0.0
 5 N  dx2y2           0.0       0.4       0.0       0.0       1.4       0.3
 5 N  dxy             0.0       3.1       0.1       0.1       0.4       1.6
 6 H  s               1.6       0.0       1.9       2.5       1.4       1.4
 7 H  s               0.5       0.0       0.0       0.4       0.1       0.8
 8 H  s               1.6       0.0       4.3       0.2       2.6       0.2
 9 H  s               0.5       0.0       0.2       0.2       0.4       0.4
10 H  s               1.6       0.0       0.5       4.0       0.2       2.6
11 H  s               0.5       0.0       0.4       0.0       0.8       0.1

                     78        79        80        81        82        83   
                   1.98295   1.98302   1.99705   1.99712   2.02688   2.15790
                   0.00000   0.00000   0.00000   0.00000   0.00000   0.00000
                  --------  --------  --------  --------  --------  --------
 0 N  s               0.0       0.0       0.1       0.0       3.2       0.0
 0 N  pz              2.8       0.0       0.0       0.0       0.0       0.0
 0 N  px              0.0       0.0       4.2       2.8       2.9       0.0
 0 N  py              0.0       0.0       5.7       2.3       4.2       0.0
 0 N  dz2             0.0       0.0       2.8       0.1       0.2       0.0
 0 N  dxz            17.9       0.2       0.0       0.0       0.0      28.0
 0 N  dyz            25.1       0.6       0.0       0.0       0.0      19.8
 0 N  dx2y2           0.0       0.0       0.0       1.1       0.1       0.0
 0 N  dxy             0.0       0.0       1.6       0.0       2.8       0.0
 1 B  s               0.0       0.0       0.0       0.3       2.3       0.0
 1 B  pz              0.2       0.6       0.0       0.0       0.0       1.3
 1 B  px              0.0       0.0       0.5       0.1       0.0       0.0
 1 B  py              0.0       0.0       0.1       0.1       0.2       0.0
 1 B  dz2             0.0       0.0       0.3       2.0       0.0       0.0
 1 B  dxz             9.3       0.5       0.0       0.0       0.0       2.6
 1 B  dyz             0.4       9.1       0.0       0.0       0.0       1.3
 1 B  dx2y2           0.0       0.0       0.6      17.0       6.5       0.0
 1 B  dxy             0.0       0.0      12.3       3.6       4.7       0.0
 2 B  s               0.0       0.0       0.1       0.2       2.3       0.0
 2 B  pz              0.2       0.6       0.0       0.0       0.0       0.8
 2 B  px              0.0       0.0       0.1       0.1       0.2       0.0
 2 B  py              0.0       0.0       0.4       0.3       0.0       0.0
 2 B  dz2             0.0       0.0       0.9       1.4       0.0       0.0
 2 B  dxz             0.8       8.7       0.0       0.0       0.0       0.8
 2 B  dyz             8.9       0.9       0.0       0.0       0.0       6.3
 2 B  dx2y2           0.0       0.0       3.5      17.2       9.9       0.0
 2 B  dxy             0.0       0.0      12.0       0.6       1.3       0.0
 3 N  s               0.0       0.0       0.0       0.1       3.2       0.0
 3 N  pz              0.8       2.0       0.0       0.0       0.0       0.2
 3 N  px              0.0       0.0       3.8       1.8       0.8       0.0
 3 N  py              0.0       0.0       1.9       7.5       6.2       0.0
 3 N  dz2             0.0       0.0       0.4       2.5       0.2       0.0
 3 N  dxz             3.5       2.2       0.0       0.0       0.0       4.5
 3 N  dyz             9.6      28.5       0.0       0.0       0.0       0.5
 3 N  dx2y2           0.0       0.0       1.0       0.4       1.7       0.0
 3 N  dxy             0.0       0.0       0.2       1.1       1.2       0.0
 4 B  s               0.0       0.0       0.3       0.0       2.3       0.0
 4 B  pz              0.8       0.0       0.0       0.0       0.0       0.1
 4 B  px              0.0       0.0       0.1       0.4       0.1       0.0
 4 B  py              0.0       0.0       0.1       0.3       0.1       0.0
 4 B  dz2             0.0       0.0       2.2       0.1       0.0       0.0
 4 B  dxz             4.3       5.3       0.0       0.0       0.0       5.8
 4 B  dyz             5.1       4.5       0.0       0.0       0.0       6.1
 4 B  dx2y2           0.0       0.0       1.8      10.0       0.4       0.0
 4 B  dxy             0.0       0.0      19.9       1.7      10.8       0.0
 5 N  s               0.0       0.0       0.0       0.1       3.2       0.0
 5 N  pz              0.6       2.2       0.0       0.0       0.0       0.1
 5 N  px              0.0       0.0       4.0       5.8       6.8       0.0
 5 N  py              0.0       0.0       2.9       2.2       0.2       0.0
 5 N  dz2             0.0       0.0       1.1       1.7       0.2       0.0
 5 N  dxz             8.1      33.8       0.0       0.0       0.0       0.5
 5 N  dyz             1.5       0.4       0.0       0.0       0.0      21.3
 5 N  dx2y2           0.0       0.0       1.0       0.5       2.6       0.0
 5 N  dxy             0.0       0.0       0.2       0.9       0.3       0.0
 6 H  s               0.0       0.0       1.1       1.6       2.7       0.0
 7 H  s               0.0       0.0       6.2       0.1       3.6       0.0
 8 H  s               0.0       0.0       0.4       2.4       2.7       0.0
 9 H  s               0.0       0.0       2.5       3.9       3.6       0.0
10 H  s               0.0       0.0       2.6       0.1       2.7       0.0
11 H  s               0.0       0.0       0.8       5.5       3.6       0.0

                     84        85        86        87        88        89   
                   2.15793   2.16552   2.42193   2.42199   2.47358   2.48816
                   0.00000   0.00000   0.00000   0.00000   0.00000   0.00000
                  --------  --------  --------  --------  --------  --------
 0 N  s               0.0       0.0       3.9       6.7       0.0       3.8
 0 N  pz              0.2       1.4       0.0       0.0       0.0       0.0
 0 N  px              0.0       0.0       1.1       0.1       0.0       0.1
 0 N  py              0.0       0.0       0.1       0.9       0.0       0.2
 0 N  dz2             0.0       0.0       8.4      14.6       0.0      17.6
 0 N  dxz             1.3       9.1       0.0       0.0      13.1       0.0
 0 N  dyz             0.7      12.9       0.0       0.0       9.1       0.0
 0 N  dx2y2           0.0       0.0       1.2       2.3       0.0       0.0
 0 N  dxy             0.0       0.0       4.3       4.7       0.0       0.8
 1 B  s               0.0       0.0       0.0       0.1       0.0       2.0
 1 B  pz              0.1       0.9       0.0       0.0       0.0       0.0
 1 B  px              0.0       0.0       1.5       0.2       0.0       0.1
 1 B  py              0.0       0.0       0.2       0.1       0.0       0.7
 1 B  dz2             0.0       0.0       0.2       1.3       0.0       4.5
 1 B  dxz             8.6       1.1       0.0       0.0       9.7       0.0
 1 B  dyz             2.7       8.0       0.0       0.0       1.3       0.0
 1 B  dx2y2           0.0       0.0       2.9       1.0       0.0       0.2
 1 B  dxy             0.0       0.0       0.6       3.1       0.0       0.1
 2 B  s               0.0       0.0       0.1       0.0       0.0       2.0
 2 B  pz              0.6       0.9       0.0       0.0       0.0       0.0
 2 B  px              0.0       0.0       0.0       0.0       0.0       0.8
 2 B  py              0.0       0.0       0.0       1.8       0.0       0.0
 2 B  dz2             0.0       0.0       1.5       0.0       0.0       4.5
 2 B  dxz             2.5       8.8       0.0       0.0       0.3       0.0
 2 B  dyz             5.7       0.2       0.0       0.0      10.7       0.0
 2 B  dx2y2           0.0       0.0       3.5       0.7       0.0       0.3
 2 B  dxy             0.0       0.0       0.8       2.5       0.0       0.0
 3 N  s               0.0       0.0       1.6       9.0       0.0       3.8
 3 N  pz              0.0       1.5       0.0       0.0       0.0       0.0
 3 N  px              0.0       0.0       1.5       0.1       0.0       0.0
 3 N  py              0.0       0.0       0.0       0.6       0.0       0.2
 3 N  dz2             0.0       0.0       3.5      19.6       0.0      17.6
 3 N  dxz            39.4       2.6       0.0       0.0      19.6       0.0
 3 N  dyz             5.3      19.4       0.0       0.0       2.6       0.0
 3 N  dx2y2           0.0       0.0       0.0       6.7       0.0       0.5
 3 N  dxy             0.0       0.0       4.2       1.6       0.0       0.3
 4 B  s               0.0       0.0       0.0       0.1       0.0       2.0
 4 B  pz              1.4       0.9       0.0       0.0       0.0       0.0
 4 B  px              0.0       0.0       0.8       0.3       0.0       0.3
 4 B  py              0.0       0.0       0.4       0.4       0.0       0.5
 4 B  dz2             0.0       0.0       0.6       1.0       0.0       4.5
 4 B  dxz             2.6       3.7       0.0       0.0       6.5       0.0
 4 B  dyz             0.7       5.3       0.0       0.0       4.5       0.0
 4 B  dx2y2           0.0       0.0       2.7       0.6       0.0       0.0
 4 B  dxy             0.0       0.0       1.0       3.3       0.0       0.3
 5 N  s               0.0       0.0      10.5       0.2       0.0       3.8
 5 N  pz              0.1       1.5       0.0       0.0       0.0       0.0
 5 N  px              0.0       0.0       0.5       0.0       0.0       0.3
 5 N  py              0.0       0.0       0.0       1.6       0.0       0.0
 5 N  dz2             0.0       0.0      22.7       0.4       0.0      17.6
 5 N  dxz             0.9      21.3       0.0       0.0       0.7       0.0
 5 N  dyz            27.1       0.6       0.0       0.0      21.6       0.0
 5 N  dx2y2           0.0       0.0       8.4       0.1       0.0       0.7
 5 N  dxy             0.0       0.0       0.6       3.4       0.0       0.1
 6 H  s               0.0       0.0       1.2       0.0       0.0       0.7
 7 H  s               0.0       0.0       2.2       3.7       0.0       2.5
 8 H  s               0.0       0.0       0.2       1.0       0.0       0.7
 9 H  s               0.0       0.0       5.8       0.1       0.0       2.5
10 H  s               0.0       0.0       0.4       0.8       0.0       0.7
11 H  s               0.0       0.0       0.9       5.0       0.0       2.5

                     90        91        92        93        94        95   
                   2.62029   2.62033   2.69920   2.69921   2.70584   3.17483
                   0.00000   0.00000   0.00000   0.00000   0.00000   0.00000
                  --------  --------  --------  --------  --------  --------
 0 N  s               3.2       0.7       1.8       0.0       0.0       1.1
 0 N  px              0.1       3.0       0.6       0.7       2.7       0.0
 0 N  py              2.1       0.6       1.2       0.2       1.8       0.0
 0 N  dz2             7.5       1.6       1.7       0.0       0.0       0.5
 0 N  dx2y2           2.4      19.5       0.1      15.2      17.8       0.6
 0 N  dxy             7.1       0.1      24.9       0.0       0.6      18.2
 1 B  s               0.1      10.7       0.0       0.1       0.0       1.5
 1 B  px              0.7       0.4       3.5       2.8       4.1       0.0
 1 B  py              0.1       3.1       1.1       0.0       0.5       0.1
 1 B  dz2             0.0       1.8       0.0       0.0       0.0       0.2
 1 B  dx2y2           0.6       0.1       3.6       1.5       2.6       5.5
 1 B  dxy             1.0       0.0       0.1       3.9       3.7       4.0
 2 B  s               7.2       3.5       0.0       0.1       0.0       1.5
 2 B  px              2.1       1.3       0.4       0.1       0.1       0.1
 2 B  py              0.5       0.4       5.8       1.2       4.4       0.0
 2 B  dz2             1.2       0.6       0.0       0.0       0.0       0.2
 2 B  dx2y2           0.0       0.3       1.9       5.2       0.7       8.4
 2 B  dxy             0.6       0.8       0.5       1.6       5.6       1.1
 3 N  s               0.0       3.9       0.7       1.1       0.0       1.1
 3 N  px              3.6       0.1       0.2       0.8       3.9       0.0
 3 N  py              0.4       1.7       1.0       0.7       0.5       0.0
 3 N  dz2             0.1       9.0       0.6       1.1       0.0       0.5
 3 N  dx2y2          10.4       2.9       0.1      21.2       7.3      11.0
 3 N  dxy            12.0       3.9      19.0       0.5      10.5       7.9
 4 B  s               8.8       1.9       0.1       0.0       0.0       1.5
 4 B  px              0.9       1.0       0.0       4.4       2.6       0.0
 4 B  py              2.1       0.3       0.4       2.8       1.8       0.1
 4 B  dz2             1.5       0.3       0.0       0.0       0.0       0.2
 4 B  dx2y2           0.3       1.2       0.4       1.3       6.0       0.3
 4 B  dxy             0.0       0.1       7.3       0.3       0.2       9.2
 5 N  s               2.6       1.3       0.3       1.5       0.0       1.1
 5 N  px              0.8       1.0       0.4       1.3       0.1       0.0
 5 N  py              1.7       2.3       0.6       0.3       4.3       0.0
 5 N  dz2             6.1       3.0       0.3       1.5       0.0       0.5
 5 N  dx2y2           8.5       0.0       0.4      23.9       1.9      16.7
 5 N  dxy             3.4      17.3      16.4       0.0      16.1       2.1
 6 H  s               0.0       0.0       0.1       0.5       0.0       0.5
 7 H  s               0.2       0.0       2.4       0.0       0.0       1.0
 8 H  s               0.0       0.1       0.2       0.4       0.0       0.5
 9 H  s               0.2       0.1       0.4       2.1       0.0       1.0
10 H  s               0.1       0.0       0.5       0.0       0.0       0.5
11 H  s               0.0       0.2       0.9       1.5       0.0       1.0



                      *****************************
                      * MAYER POPULATION ANALYSIS *
                      *****************************

  NA   - Mulliken gross atomic population
  ZA   - Total nuclear charge
  QA   - Mulliken gross atomic charge
  VA   - Mayer's total valence
  BVA  - Mayer's bonded valence
  FA   - Mayer's free valence

  ATOM       NA         ZA         QA         VA         BVA        FA
  0 N      7.5373     7.0000    -0.5373     3.2849     3.2849    -0.0000
  1 B      4.7309     5.0000     0.2691     3.4823     3.4823     0.0000
  2 B      4.7311     5.0000     0.2689     3.4822     3.4822    -0.0000
  3 N      7.5385     7.0000    -0.5385     3.2843     3.2843     0.0000
  4 B      4.7306     5.0000     0.2694     3.4815     3.4815    -0.0000
  5 N      7.5381     7.0000    -0.5381     3.2842     3.2842     0.0000
  6 H      1.0489     1.0000    -0.0489     0.9557     0.9557    -0.0000
  7 H      0.6825     1.0000     0.3175     0.8587     0.8587     0.0000
  8 H      1.0490     1.0000    -0.0490     0.9557     0.9557    -0.0000
  9 H      0.6822     1.0000     0.3178     0.8586     0.8586    -0.0000
 10 H      1.0486     1.0000    -0.0486     0.9558     0.9558    -0.0000
 11 H      0.6823     1.0000     0.3177     0.8586     0.8586     0.0000

  Mayer bond orders larger than 0.1
B(  0-N ,  1-B ) :   1.1978 B(  0-N ,  2-B ) :   1.1977 B(  0-N ,  7-H ) :   0.8494 
B(  1-B ,  5-N ) :   1.1975 B(  1-B ,  8-H ) :   0.9547 B(  2-B ,  3-N ) :   1.1975 
B(  2-B ,  6-H ) :   0.9548 B(  3-N ,  4-B ) :   1.1972 B(  3-N , 11-H ) :   0.8494 
B(  4-B ,  5-N ) :   1.1973 B(  4-B , 10-H ) :   0.9548 B(  5-N ,  9-H ) :   0.8493 


-------
TIMINGS
-------

Total SCF time: 0 days 0 hours 0 min 6 sec 

Total time                  ....       6.213 sec
Sum of individual times     ....       5.921 sec  ( 95.3%)

Fock matrix formation       ....       4.601 sec  ( 74.1%)
  XC integration            ....       1.212 sec  ( 26.3% of F)
    Basis function eval.    ....       0.436 sec  ( 36.0% of XC)
    Density eval.           ....       0.307 sec  ( 25.4% of XC)
    XC-Functional eval.     ....       0.101 sec  (  8.4% of XC)
    XC-Potential eval.      ....       0.301 sec  ( 24.8% of XC)
Diagonalization             ....       0.002 sec  (  0.0%)
Density matrix formation    ....       0.000 sec  (  0.0%)
Population analysis         ....       0.027 sec  (  0.4%)
Initial guess               ....       0.002 sec  (  0.0%)
Orbital Transformation      ....       0.000 sec  (  0.0%)
Orbital Orthonormalization  ....       0.001 sec  (  0.0%)
DIIS solution               ....       0.000 sec  (  0.0%)
SOSCF solution              ....       0.002 sec  (  0.0%)
Grid generation             ....       1.287 sec  ( 20.7%)

-------------------------   --------------------
FINAL SINGLE POINT ENERGY      -242.511451527773
-------------------------   --------------------

                                *** OPTIMIZATION RUN DONE ***

                            ***************************************
                            *     ORCA property calculations      *
                            ***************************************

                                    ---------------------
                                    Active property flags
                                    ---------------------
   (+) Dipole Moment


------------------------------------------------------------------------------
                       ORCA ELECTRIC PROPERTIES CALCULATION
------------------------------------------------------------------------------

Dipole Moment Calculation                       ... on
Quadrupole Moment Calculation                   ... off
Polarizability Calculation                      ... off
GBWName                                         ... /Users/lailaal-madhagi/Desktop/Testing_XAS_Analysis_code/Borazine//Results_dir_Borazine_geom_element_B_2019-11-09_12-51-34//GTE1_Borazine_geom_2019-11-09_12-51-43//opt.gbw
Electron density file                           ... /Users/lailaal-madhagi/Desktop/Testing_XAS_Analysis_code/Borazine//Results_dir_Borazine_geom_element_B_2019-11-09_12-51-34//GTE1_Borazine_geom_2019-11-09_12-51-43//opt.scfp.tmp
The origin for moment calculation is the CENTER OF MASS  = (-3.094101, -1.066039  0.065364)

-------------
DIPOLE MOMENT
-------------
                                X             Y             Z
Electronic contribution:     -0.00004      -0.00014       0.00002
Nuclear contribution   :      0.00003      -0.00006       0.00003
                        -----------------------------------------
Total Dipole Moment    :     -0.00001      -0.00021       0.00005
                        -----------------------------------------
Magnitude (a.u.)       :      0.00021
Magnitude (Debye)      :      0.00054



--------------------
Rotational spectrum 
--------------------
 
Rotational constants in cm-1:     0.176530     0.176524     0.088263 
Rotational constants in MHz :  5292.236026  5292.041984  2646.069502 

 Dipole components along the rotational axes: 
x,y,z [a.u.] :    -0.000165    -0.000128     0.000047 
x,y,z [Debye]:    -0.000421    -0.000325     0.000120 

 

Timings for individual modules:

Sum of individual times         ...      140.593 sec (=   2.343 min)
GTO integral calculation        ...        3.554 sec (=   0.059 min)   2.5 %
SCF iterations                  ...       82.797 sec (=   1.380 min)  58.9 %
SCF Gradient evaluation         ...       52.578 sec (=   0.876 min)  37.4 %
Geometry relaxation             ...        1.665 sec (=   0.028 min)   1.2 %
                             ****ORCA TERMINATED NORMALLY****
TOTAL RUN TIME: 0 days 0 hours 2 minutes 21 seconds 590 msec
